Control file title. For DL_FIELD 4.10
49910
    1MOL     C1    1   7.373   0.559   2.701 -0.7466 -0.4445 -0.0936
    1MOL     O2    2   7.416   0.635   2.592 -0.2628  0.0332  0.3967
    1MOL     C3    3   7.558   0.623   2.557  0.4132 -0.1333 -0.3688
    1MOL     C4    4   7.653   0.726   2.620  0.0630  0.1382 -0.4004
    1MOL     C5    5   7.797   0.729   2.569  0.7496 -0.0334  0.3075
    1MOL     C6    6   7.225   0.571   2.711 -0.0154 -0.8425  0.2698
    1MOL     H7    7   7.421   0.597   2.791  1.7579  0.0843 -1.6022
    1MOL     H8    8   7.605   0.529   2.585  1.6223  0.8413  0.9163
    1MOL     H9    9   7.565   0.614   2.449  2.5053 -2.5088 -0.0852
    1MOL    H10   10   7.650   0.718   2.729  0.3549  2.0227 -0.2271
    1MOL    H11   11   7.608   0.824   2.606  0.9726  0.6607  0.2675
    1MOL    H12   12   7.818   0.744   2.463  0.8573  0.7244  0.4387
    1MOL    H13   13   0.016   0.631   2.583  1.9721  0.5400  0.3066
    1MOL    H14   14   0.022   0.807   2.624  0.7772  0.1936 -0.0399
    1MOL    H15   15   7.199   0.667   2.755 -0.6169  1.1813 -4.1666
    1MOL    H16   16   7.188   0.561   2.608  0.1736  0.1804  0.0930
    1MOL    H17   17   7.407   0.456   2.696  1.8813  0.3880 -0.1735
    1MOL    C18   18   7.161   0.463   2.798 -0.1713 -0.1837 -0.1651
    1MOL    O19   19   7.239   0.462   2.914 -0.1178 -0.0477  0.5367
    1MOL    C20   20   7.245   0.330   2.970  0.9828 -0.3727 -0.2590
    1MOL    C21   21   7.363   0.315   3.067  0.5417 -0.4196  0.8180
    1MOL    C22   22   7.391   0.166   3.098  0.8566 -0.6089  0.8169
    1MOL    C23   23   7.010   0.489   2.830 -0.5910  0.4096 -0.2568
    1MOL    H24   24   7.167   0.373   2.736 -0.4836  0.5476 -1.2662
    1MOL    H25   25   7.153   0.306   3.023  2.5940  0.5143  3.0505
    1MOL    H26   26   7.258   0.254   2.893 -1.9199  0.9510 -2.1520
    1MOL    H27   27   7.369   0.373   3.159  2.2800  0.3154  0.2744
    1MOL    H28   28   7.445   0.355   3.008  0.3310  0.2481  0.9746
    1MOL    H29   29   7.472   0.163   3.170  2.4290 -2.2663 -0.9877
    1MOL    H30   30   7.437   0.123   3.009 -1.9246 -1.1710 -0.4162
    1MOL    H31   31   7.310   0.105   3.137  0.1728  0.0868  0.5185
    1MOL    H32   32   6.980   0.431   2.917 -1.2000 -0.9975 -1.3776
    1MOL    H33   33   7.022   0.586   2.878  1.1917  0.5848 -1.0099
    1MOL    C34   34   6.913   0.496   2.714  0.7035  0.1143  0.0548
    1MOL    O35   35   6.928   0.371   2.638  0.7844 -0.0883 -0.1561
    1MOL    C36   36   6.954   0.396   2.507  0.1368 -0.2680  0.4492
    1MOL    C37   37   7.030   0.286   2.447 -0.4090 -0.2258  0.3638
    1MOL    C38   38   6.936   0.168   2.404 -0.1538 -0.6612 -0.1241
    1MOL    C39   39   6.753   0.525   2.741  0.3043  0.2098 -0.1626
    1MOL    H40   40   6.943   0.576   2.646  2.3012 -0.4606  0.0437
    1MOL    H41   41   6.864   0.416   2.448  2.3075  0.4044 -2.7985
    1MOL    H42   42   7.021   0.480   2.493 -0.4515  0.4963  2.0817
    1MOL    H43   43   7.097   0.240   2.520  0.5504 -3.0743 -2.1631
    1MOL    H44   44   7.084   0.316   2.357  1.3451 -0.7273  1.2170
    1MOL    H45   45   6.863   0.190   2.326  1.9351  0.6707 -1.7738
    1MOL    H46   46   6.896   0.114   2.490  0.5726 -1.6153 -0.3725
    1MOL    H47   47   6.996   0.086   2.364  3.2428  1.3489  0.7243
    1MOL    H48   48   6.697   0.525   2.648  1.3497 -0.3539 -0.7935
    1MOL    H49   49   6.697   0.442   2.784 -0.2422  0.4836 -0.3485
    1MOL    C50   50   6.717   0.661   2.807  0.5432 -0.0243 -0.0322
    1MOL    O51   51   6.799   0.680   2.925  0.0746  0.6860 -0.0910
    1MOL    C52   52   6.737   0.659   3.051  0.5221  0.4419  0.6351
    1MOL    C53   53   6.862   0.629   3.139 -0.8328  1.2010  0.4244
    1MOL    C54   54   6.829   0.603   3.286  0.4784  0.0455  0.0483
    1MOL    C55   55   6.748   0.783   2.727  0.3728 -0.0780 -0.2086
    1MOL    H56   56   6.609   0.660   2.821  0.4090 -2.6819 -0.9390
    1MOL    H57   57   6.680   0.748   3.076  1.4652  1.0421  0.6672
    1MOL    H58   58   6.673   0.571   3.044  1.4489 -0.0702 -1.9483
    1MOL    H59   59   6.934   0.710   3.124  1.7990 -0.5051  3.2622
    1MOL    H60   60   6.916   0.546   3.095  0.5886  1.1667  2.1766
    1MOL    H61   61   6.749   0.536   3.317  1.7372 -0.9244  1.2409
    1MOL    H62   62   6.805   0.698   3.335 -0.6358  0.9102 -2.1252
    1MOL    H63   63   6.915   0.566   3.342 -0.0577 -0.4673  0.5350
    1MOL    H64   64   6.773   0.862   2.797 -1.4732  1.4321 -1.2274
    1MOL    H65   65   6.835   0.780   2.662  1.5619  2.9947  1.1947
    1MOL    C66   66   6.621   0.829   2.651 -1.3798  0.4943  0.1038
    1MOL    O67   67   6.572   0.728   2.566  0.3590 -0.2687 -0.8381
    1MOL    C68   68   6.641   0.696   2.445  0.2835  0.1837  0.8195
    1MOL    C69   69   6.550   0.608   2.358  0.0914  0.8206  0.1780
    1MOL    C70   70   6.529   0.468   2.418  0.2300  0.0054  0.1219
    1MOL    C71   71   6.505   0.895   2.739 -0.1429 -0.7238  0.3273
    1MOL    H72   72   6.651   0.913   2.588  0.0289  0.0597  0.1876
    1MOL    H73   73   6.642   0.797   2.404  0.0844  0.5086  1.6140
    1MOL    H74   74   6.739   0.650   2.456 -0.0509 -0.8040 -0.2088
    1MOL    H75   75   6.581   0.589   2.255 -2.4028  0.3304 -0.5271
    1MOL    H76   76   6.457   0.662   2.339  1.4518  2.9393 -0.6720
    1MOL    H77   77   6.472   0.400   2.355  2.1904 -1.5645 -0.0245
    1MOL    H78   78   6.477   0.479   2.513 -1.1960  0.0040 -0.6473
    1MOL    H79   79   6.626   0.419   2.412  0.4825  0.2702  1.8292
    1MOL    H80   80   6.469   0.818   2.807  3.0839 -0.7919  2.0639
    1MOL    H81   81   6.554   0.974   2.797 -0.5083 -0.5257  0.3632
    1MOL    C82   82   6.403   0.970   2.650  0.1160 -0.7351 -0.6489
    1MOL    O83   83   6.284   0.982   2.720  0.9261  0.3947 -0.4337
    1MOL    C84   84   6.191   0.868   2.707 -0.2018 -0.2791 -0.2215
    1MOL    C85   85   6.086   0.911   2.808 -0.7661 -0.5283  0.0903
    1MOL    C86   86   6.015   1.047   2.768 -0.2871 -0.6956 -0.2922
    1MOL    C87   87   6.443   1.112   2.593 -0.0175 -0.9499  0.8094
    1MOL    H88   88   6.387   0.910   2.561 -1.6381 -0.2671 -0.6804
    1MOL    H89   89   6.149   0.866   2.606 -0.4826 -0.2640 -0.1054
    1MOL    H90   90   6.227   0.769   2.733 -0.3128 -0.3698 -0.4124
    1MOL    H91   91   6.126   0.917   2.909  1.3507 -1.0859 -0.6891
    1MOL    H92   92   6.008   0.836   2.817 -1.1635  0.0969  2.1018
    1MOL    H93   93   5.932   1.067   2.835  0.7207  0.9142  0.5079
    1MOL    H94   94   5.976   1.050   2.666  0.5590 -0.8628 -0.6316
    1MOL    H95   95   6.063   1.145   2.778 -0.1860 -0.6503 -1.1366
    1MOL    H96   96   6.441   1.185   2.674  0.1145  0.2311 -0.2266
    1MOL    H97   97   6.548   1.109   2.564 -0.3748  1.1591 -0.8195
    1MOL    C98   98   6.354   1.179   2.489  0.3217 -0.7419 -0.1886
    1MOL    O99   99   6.308   1.306   2.544  0.3592  0.4152 -0.3347
    1MOL   C100  100   6.175   1.323   2.510  1.1390 -0.7487 -0.4255
    1MOL   C101  101   6.105   1.436   2.585 -0.0912  0.6438  0.4506
    1MOL   C102  102   6.200   1.556   2.608 -0.2824  1.2824  0.5366
    1MOL   C103  103   6.433   1.217   2.367 -0.2438 -0.2868 -0.1036
    1MOL   H104  104   6.276   1.107   2.463  0.8459 -1.7606  0.9724
    1MOL   H105  105   6.182   1.347   2.404  1.2234  0.7117 -0.1067
    1MOL   H106  106   6.111   1.236   2.523  1.7228 -1.0906  0.1499
    1MOL   H107  107   6.073   1.395   2.681  2.0657  0.1546  1.0064
    1MOL   H108  108   6.019   1.480   2.536 -0.9847  0.5142  1.8807
    1MOL   H109  109   6.138   1.645   2.622 -0.8275  0.7110  1.8783
    1MOL   H110  110   6.262   1.570   2.519  0.3128  0.8628  0.8781
    1MOL   H111  111   6.274   1.540   2.686  0.8988 -2.9809 -1.2958
    1MOL   H112  112   6.361   1.261   2.297  1.3843  0.0619 -1.5957
    1MOL   H113  113   6.505   1.298   2.375 -0.6142 -0.0782  1.1249
    1MOL   C114  114   6.508   1.104   2.286 -0.5802 -0.5885 -0.8858
    1MOL   O115  115   6.626   1.074   2.355  0.0666 -0.2547  0.4639
    1MOL   C116  116   6.748   1.124   2.308  0.3594  0.1723  0.0311
    1MOL   C117  117   6.855   1.042   2.379  0.0303  0.0829  0.5544
    1MOL   C118  118   6.993   1.066   2.310  0.4077  0.4082 -0.0810
    1MOL   C119  119   6.430   0.976   2.251  0.5521 -0.1466 -0.4824
    1MOL   H120  120   6.531   1.150   2.190  0.5465 -1.8123 -1.2141
    1MOL   H121  121   6.753   1.107   2.201  1.5433 -0.4688  0.1774
    1MOL   H122  122   6.756   1.228   2.340 -2.0034  0.7873 -1.2723
    1MOL   H123  123   6.838   0.936   2.362 -2.2684  0.8776 -2.7029
    1MOL   H124  124   6.859   1.062   2.486  2.0687  1.5650  0.2322
    1MOL   H125  125   7.008   1.168   2.273 -2.6719  0.9928  0.1696
    1MOL   H126  126   7.003   1.010   2.217 -0.5633  1.6188 -0.9222
    1MOL   H127  127   7.082   1.035   2.365 -0.1421  0.8014  1.0444
    1MOL   H128  128   6.505   0.910   2.208  0.7364 -1.4218  1.7229
    1MOL   H129  129   6.392   0.941   2.347  0.7607 -0.7737 -0.6273
    1MOL   C130  130   6.320   1.004   2.149 -0.1062 -0.2627  0.3945
    1MOL   O131  131   6.383   1.033   2.024 -0.4546  0.3669  0.2362
    1MOL   C132  132   6.324   1.145   1.955 -0.3135 -0.5176 -0.5373
    1MOL   C133  133   6.400   1.142   1.818  0.8665 -0.1936  0.5455
    1MOL   C134  134   6.534   1.199   1.834  0.4555  0.2221  0.5496
    1MOL   C135  135   6.234   0.878   2.119  0.2611 -0.1419 -0.3994
    1MOL   H136  136   6.261   1.088   2.185 -1.8971 -0.6897 -1.3847
    1MOL   H137  137   6.225   1.122   1.914 -1.3292 -0.0930  1.6185
    1MOL   H138  138   6.327   1.237   2.012 -1.4118  1.5881 -3.7550
    1MOL   H139  139   6.346   1.197   1.742 -0.0742 -2.2944 -0.3540
    1MOL   H140  140   6.417   1.041   1.781 -0.2317 -1.2986  2.9380
    1MOL   H141  141   6.526   1.294   1.887 -1.0102  0.8308 -0.7240
    1MOL   H142  142   6.581   1.219   1.737 -0.2000  0.2073  0.2241
    1MOL   H143  143   6.594   1.139   1.902  1.0394  1.1545  0.8590
    1MOL   H144  144   6.208   0.876   2.013 -1.6809 -0.0952  0.0476
    1MOL   H145  145   6.294   0.789   2.136  0.3024  0.1859  1.2861
    1MOL   C146  146   6.106   0.874   2.207 -0.8200 -0.1144 -0.0778
    1MOL   O147  147   6.020   0.988   2.181 -0.1755 -0.6949 -0.2308
    1MOL   C148  148   5.974   1.063   2.289 -0.2237 -0.4400 -0.2407
    1MOL   C149  149   5.866   1.157   2.255  0.8090 -0.2112 -0.3418
    1MOL   C150  150   5.797   1.226   2.377  0.6619 -0.3369 -0.4083
    1MOL   C151  151   6.032   0.746   2.190 -0.0676 -0.4363 -0.4299
    1MOL   H152  152   6.145   0.889   2.308 -1.4693 -0.8402  0.2781
    1MOL   H153  153   5.948   0.991   2.366  2.2786 -1.1241  0.0194
    1MOL   H154  154   6.062   1.106   2.338  0.6508 -2.1319 -0.2921
    1MOL   H155  155   5.786   1.119   2.192  0.7086 -0.5039 -0.0384
    1MOL   H156  156   5.920   1.240   2.208 -0.7121  1.7433  1.2637
    1MOL   H157  157   5.762   1.159   2.455  1.0763 -1.4554 -1.1752
    1MOL   H158  158   5.721   1.297   2.345 -2.0065 -2.7750  0.3124
    1MOL   H159  159   5.879   1.283   2.421  0.7023  0.8261 -1.9273
    1MOL   H160  160   5.984   0.741   2.092 -1.9358  0.8268  0.3832
    1MOL   H161  161   6.101   0.662   2.187  0.5005 -0.0434  1.1992
    1MOL   C162  162   5.922   0.712   2.294 -0.6103 -0.1585 -0.3465
    1MOL   O163  163   5.848   0.603   2.247  0.0514  0.2526 -0.2684
    1MOL   C164  164   5.709   0.638   2.233 -0.4402  0.3841  0.3467
    1MOL   C165  165   5.642   0.504   2.197 -0.0697  0.2953 -0.2098
    1MOL   C166  166   5.489   0.496   2.218  0.8638  0.3274 -0.6422
    1MOL   C167  167   5.993   0.693   2.428  0.6166 -0.7328  0.1727
    1MOL   H168  168   5.862   0.802   2.309  0.3472  0.6479 -1.1870
    1MOL   H169  169   5.661   0.671   2.325 -0.4598 -2.9780  1.5984
    1MOL   H170  170   5.686   0.708   2.153 -0.6344 -1.6321 -1.3829
    1MOL   H171  171   5.686   0.427   2.260  0.6438 -0.3095 -1.4195
    1MOL   H172  172   5.667   0.483   2.093  1.2975 -1.9644  0.5368
    1MOL   H173  173   5.439   0.542   2.133 -1.1101 -2.1019 -0.8287
    1MOL   H174  174   5.453   0.538   2.312 -1.6284  0.1853 -1.5132
    1MOL   H175  175   5.456   0.392   2.215  1.3010  0.2332 -2.2831
    1MOL   H176  176   6.081   0.631   2.411  0.4827 -1.0147  0.5091
    1MOL   H177  177   6.028   0.794   2.452  1.3721 -1.3655  1.8223
    1MOL   C178  178   5.905   0.642   2.542 -0.2718 -0.0349  0.4735
    1MOL   O179  179   5.783   0.713   2.555 -0.0754 -0.3056  0.1500
    1MOL   C180  180   5.724   0.709   2.682  0.0946 -0.0102 -0.4446
    1MOL   C181  181   5.605   0.796   2.676  0.0909 -0.8224  0.6125
    1MOL   C182  182   5.475   0.741   2.613 -0.0419  0.1392 -0.1823
    1MOL   C183  183   5.880   0.489   2.543  0.0882 -0.0188  0.2274
    1MOL   H184  184   5.963   0.663   2.632  0.8344  3.1501 -0.8860
    1MOL   H185  185   5.698   0.614   2.728 -1.4178  1.1435  1.1054
    1MOL   H186  186   5.790   0.755   2.755 -0.0032 -1.1936  0.4111
    1MOL   H187  187   5.637   0.893   2.638  0.7911 -1.3289 -0.1099
    1MOL   H188  188   5.572   0.820   2.777  0.2305 -3.2912  1.2847
    1MOL   H189  189   5.397   0.817   2.617 -1.7282 -1.6402  1.3677
    1MOL   H190  190   5.447   0.648   2.661 -3.0372  0.4713 -1.2211
    1MOL   H191  191   5.509   0.710   2.514  1.5217 -1.3082  0.7739
    1MOL   H192  192   5.829   0.456   2.633 -0.4483 -1.2612 -0.5195
    1MOL   H193  193   5.810   0.473   2.461 -1.3680 -2.3237  1.8625
    1MOL   C194  194   6.007   0.402   2.527  0.6127 -0.4429 -0.3423
    1MOL   O195  195   6.083   0.434   2.641 -0.4062 -0.1116 -0.4169
    1MOL   C196  196   6.224   0.451   2.618 -0.2787 -0.6409 -0.2159
    1MOL   C197  197   6.303   0.472   2.751 -0.5952  0.2867 -0.5962
    1MOL   C198  198   6.262   0.376   2.863 -1.1613  0.7433  0.3820
    1MOL   C199  199   5.981   0.250   2.521 -0.2782 -0.3856 -0.7608
    1MOL   H200  200   6.064   0.432   2.439 -0.8746  3.2105 -0.1525
    1MOL   H201  201   6.257   0.364   2.562 -0.9941 -1.5360  0.7207
    1MOL   H202  202   6.241   0.536   2.552  0.0377 -0.7393 -0.2614
    1MOL   H203  203   6.289   0.570   2.796  1.1426  0.0903  0.4613
    1MOL   H204  204   6.409   0.484   2.729 -0.6159 -0.4941 -1.1318
    1MOL   H205  205   6.256   0.273   2.829  0.8551  0.4313  0.9538
    1MOL   H206  206   6.165   0.412   2.898 -2.0562  0.4928 -1.7398
    1MOL   H207  207   6.337   0.389   2.940 -0.8065  1.8865 -0.1478
    1MOL   H208  208   6.078   0.203   2.536 -0.9282 -1.6099 -0.2566
    1MOL   H209  209   5.911   0.227   2.602  2.3282  0.3410  1.7756
    1MOL   C210  210   5.924   0.199   2.391  0.6272 -0.8386  0.5691
    1MOL   O211  211   6.040   0.201   2.307 -0.0425  0.5328  0.6995
    1MOL   C212  212   6.036   0.300   2.200 -0.0963 -0.0758 -0.5612
    1MOL   C213  213   6.161   0.278   2.118 -0.0249  0.3973 -0.0878
    1MOL   C214  214   6.157   0.155   2.030  1.1705  0.0089 -0.1121
    1MOL   C215  215   5.869   0.056   2.403 -0.2017  0.1530  0.1194
    1MOL   H216  216   5.838   0.255   2.354  1.1824 -1.6978 -2.1308
    1MOL   H217  217   5.951   0.286   2.133 -0.6503  0.8634 -0.0747
    1MOL   H218  218   6.035   0.405   2.231 -0.0336  0.2660 -1.6887
    1MOL   H219  219   6.256   0.281   2.172 -0.2157  0.7523  0.2301
    1MOL   H220  220   6.179   0.360   2.048  1.3472 -0.2160 -0.4830
    1MOL   H221  221   6.116   0.062   2.069  0.0757  0.2125 -0.7493
    1MOL   H222  222   6.256   0.140   1.987  0.4850 -0.8723 -1.4471
    1MOL   H223  223   6.094   0.153   1.940 -0.9869  0.6225  1.3533
    1MOL   H224  224   5.958   0.001   2.435  0.0543  1.1868  1.1952
    1MOL   H225  225   5.791   0.055   2.479  0.0386  0.9126  0.3782
    1MOL   C226  226   5.819   7.820   2.270  0.5545  0.0446  0.2561
    1MOL   O227  227   5.780   7.678   2.281  0.5244 -0.7080 -0.1509
    1MOL   C228  228   5.901   7.604   2.291  0.5721 -0.1604  0.2431
    1MOL   C229  229   5.852   7.458   2.282 -0.0534 -0.2545  0.2293
    1MOL   C230  230   5.770   7.432   2.155 -0.2228 -0.3368 -0.2889
    1MOL   C231  231   5.688   0.066   2.226 -0.2051 -0.5696  0.1846
    1MOL   H232  232   5.889   0.011   2.188  0.8821  0.5933  0.6549
    1MOL   H233  233   5.974   7.633   2.216 -1.2389  1.9860 -0.7489
    1MOL   H234  234   5.946   7.619   2.389  0.4047 -1.0576  0.4640
    1MOL   H235  235   5.797   7.426   2.371  0.3180 -1.9395 -0.1359
    1MOL   H236  236   5.943   7.398   2.287 -1.4025 -2.4838 -1.2830
    1MOL   H237  237   5.836   7.414   2.070 -0.3476 -1.5417 -0.1359
    1MOL   H238  238   5.689   7.504   2.146  1.8408  1.9310 -1.3300
    1MOL   H239  239   5.719   7.335   2.155 -0.5996 -0.1937 -3.0228
    1MOL   H240  240   5.615   0.062   2.307 -0.1980  1.3430  0.3131
    1MOL   H241  241   5.706   0.173   2.228 -2.3180 -0.1671 -0.7891
    1MOL   C242  242   5.616   0.010   2.096 -0.0333 -0.4385 -0.1717
    1MOL   O243  243   5.484   7.824   2.141 -0.2944  0.0778 -0.3970
    1MOL   C244  244   5.449   7.692   2.182  0.1994 -0.2911 -0.0135
    1MOL   C245  245   5.304   7.678   2.219  0.1164  0.0722 -0.3549
    1MOL   C246  246   5.258   7.545   2.273 -0.1630 -0.1430  0.1735
    1MOL   C247  247   5.616   0.107   1.973 -0.7815 -0.7785  0.1812
    1MOL   H248  248   5.661   7.743   2.064  0.5575  0.0463 -0.8143
    1MOL   H249  249   5.460   7.618   2.103  1.3295  1.2350 -1.3370
    1MOL   H250  250   5.517   7.651   2.258 -2.3423  0.9458  3.0349
    1MOL   H251  251   5.240   7.697   2.133  0.4587 -0.5713 -0.7494
    1MOL   H252  252   5.280   7.759   2.289  0.7435 -0.4593  0.4825
    1MOL   H253  253   5.322   7.517   2.357  2.4023 -0.4414 -1.8379
    1MOL   H254  254   5.270   7.462   2.205 -3.8889 -1.4287  0.9951
    1MOL   H255  255   5.157   7.555   2.314 -0.9504 -1.1040 -1.5196
    1MOL   H256  256   5.518   0.155   1.984  0.5155  2.1348 -0.5762
    1MOL   H257  257   5.690   0.185   1.988  0.7248 -1.8786 -1.4378
    1MOL   C258  258   5.642   0.044   1.839  0.2550  0.4507 -0.6352
    1MOL   O259  259   5.749   7.777   1.838 -0.1531 -0.5745  0.4111
    1MOL   C260  260   5.885   7.822   1.847 -1.2153 -0.2502 -0.2051
    1MOL   C261  261   5.978   7.706   1.812 -0.2508 -0.6363 -0.4964
    1MOL   C262  262   5.978   7.594   1.917 -0.3282  0.5157 -0.2679
    1MOL   C263  263   5.523   7.787   1.784  0.2452  0.4017 -0.2307
    1MOL   H264  264   5.669   0.115   1.761 -0.9574 -1.1146 -2.5425
    1MOL   H265  265   5.909   0.078   1.781  2.1417 -1.8666 -1.1751
    1MOL   H266  266   5.921   0.023   1.946  0.6124 -1.1754 -0.5660
    1MOL   H267  267   6.080   7.744   1.803 -1.1093  1.6611 -0.9557
    1MOL   H268  268   5.954   7.658   1.717 -0.3726  0.9819 -1.3043
    1MOL   H269  269   5.884   7.539   1.916  0.3983 -0.8161  1.4542
    1MOL   H270  270   5.984   7.642   2.014 -1.9738  0.7761 -0.2896
    1MOL   H271  271   6.068   7.534   1.897  0.4338  1.9871 -1.3279
    1MOL   H272  272   5.567   7.739   1.697  4.1173  1.2684  1.1480
    1MOL   H273  273   5.503   7.714   1.863  0.6372  0.6310  0.0853
    1MOL   C274  274   5.404   0.057   1.743 -0.0205  0.1746 -0.3230
    1MOL   O275  275   5.450   0.120   1.624 -0.6517  0.5246 -0.0201
    1MOL   C276  276   5.381   0.244   1.600 -0.4077 -0.6171  0.2415
    1MOL   C277  277   5.417   0.303   1.467  0.0361 -0.3510  0.8262
    1MOL   C278  278   5.347   0.429   1.436  0.2964  1.0299  0.4077
    1MOL   C279  279   5.286   7.804   1.709  0.8657  0.3031 -0.0649
    1MOL   H280  280   5.380   0.125   1.825 -0.1219 -1.6043  1.1385
    1MOL   H281  281   5.273   0.229   1.598 -0.4799  0.1504 -1.4682
    1MOL   H282  282   5.404   0.307   1.686  0.4807 -0.1952 -0.3066
    1MOL   H283  283   5.391   0.241   1.382 -0.0620  1.7890 -0.7525
    1MOL   H284  284   5.523   0.327   1.452 -0.2360 -0.5772 -1.6153
    1MOL   H285  285   5.334   0.485   1.529  0.0210  0.4184  0.7403
    1MOL   H286  286   5.246   0.407   1.404 -0.1668  1.1506  1.7658
    1MOL   H287  287   5.391   0.484   1.353 -1.1341  1.0784 -0.3307
    1MOL   H288  288   5.217   0.018   1.635 -0.8623 -2.7989 -0.2800
    1MOL   H289  289   5.323   7.714   1.661 -1.0868 -1.6826  2.0110
    1MOL   C290  290   5.207   7.772   1.838  0.4054  0.0128 -0.1848
    1MOL   O291  291   5.152   0.074   1.876 -0.1271 -1.0186 -0.5980
    1MOL   C292  292   5.139   0.097   2.012 -0.3685 -0.0232  0.3006
    1MOL   C293  293   5.075   0.236   2.020  0.1885 -0.1060 -0.3803
    1MOL   C294  294   5.181   0.344   1.975  0.3492  0.3465 -0.1061
    1MOL   C295  295   5.089   7.673   1.801  0.4669 -0.4043  0.1986
    1MOL   H296  296   5.272   7.726   1.913 -0.9681  0.2856  1.1869
    1MOL   H297  297   5.068   0.024   2.053 -0.5925 -0.6536 -1.1453
    1MOL   H298  298   5.242   0.095   2.046 -0.0464 -0.9126 -0.6960
    1MOL   H299  299   5.045   0.254   2.123 -1.4551  1.3012 -1.0739
    1MOL   H300  300   4.978   0.228   1.971  0.4307  0.3338 -0.9466
    1MOL   H301  301   5.236   0.313   1.886  0.2405  1.2251 -0.4893
    1MOL   H302  302   5.256   0.348   2.053  0.5203  0.2018 -0.2639
    1MOL   H303  303   5.143   0.446   1.968 -0.9330 -0.0885  0.3161
    1MOL   H304  304   5.002   7.730   1.767 -0.3388 -0.7381  1.6633
    1MOL   H305  305   5.114   7.615   1.713  0.3433 -0.8597  0.4636
    1MOL   C306  306   5.026   7.585   1.908 -0.3441 -0.0068 -0.2789
    1MOL   O307  307   4.907   7.520   1.845 -0.1281  0.0318 -0.2134
    1MOL   C308  308   4.817   7.473   1.943 -0.5027  0.2893 -0.5504
    1MOL   C309  309   4.695   7.432   1.870 -0.0218  0.5886  0.1271
    1MOL   C310  310   4.589   7.383   1.970 -0.7024  0.5826  0.1737
    1MOL   C311  311   5.115   7.477   1.960 -0.1590  0.2387 -0.0002
    1MOL   H312  312   4.991   7.656   1.983  2.9699  1.1837  0.2206
    1MOL   H313  313   4.866   7.396   2.004 -0.2532  1.6735  1.0541
    1MOL   H314  314   4.801   7.564   2.001  0.9480 -0.3162  0.8533
    1MOL   H315  315   4.715   7.346   1.807 -0.6046  0.3678  0.2355
    1MOL   H316  316   4.650   7.515   1.816 -1.7857  0.3582  1.2016
    1MOL   H317  317   4.557   7.469   2.030  2.5284  1.3219  0.9076
    1MOL   H318  318   4.630   7.311   2.041 -1.1535  0.3487  0.2008
    1MOL   H319  319   4.510   7.327   1.919 -0.1964  0.2625 -0.2628
    1MOL   H320  320   5.134   7.394   1.893  0.2140 -2.0083  2.8206
    1MOL   H321  321   5.213   7.519   1.982  0.3848 -0.5930 -0.8340
    1MOL   H322  322   5.070   7.433   2.049  0.1097  1.5029  0.7777
    2MOL     C1  323   7.641   7.194   7.615 -0.9788  0.1991 -0.2553
    2MOL     O2  324   7.695   7.240   7.741 -0.6467 -0.1927 -0.1280
    2MOL     C3  325   0.000   7.210   7.770 -0.4873  0.2491 -0.1755
    2MOL     C4  326   0.056   7.285   0.059 -0.3081  0.6517 -0.4982
    2MOL     C5  327   0.023   7.436   0.056 -0.1125  0.4841 -0.7245
    2MOL     C6  328   7.507   7.249   7.589 -0.3735  0.2715 -0.9631
    2MOL     H7  329   7.646   7.087   7.599 -0.0911  0.2712 -0.4847
    2MOL     H8  330   0.006   7.102   7.788  1.6941  0.4629  0.5030
    2MOL     H9  331   0.059   7.219   7.679 -0.4694  1.0081 -0.0914
    2MOL    H10  332   0.165   7.276   0.063 -0.3886  0.1537  2.8778
    2MOL    H11  333   0.037   7.243   0.158 -0.6733  0.0879 -0.8039
    2MOL    H12  334   7.747   7.448   0.086  0.2853  1.9288  0.1313
    2MOL    H13  335   0.024   7.474   7.782 -1.8029  0.0858 -0.8946
    2MOL    H14  336   0.080   7.504   0.119  0.9763 -2.2860  1.3854
    2MOL    H15  337   7.449   7.189   7.659  2.3407 -0.2170  0.9325
    2MOL    H16  338   7.500   7.350   7.629  1.8614 -0.0891  0.4167
    2MOL    H17  339   7.714   7.235   7.546  1.6299  0.6900  2.6725
    2MOL    C18  340   7.471   7.235   7.442  0.9300  0.1248  0.0959
    2MOL    O19  341   7.327   7.236   7.444  0.1135 -0.5686 -0.3980
    2MOL    C20  342   7.271   7.103   7.435 -0.2642 -0.1579 -0.2109
    2MOL    C21  343   7.119   7.111   7.452 -0.1445  0.6357  0.1938
    2MOL    C22  344   7.043   6.980   7.496  0.6849  0.5789 -0.0358
    2MOL    C23  345   7.514   7.364   7.361 -1.5386 -0.0545 -0.6597
    2MOL    H24  346   7.515   7.142   7.405 -0.5164  0.5183 -2.8158
    2MOL    H25  347   7.298   7.053   7.342 -0.5528 -0.7202  0.0047
    2MOL    H26  348   7.308   7.044   7.518  1.3965  1.3057  0.1208
    2MOL    H27  349   7.080   7.154   7.360  0.1952  0.7059  0.0829
    2MOL    H28  350   7.100   7.187   7.529  3.0056  0.3851  1.3149
    2MOL    H29  351   7.028   6.974   7.604 -1.5613 -0.0699 -0.3736
    2MOL    H30  352   7.085   6.883   7.467 -1.0957 -0.7488  1.6786
    2MOL    H31  353   6.940   6.975   7.463  0.3223 -2.7331  1.3886
    2MOL    H32  354   7.454   7.435   7.417  0.2287  2.3251 -1.7210
    2MOL    H33  355   7.619   7.386   7.382 -1.6649  1.2111 -1.3504
    2MOL    C34  356   7.480   7.358   7.207 -0.0034 -0.1468  0.0691
    2MOL    O35  357   7.492   7.481   7.149  0.1172 -0.2698 -0.2795
    2MOL    C36  358   7.380   7.566   7.171  0.3648 -0.5211  0.2558
    2MOL    C37  359   7.420   7.709   7.125 -0.0127 -0.7643 -0.1202
    2MOL    C38  360   7.309   7.809   7.154  0.5274  0.3781 -0.2252
    2MOL    C39  361   7.549   7.250   7.119 -0.3040 -0.4254 -0.2476
    2MOL    H40  362   7.377   7.323   7.199  0.9618 -2.7462 -1.9938
    2MOL    H41  363   7.283   7.539   7.129 -1.3613  3.0499  1.7135
    2MOL    H42  364   7.362   7.579   7.278  2.0838 -0.2825  0.5156
    2MOL    H43  365   7.442   7.704   7.018 -2.0959  1.2137 -0.6832
    2MOL    H44  366   7.509   7.728   7.184 -0.6797 -3.9816  2.0985
    2MOL    H45  367   7.332   0.081   7.118 -1.4380  1.1802  0.6664
    2MOL    H46  368   7.282   7.812   7.260  2.2869  1.2227  0.2116
    2MOL    H47  369   7.218   7.789   7.097  0.5683 -0.9187  0.1399
    2MOL    H48  370   7.516   7.147   7.129  1.1790 -0.9288 -0.4691
    2MOL    H49  371   7.517   7.284   7.020 -1.1295  1.1961  0.5556
    2MOL    C50  372   7.702   7.274   7.104 -0.4190 -0.8724 -0.2116
    2MOL    O51  373   7.777   7.214   7.212  0.4654 -0.0071  0.2174
    2MOL    C52  374   0.077   7.286   7.248 -0.2540 -0.0165  0.3329
    2MOL    C53  375   0.148   7.223   7.366 -0.4487  0.3950 -0.0303
    2MOL    C54  376   0.149   7.068   7.361  0.4228 -0.7724 -0.6594
    2MOL    C55  377   7.754   7.210   6.979 -0.7598 -0.1464 -0.5662
    2MOL    H56  378   7.724   7.381   7.104 -4.5868  0.0720 -1.4044
    2MOL    H57  379   0.143   7.267   7.164 -2.4278 -0.7934 -1.2349
    2MOL    H58  380   0.055   7.393   7.259 -0.0095 -0.1610  2.5042
    2MOL    H59  381   0.088   7.258   7.450  0.5831  1.3591  0.3181
    2MOL    H60  382   0.247   7.267   7.371 -0.5465  0.6188 -0.0577
    2MOL    H61  383   0.183   7.027   7.266 -0.5437  2.5258 -2.5086
    2MOL    H62  384   0.049   7.027   7.376  0.9993 -1.8933  0.2231
    2MOL    H63  385   0.212   7.029   7.441  1.5511 -0.6597 -1.4833
    2MOL    H64  386   0.034   7.206   6.989 -0.6615 -0.7544 -1.8266
    2MOL    H65  387   7.727   7.105   6.980 -1.9435  0.1454  2.2050
    2MOL    C66  388   7.716   7.278   6.847 -0.7836  0.3660 -0.8638
    2MOL    O67  389   7.777   7.406   6.859 -0.3122 -0.0833  0.1585
    2MOL    C68  390   7.683   7.513   6.827 -0.4537  0.8582 -0.3497
    2MOL    C69  391   7.779   7.634   6.797  0.3487 -0.4485 -0.1325
    2MOL    C70  392   7.698   7.765   6.767  0.2254 -0.1995 -0.0585
    2MOL    C71  393   7.766   7.200   6.725 -0.3805 -0.3333  0.0010
    2MOL    H72  394   7.607   7.283   6.841 -0.7832  1.7086 -0.1118
    2MOL    H73  395   7.622   7.487   6.740 -0.9155  0.0727  0.2033
    2MOL    H74  396   7.614   7.521   6.911  2.1513  1.0225  1.8286
    2MOL    H75  397   0.012   7.605   6.711  0.3512  1.2832 -0.7224
    2MOL    H76  398   0.022   7.658   6.876  0.2092  1.1647 -0.4935
    2MOL    H77  399   7.634   7.803   6.846  0.2894 -2.6592  1.2125
    2MOL    H78  400   7.631   7.756   6.681  0.5528 -0.3053 -0.3051
    2MOL    H79  401   7.760   0.025   6.749  0.1407  0.0393  0.8069
    2MOL    H80  402   0.046   7.184   6.730 -0.5640 -1.2801  1.2422
    2MOL    H81  403   7.735   7.096   6.736 -0.8562 -0.4142 -1.9748
    2MOL    C82  404   7.725   7.243   6.587  0.0512 -0.0562 -0.5786
    2MOL    O83  405   7.812   7.163   6.502  0.2653  0.6612 -0.2948
    2MOL    C84  406   0.107   7.222   6.462 -0.1504 -0.2253 -0.0769
    2MOL    C85  407   0.184   7.142   6.357 -0.3519  0.3043  0.8746
    2MOL    C86  408   0.282   7.233   6.283 -0.5000 -0.3371  0.3025
    2MOL    C87  409   7.581   7.189   6.555 -0.4746  0.3211  0.0430
    2MOL    H88  410   7.733   7.351   6.576  0.2079 -0.2251 -2.3167
    2MOL    H89  411   0.092   7.320   6.417  0.1091  0.5583  1.4831
    2MOL    H90  412   0.166   7.240   6.552 -0.5133  0.2348  0.0722
    2MOL    H91  413   0.110   7.106   6.285  0.9089  0.9022 -0.7400
    2MOL    H92  414   0.236   7.053   6.391 -1.2691  0.1245  1.8081
    2MOL    H93  415   0.240   7.319   6.231 -1.1705 -1.1026 -0.4522
    2MOL    H94  416   0.333   7.184   6.200 -0.1885  0.5602 -0.0417
    2MOL    H95  417   0.367   7.266   6.342 -0.2709  0.1485 -0.2978
    2MOL    H96  418   7.577   7.080   6.554 -0.2621  0.3151 -0.7722
    2MOL    H97  419   7.526   7.215   6.645  1.8015 -0.9812  1.8417
    2MOL    C98  420   7.515   7.244   6.433 -0.9154  0.2100 -0.0485
    2MOL    O99  421   7.490   7.387   6.443  0.1368  0.2918  0.7621
    2MOL   C100  422   7.360   7.405   6.492 -1.0588  0.5426 -0.5853
    2MOL   C101  423   7.318   7.544   6.468  0.0447 -0.0257  0.4278
    2MOL   C102  424   7.383   7.629   6.575  0.5745 -0.4420  0.2335
    2MOL   C103  425   7.593   7.214   6.296  0.4444 -0.1230  0.1950
    2MOL   H104  426   7.427   7.184   6.411 -1.3706  0.4630  1.0383
    2MOL   H105  427   7.303   7.332   6.435  0.2840 -2.1336  1.3434
    2MOL   H106  428   7.342   7.373   6.595 -1.2111  1.4424 -0.3271
    2MOL   H107  429   7.210   7.553   6.457  0.2227 -0.3632 -1.9862
    2MOL   H108  430   7.351   7.583   6.372 -1.3628  1.0494  0.3656
    2MOL   H109  431   7.487   7.603   6.593  0.6400 -0.6615 -0.4338
    2MOL   H110  432   7.338   7.633   6.674 -1.7726 -1.6098 -0.7309
    2MOL   H111  433   7.383   7.730   6.534  2.8316 -0.0108  1.2367
    2MOL   H112  434   7.698   7.240   6.307  0.3383  0.0441  0.8194
    2MOL   H113  435   7.593   7.106   6.281  1.1271 -0.0681 -0.2219
    2MOL   C114  436   7.538   7.298   6.178 -0.0116 -0.4247 -0.1630
    2MOL   O115  437   7.625   7.269   6.067 -0.2817  0.4293  0.0780
    2MOL   C116  438   7.674   7.372   5.983  0.1259  0.8295 -0.5879
    2MOL   C117  439   7.767   7.305   5.893  0.0311 -0.1145 -0.3542
    2MOL   C118  440   7.692   7.258   5.773 -0.0829  0.0323 -0.3553
    2MOL   C119  441   7.400   7.240   6.137  0.0862 -0.8364 -0.2921
    2MOL   H120  442   7.527   7.405   6.197  3.2101 -0.0995  0.1253
    2MOL   H121  443   7.601   7.425   5.921  0.6863 -0.5854 -2.5108
    2MOL   H122  444   7.727   7.447   6.042  2.8186 -1.2463 -0.2743
    2MOL   H123  445   7.819   7.235   5.959 -0.1372  0.7561  0.7249
    2MOL   H124  446   0.016   7.372   5.854  1.2775 -1.3956 -0.1594
    2MOL   H125  447   7.662   7.332   5.699  0.3561  0.9938  0.4282
    2MOL   H126  448   7.603   7.200   5.799  0.7938 -2.0349 -1.7997
    2MOL   H127  449   7.754   7.178   5.733 -1.0130 -0.9850  0.2169
    2MOL   H128  450   7.404   7.132   6.121  1.0360 -0.5858 -1.8862
    2MOL   H129  451   7.333   7.242   6.223  1.5481 -1.9759  0.8960
    2MOL   C130  452   7.333   7.311   6.015  0.1641  0.1066  0.0131
    2MOL   O131  453   7.209   7.243   5.997 -0.6119  0.3035 -0.2758
    2MOL   C132  454   7.219   7.125   5.909  0.3945 -0.0349 -0.2382
    2MOL   C133  455   7.092   7.035   5.932  0.4260 -0.2145 -0.0753
    2MOL   C134  456   7.112   6.947   6.050 -0.0207  0.5284 -0.6576
    2MOL   C135  457   7.296   7.458   6.057 -0.1799  0.1625 -0.4484
    2MOL   H136  458   7.390   7.293   5.924  0.9824  1.5657  0.2235
    2MOL   H137  459   7.216   7.161   5.806 -2.1334 -1.6013 -0.7505
    2MOL   H138  460   7.313   7.070   5.919 -0.5054 -1.4844  0.5162
    2MOL   H139  461   7.079   6.965   5.850  0.6913  0.0111 -0.3097
    2MOL   H140  462   7.006   7.101   5.945 -0.8911 -1.7335 -0.9618
    2MOL   H141  463   7.025   6.890   6.082 -0.3733  1.9425  0.9018
    2MOL   H142  464   7.142   7.006   6.136  1.9861  0.8954 -1.5799
    2MOL   H143  465   7.189   6.878   6.014  0.4618  0.7900 -0.1325
    2MOL   H144  466   7.293   7.462   6.166  0.8487 -1.6907 -0.3265
    2MOL   H145  467   7.385   7.518   6.036 -0.1012  0.0963 -0.3069
    2MOL   C146  468   7.178   7.522   5.981 -0.0688  0.0528  0.0197
    2MOL   O147  469   7.167   7.650   6.037 -0.1752  0.1763 -0.2064
    2MOL   C148  470   7.090   7.668   6.155  0.0975  0.3383  0.4597
    2MOL   C149  471   6.937   7.665   6.120 -0.2627 -0.3727  0.3975
    2MOL   C150  472   6.845   7.715   6.228  0.2083  0.2145  1.2641
    2MOL   C151  473   7.213   7.533   5.831  0.4510 -0.6098  1.3603
    2MOL   H152  474   7.091   7.457   5.991  0.4198 -0.4501  1.1163
    2MOL   H153  475   7.120   7.600   6.235  1.9225  0.5642 -0.0106
    2MOL   H154  476   7.110   7.769   6.191 -2.1370  1.0768 -0.3065
    2MOL   H155  477   6.898   7.571   6.080  1.6651 -1.7271  1.6106
    2MOL   H156  478   6.918   7.733   6.037  0.4442  0.4660  0.9161
    2MOL   H157  479   6.833   7.650   6.315 -1.6594 -1.2895 -0.0617
    2MOL   H158  480   6.749   7.729   6.179  1.8110  2.8151 -1.3015
    2MOL   H159  481   6.885   7.811   6.261  0.7980  0.4836 -0.2049
    2MOL   H160  482   7.322   7.546   5.826  0.0590  2.5615 -0.4806
    2MOL   H161  483   7.196   7.437   5.782  0.0802 -0.0624  0.4100
    2MOL   C162  484   7.142   7.653   5.753 -0.8838 -0.1337  0.4953
    2MOL   O163  485   7.216   7.657   5.636  0.2377 -0.2812  0.5254
    2MOL   C164  486   7.335   7.733   5.640  0.1219  0.2345  0.1909
    2MOL   C165  487   7.308   0.047   5.587  0.1193 -0.5613  0.3120
    2MOL   C166  488   7.295   0.045   5.429  0.0292  0.1042 -0.5812
    2MOL   C167  489   6.995   7.611   5.741  0.3238 -0.2855  0.1364
    2MOL   H168  490   7.152   7.745   5.809 -0.2078  0.5527 -0.7356
    2MOL   H169  491   7.359   7.744   5.745  1.4449  0.9805 -0.1825
    2MOL   H170  492   7.416   7.682   5.588  0.1302  1.7469 -1.3417
    2MOL   H171  493   7.392   0.108   5.623 -1.3346  1.6851 -0.0127
    2MOL   H172  494   7.220   0.086   5.637 -1.1076  0.3580 -2.4382
    2MOL   H173  495   7.375   7.806   5.396 -0.3230 -0.5693 -0.0885
    2MOL   H174  496   7.323   0.139   5.382 -1.7369  1.1054  0.3366
    2MOL   H175  497   7.196   0.026   5.388  0.0233 -0.4650 -0.3067
    2MOL   H176  498   7.006   7.531   5.669 -0.9238  1.4203 -2.0226
    2MOL   H177  499   6.951   7.577   5.834  1.3112 -1.6112  0.1201
    2MOL   C178  500   6.912   7.731   5.689 -0.4169  0.2973  0.1485
    2MOL   O179  501   6.793   7.687   5.624  0.1694 -0.7096  0.2353
    2MOL   C180  502   6.799   7.638   5.491 -0.0353  0.4050 -0.5165
    2MOL   C181  503   6.661   7.622   5.425  0.3444  0.7385  0.1318
    2MOL   C182  504   6.675   7.581   5.276  0.4411  0.1583 -0.5022
    2MOL   C183  505   6.877   0.011   5.792  0.1942 -0.5567  0.7631
    2MOL   H184  506   6.978   7.781   5.619  1.4163  0.9672  2.3040
    2MOL   H185  507   6.842   7.717   5.430  1.2885 -0.4686 -0.7228
    2MOL   H186  508   6.868   7.554   5.487  0.0864  0.4864 -0.1695
    2MOL   H187  509   6.592   7.704   5.442  0.5405  0.6976  1.1309
    2MOL   H188  510   6.616   7.532   5.468  1.9725 -0.2590 -0.1909
    2MOL   H189  511   6.580   7.548   5.236  0.1792 -0.4841  0.6080
    2MOL   H190  512   6.750   7.505   5.255  1.6950  0.9202  1.0110
    2MOL   H191  513   6.712   7.664   5.216 -0.0531  0.3577 -0.5309
    2MOL   H192  514   6.802   7.804   5.864 -0.1089 -2.1219 -0.2840
    2MOL   H193  515   6.964   0.036   5.853  0.2931  0.5135  0.1980
    2MOL   C194  516   6.825   0.141   5.739 -0.0730 -0.3601 -0.3671
    2MOL   O195  517   6.897   0.168   5.626 -0.1679 -0.0856 -0.1881
    2MOL   C196  518   6.912   0.303   5.590 -0.1572 -0.1354 -0.0271
    2MOL   C197  519   6.975   0.304   5.450  0.1273 -0.0164  0.2931
    2MOL   C198  520   6.878   0.268   5.342 -0.2297 -0.3928 -0.1542
    2MOL   C199  521   6.673   0.146   5.718 -0.2550  0.0561  0.1247
    2MOL   H200  522   6.852   0.217   5.812 -3.5421  2.0226 -1.4703
    2MOL   H201  523   6.819   0.360   5.589 -0.0923 -0.0155 -2.9969
    2MOL   H202  524   6.981   0.349   5.661  0.2096 -0.3713 -0.2315
    2MOL   H203  525   7.065   0.242   5.448 -0.2792 -0.6002  0.1702
    2MOL   H204  526   7.012   0.404   5.429  0.7559 -0.2036  0.4661
    2MOL   H205  527   6.820   0.350   5.299  2.0709  0.2185 -2.1919
    2MOL   H206  528   6.803   0.198   5.379 -0.0934 -0.9151 -0.8741
    2MOL   H207  529   6.927   0.220   5.258 -0.2272  1.5626 -1.2963
    2MOL   H208  530   6.636   0.230   5.658  0.9516 -0.7946 -1.8631
    2MOL   H209  531   6.655   0.055   5.661  2.1508 -0.2661 -0.1835
    2MOL   C210  532   6.581   0.141   5.843 -1.0665  0.1744  0.1022
    2MOL   O211  533   6.594   0.261   5.916 -0.1166 -0.1479 -0.6138
    2MOL   C212  534   6.584   0.248   6.057 -0.0504  0.2497  0.1470
    2MOL   C213  535   6.720   0.234   6.122  0.0030 -0.2898 -0.6280
    2MOL   C214  536   6.810   0.362   6.108 -0.8813 -0.4600 -0.2482
    2MOL   C215  537   6.435   0.136   5.807  0.0753 -0.4464  0.3880
    2MOL   H216  538   6.601   0.050   5.901 -0.9440  0.1237 -0.0194
    2MOL   H217  539   6.536   0.339   6.093  0.2199 -0.4465  2.3586
    2MOL   H218  540   6.531   0.159   6.090 -0.6410  0.7248  0.4967
    2MOL   H219  541   6.763   0.147   6.074 -0.2953 -0.4756 -0.5628
    2MOL   H220  542   6.704   0.204   6.226 -0.3784  0.2958 -0.5115
    2MOL   H221  543   6.768   0.439   6.172 -1.5551 -1.8571  1.0112
    2MOL   H222  544   6.814   0.402   6.006  1.7224  3.5556  1.2912
    2MOL   H223  545   6.912   0.336   6.138 -0.9607  0.7918  1.2055
    2MOL   H224  546   6.362   0.132   5.888  1.1154 -3.3404  1.2397
    2MOL   H225  547   6.415   0.226   5.748 -0.3869 -0.1982  0.9235
    2MOL   C226  548   6.394   0.024   5.710  0.2312 -0.6010 -0.1371
    2MOL   O227  549   6.410   7.727   5.781 -0.1729  0.6649  0.1858
    2MOL   C228  550   6.414   7.615   5.690  0.2413  0.5503  0.4930
    2MOL   C229  551   6.463   7.481   5.762 -0.2425  0.5274  0.3502
    2MOL   C230  552   6.602   7.522   5.826  0.2601  0.2588 -0.0455
    2MOL   C231  553   6.244   0.043   5.653  0.3068  0.2733 -0.1804
    2MOL   H232  554   6.458   0.004   5.625  1.5596  0.5349  0.5710
    2MOL   H233  555   6.313   7.600   5.653  0.0255  1.2072  0.8144
    2MOL   H234  556   6.467   7.613   5.594 -0.1283 -2.5519  0.3005
    2MOL   H235  557   6.475   7.394   5.697  0.4724  0.5742  0.4185
    2MOL   H236  558   6.409   7.440   5.848 -2.7482 -0.6801 -1.7139
    2MOL   H237  559   6.618   7.445   5.902  0.1268  0.6757  0.4037
    2MOL   H238  560   6.586   7.613   5.883 -0.8143 -1.2281  2.1281
    2MOL   H239  561   6.695   7.510   5.771 -1.5148 -2.4455 -2.6429
    2MOL   H240  562   6.204   7.782   5.604  0.5683  0.9192 -1.5850
    2MOL   H241  563   6.176   0.045   5.738  0.2020 -1.2522 -0.2020
    2MOL   C242  564   6.219   0.161   5.557 -0.3147  0.0941 -0.3226
    2MOL   O243  565   6.273   0.128   5.427  0.0866  0.5199 -0.0855
    2MOL   C244  566   6.389   0.197   5.395 -0.1975  0.9985 -0.1588
    2MOL   C245  567   6.415   0.169   5.248  0.2624 -0.3668  0.3503
    2MOL   C246  568   6.294   0.204   5.157  0.4510  0.3814  0.2538
    2MOL   C247  569   6.071   0.196   5.555  0.0707  0.2357  0.6929
    2MOL   H248  570   6.272   0.250   5.592  0.1350 -0.8748  1.5074
    2MOL   H249  571   6.390   0.306   5.403  1.5229  1.1785 -2.3864
    2MOL   H250  572   6.466   0.150   5.456 -1.8445 -1.5763 -0.0141
    2MOL   H251  573   6.436   0.062   5.240 -0.2116 -0.5396  1.2618
    2MOL   H252  574   6.505   0.221   5.216 -0.6495  2.6242  2.4798
    2MOL   H253  575   6.275   0.311   5.146 -1.0977  0.0963  0.0682
    2MOL   H254  576   6.206   0.150   5.194  0.0695 -0.1234 -1.3631
    2MOL   H255  577   6.310   0.164   5.057  0.1990 -1.3867  0.9085
    2MOL   H256  578   6.025   0.100   5.534  0.8495 -0.0574  0.3366
    2MOL   H257  579   6.038   0.224   5.655 -0.1895 -0.3344  0.7667
    2MOL   C258  580   6.036   0.309   5.451 -0.5153  0.1890 -0.5833
    2MOL   O259  581   5.899   0.310   5.442 -0.1694 -0.1286  0.1740
    2MOL   C260  582   5.848   0.323   5.310  0.1439  0.4381 -0.0427
    2MOL   C261  583   5.696   0.332   5.317  0.9210  0.3266 -0.1576
    2MOL   C262  584   5.651   0.465   5.372  0.3684 -0.3165 -0.6145
    2MOL   C263  585   6.099   0.451   5.468  0.0298  0.2886 -0.0750
    2MOL   H264  586   6.078   0.270   5.358  0.9996 -1.0677  0.6152
    2MOL   H265  587   5.885   0.402   5.245 -2.0867 -1.7569 -4.1748
    2MOL   H266  588   5.881   0.225   5.276  0.6624 -0.5087  3.0483
    2MOL   H267  589   5.655   0.249   5.376  0.2261  1.1343  0.5096
    2MOL   H268  590   5.652   0.330   5.217 -0.3006 -2.8823  0.3628
    2MOL   H269  591   5.551   0.469   5.415  0.2101 -1.7299 -0.8239
    2MOL   H270  592   5.655   0.549   5.302 -0.8023 -0.4758 -0.8850
    2MOL   H271  593   5.717   0.477   5.457 -1.4794  0.8739  0.6874
    2MOL   H272  594   6.207   0.443   5.457  0.0591  0.5800 -0.0008
    2MOL   H273  595   6.071   0.507   5.378  1.5260 -0.3977 -0.9753
    2MOL   C274  596   6.057   0.526   5.598 -0.2020  0.8334  0.3224
    2MOL   O275  597   6.105   0.446   5.708  0.4686 -0.1466  0.6181
    2MOL   C276  598   6.035   0.462   5.833  0.7811  0.7878  0.0782
    2MOL   C277  599   6.073   0.347   5.929  0.8461  0.3182 -0.1265
    2MOL   C278  600   5.975   0.336   6.048  1.2820 -0.2087  0.3864
    2MOL   C279  601   6.103   0.672   5.598  0.2175  0.3625  0.4631
    2MOL   H280  602   5.948   0.526   5.605 -0.1498  1.3320  1.1965
    2MOL   H281  603   6.075   0.555   5.873 -1.4571  1.1667  1.4843
    2MOL   H282  604   5.928   0.479   5.823  0.2052 -2.4733  0.1803
    2MOL   H283  605   6.180   0.356   5.952  0.8766 -1.3528  0.3932
    2MOL   H284  606   6.066   0.256   5.871  0.8101  1.7218 -2.3990
    2MOL   H285  607   5.945   0.436   6.080 -2.8585 -0.6513 -1.8094
    2MOL   H286  608   6.000   0.283   6.140  1.1177 -0.9599 -0.0014
    2MOL   H287  609   5.886   0.291   6.005  1.8333 -0.6484 -0.2965
    2MOL   H288  610   6.081   0.714   5.500 -0.8270 -0.6182  0.2731
    2MOL   H289  611   6.043   0.715   5.678 -0.0117 -2.6155  1.9573
    2MOL   C290  612   6.252   0.700   5.625 -0.1938 -0.6401  0.3506
    2MOL   O291  613   6.309   0.674   5.502  0.5247  0.6457  0.4938
    2MOL   C292  614   6.442   0.631   5.505 -0.5716  0.3266  0.4668
    2MOL   C293  615   6.480   0.586   5.366 -0.1905  0.2535  0.2112
    2MOL   C294  616   6.622   0.517   5.358  0.3622  0.1217  0.3606
    2MOL   C295  617   6.292   0.836   5.681 -0.6340 -0.2757 -0.3212
    2MOL   H296  618   6.281   0.619   5.692 -1.4822 -0.6432  0.9090
    2MOL   H297  619   6.512   0.711   5.531 -1.5531  0.8804  1.4576
    2MOL   H298  620   6.461   0.540   5.561 -1.8741  0.3320  0.9222
    2MOL   H299  621   6.476   0.669   5.296 -1.4802 -0.8606 -1.0777
    2MOL   H300  622   6.408   0.516   5.325  1.1110 -1.8104  1.3847
    2MOL   H301  623   6.696   0.596   5.347 -0.6811  0.9785 -0.6273
    2MOL   H302  624   6.633   0.468   5.261  1.1115 -0.5861  0.7922
    2MOL   H303  625   6.646   0.450   5.441 -0.1308 -0.2857  0.1820
    2MOL   H304  626   6.369   0.881   5.620 -1.4500  0.4835 -0.8035
    2MOL   H305  627   6.206   0.897   5.654 -1.0693  0.1224  1.8720
    2MOL   C306  628   6.337   0.843   5.825  0.6449 -0.1077 -0.4428
    2MOL   O307  629   6.470   0.794   5.836  0.2501 -0.2383 -0.0826
    2MOL   C308  630   6.469   0.680   5.917 -0.7832  0.1769  0.3131
    2MOL   C309  631   6.621   0.626   5.924  0.2234 -0.0286  0.5674
    2MOL   C310  632   6.682   0.588   5.784 -0.2444 -0.9251  0.2933
    2MOL   C311  633   6.369   0.987   5.874  0.3568 -0.9312 -0.8261
    2MOL   H312  634   6.258   0.802   5.889  1.9454 -0.0853  1.2262
    2MOL   H313  635   6.428   0.702   6.015  0.2837  0.1319  0.7809
    2MOL   H314  636   6.403   0.600   5.885  1.3545 -1.5797  0.1723
    2MOL   H315  637   6.619   0.549   6.000 -3.9613  1.6176  2.2491
    2MOL   H316  638   6.683   0.705   5.965 -1.3315  1.5966 -0.1341
    2MOL   H317  639   6.693   0.677   5.722 -3.2026 -1.0997 -0.5981
    2MOL   H318  640   6.613   0.513   5.745 -0.7290 -1.6943  2.5727
    2MOL   H319  641   6.780   0.542   5.787 -0.8138 -2.5432 -3.1219
    2MOL   H320  642   6.435   1.044   5.809 -2.4482  1.5846 -1.5526
    2MOL   H321  643   6.281   1.046   5.899  0.6553 -1.3400  1.3062
    2MOL   H322  644   6.411   0.977   5.974 -1.3110 -0.7793 -0.0884
    3MOL     C1  645   3.043   6.167   7.039  0.5022  0.0805  0.2427
    3MOL     O2  646   3.094   6.289   7.094 -0.2183 -0.4674  0.3344
    3MOL     C3  647   3.163   6.362   6.993 -0.3337 -0.2079  0.7111
    3MOL     C4  648   3.206   6.500   7.049 -0.3056 -0.5476 -0.8138
    3MOL     C5  649   3.264   6.578   6.931 -0.1241  0.3564  0.2151
    3MOL     C6  650   2.938   6.112   7.133 -0.0250  0.1173 -0.3079
    3MOL     H7  651   3.129   6.108   7.008  0.7020  1.0482 -1.1248
    3MOL     H8  652   3.250   6.305   6.961 -0.0748  1.6306 -2.0974
    3MOL     H9  653   3.094   6.379   6.910 -0.6764  0.4604  1.1226
    3MOL    H10  654   3.279   6.495   7.131  1.2345  0.3080 -2.0974
    3MOL    H11  655   3.120   6.554   7.088 -0.6197 -0.3510 -1.7818
    3MOL    H12  656   3.305   6.675   6.960  0.4041 -0.1308  1.1531
    3MOL    H13  657   3.183   6.597   6.861  0.1816  3.9009  0.7553
    3MOL    H14  658   3.340   6.522   6.875 -1.9234 -0.7314 -1.1735
    3MOL    H15  659   2.913   6.007   7.117 -2.2298  0.5589  0.0760
    3MOL    H16  660   2.981   6.103   7.233 -0.6951 -1.7093 -0.1637
    3MOL    H17  661   2.994   6.184   6.943  1.1530 -0.1348 -0.1331
    3MOL    C18  662   2.809   6.203   7.132 -0.6340 -0.7749 -0.2262
    3MOL    O19  663   2.748   6.198   7.000  0.0102  0.4036 -0.7959
    3MOL    C20  664   2.680   6.316   6.956  0.3189  0.1924 -0.5129
    3MOL    C21  665   2.645   6.296   6.801  0.0401 -0.6740 -0.0489
    3MOL    C22  666   2.507   6.234   6.789 -0.2272 -0.7578 -0.4905
    3MOL    C23  667   2.709   6.176   7.249  0.0849 -0.4655  0.3354
    3MOL    H24  668   2.849   6.302   7.156 -3.4329  0.6890 -1.3396
    3MOL    H25  669   2.602   6.342   7.027 -0.2901 -0.4406 -0.9478
    3MOL    H26  670   2.746   6.403   6.959  0.7304 -0.1214 -0.5348
    3MOL    H27  671   2.724   6.234   6.761  0.0380 -0.7943  0.1336
    3MOL    H28  672   2.663   6.385   6.741 -0.2033 -0.7789 -0.2771
    3MOL    H29  673   2.443   6.298   6.849  1.7404  0.5544  0.2387
    3MOL    H30  674   2.510   6.137   6.840  0.2375 -0.2643  0.4204
    3MOL    H31  675   2.474   6.212   6.687  1.3892 -0.9468 -0.9886
    3MOL    H32  676   2.627   6.247   7.260  0.7519  0.0656  1.9762
    3MOL    H33  677   2.651   6.085   7.233  0.6859 -0.6200 -0.9927
    3MOL    C34  678   2.762   6.183   7.392  0.0976  0.5875 -0.2070
    3MOL    O35  679   2.774   6.327   7.410 -0.0169 -0.3347  0.0566
    3MOL    C36  680   2.899   6.372   7.451  0.6627  0.7100  0.3645
    3MOL    C37  681   2.904   6.529   7.460 -0.1910  0.1000 -0.4823
    3MOL    C38  682   2.919   6.598   7.326  0.5498 -0.1191 -0.3108
    3MOL    C39  683   2.659   6.131   7.492  0.0693 -0.5396 -0.1112
    3MOL    H40  684   2.854   6.128   7.408 -0.4693 -1.1292 -2.7041
    3MOL    H41  685   2.923   6.335   7.550 -2.7237 -0.3403  0.8274
    3MOL    H42  686   2.967   6.338   7.372  1.7271  1.6198  0.8702
    3MOL    H43  687   2.993   6.558   7.515  0.5228 -0.4099 -1.3548
    3MOL    H44  688   2.824   6.573   7.521  0.9233 -0.7623  1.6538
    3MOL    H45  689   3.014   6.581   7.274 -0.8320 -0.4646 -2.7771
    3MOL    H46  690   2.889   6.703   7.323  0.7156 -0.0733 -0.3838
    3MOL    H47  691   2.843   6.550   7.265  1.7018 -2.1120 -0.2118
    3MOL    H48  692   2.667   6.180   7.589  3.1188  0.0181 -0.6038
    3MOL    H49  693   2.562   6.154   7.449 -0.3410 -2.7248 -0.4455
    3MOL    C50  694   2.648   5.975   7.511  0.2000 -0.8426  1.1189
    3MOL    O51  695   2.671   5.940   7.646  0.0626  0.1197  0.3163
    3MOL    C52  696   2.807   5.923   7.680  0.1061  0.3264  0.6392
    3MOL    C53  697   2.821   5.887   0.004  0.3459  0.0151 -0.5740
    3MOL    C54  698   2.817   6.003   0.098  0.1714  0.0295  0.1194
    3MOL    C55  699   2.514   5.923   7.456 -0.0892 -0.1568  0.6453
    3MOL    H56  700   2.728   5.927   7.455 -0.4314 -1.6162  0.8806
    3MOL    H57  701   2.839   5.836   7.624 -2.4185 -0.4909  0.4140
    3MOL    H58  702   2.878   6.000   7.650  0.6944  0.0705  1.3512
    3MOL    H59  703   2.913   5.829   0.014  0.2528 -0.3754 -1.8078
    3MOL    H60  704   2.741   5.816   0.025 -0.7519  1.3688 -0.1818
    3MOL    H61  705   2.723   6.058   0.095 -0.6877 -1.3457  1.1310
    3MOL    H62  706   2.894   6.076   0.073 -0.0821 -0.3391 -1.7598
    3MOL    H63  707   2.826   5.966   0.200 -0.3202 -2.5748 -0.7650
    3MOL    H64  708   2.436   5.981   7.504 -0.5177  0.2192 -0.4994
    3MOL    H65  709   2.498   5.943   7.350 -0.5296 -0.6841  0.6140
    3MOL    C66  710   2.490   5.777   7.492  0.2173  0.0421 -0.3128
    3MOL    O67  711   2.358   5.729   7.449 -0.7061 -0.2778  0.5134
    3MOL    C68  712   2.257   5.738   7.544 -0.3329 -0.0781 -0.8716
    3MOL    C69  713   2.144   5.638   7.505  0.8115  0.0478 -0.6733
    3MOL    C70  714   2.213   5.498   7.513  0.2557  0.3673  0.3702
    3MOL    C71  715   2.596   5.674   7.421  0.0968  0.4833  0.2867
    3MOL    H72  716   2.503   5.762   7.599  2.0747  0.2152 -0.4922
    3MOL    H73  717   2.286   5.727   7.649  0.1848 -0.3957 -1.0479
    3MOL    H74  718   2.216   5.838   7.541 -0.0532  0.0168 -1.5219
    3MOL    H75  719   2.110   5.672   7.407  0.6838 -0.2213 -0.7229
    3MOL    H76  720   2.064   5.656   7.577  0.3983 -1.1597 -0.8126
    3MOL    H77  721   2.254   5.470   7.609 -1.1646  1.2983  1.2616
    3MOL    H78  722   2.287   5.492   7.433 -1.0359  1.1834 -0.9239
    3MOL    H79  723   2.150   5.425   7.462  1.7139 -1.0558  0.5995
    3MOL    H80  724   2.554   5.669   7.320 -0.3261  1.2840  0.4210
    3MOL    H81  725   2.692   5.723   7.406 -0.2835  0.9890 -0.6077
    3MOL    C82  726   2.603   5.543   7.504  0.0450 -0.0810  0.4280
    3MOL    O83  727   2.659   5.439   7.427  0.0177 -0.2824  0.2141
    3MOL    C84  728   2.583   5.392   7.315  0.0231  0.2326  1.1159
    3MOL    C85  729   2.644   5.262   7.259 -0.2407  0.0907  0.6156
    3MOL    C86  730   2.791   5.281   7.221 -0.3397 -0.7196 -0.5919
    3MOL    C87  731   2.706   5.556   7.620 -0.8017 -0.3670 -0.6373
    3MOL    H88  732   2.506   5.505   7.536  0.0762 -0.7980 -0.3042
    3MOL    H89  733   2.481   5.368   7.345  0.2572 -1.3169  0.7360
    3MOL    H90  734   2.577   5.464   7.234  2.2042  0.3803  1.0572
    3MOL    H91  735   2.601   5.238   7.162  1.5745  0.3380 -0.2740
    3MOL    H92  736   2.630   5.182   7.332  1.2634  2.2661  3.3921
    3MOL    H93  737   2.823   5.200   7.155 -1.6035 -2.3471  0.7826
    3MOL    H94  738   2.858   5.279   7.307 -2.0492 -1.6809  0.7560
    3MOL    H95  739   2.819   5.379   7.181  1.1706 -0.6144  0.6377
    3MOL    H96  740   2.805   5.582   7.580 -0.4911 -2.0695 -0.9942
    3MOL    H97  741   2.691   5.639   7.689  0.4673 -0.2221 -0.5218
    3MOL    C98  742   2.727   5.431   7.706  0.6438 -0.1175 -0.2835
    3MOL    O99  743   2.856   5.447   7.763  0.0560 -0.2778 -0.0900
    3MOL   C100  744   2.966   5.372   7.709 -0.9786 -0.6378  0.0276
    3MOL   C101  745   3.061   5.329   7.822  0.3305  0.5747 -0.3265
    3MOL   C102  746   3.112   5.445   0.083  0.4483 -0.3279 -0.0332
    3MOL   C103  747   2.627   5.434   7.826  0.1879  0.2247 -0.3691
    3MOL   H104  748   2.718   5.328   7.671  1.7303 -0.5207  0.5810
    3MOL   H105  749   2.934   5.284   7.652 -0.6586 -0.4790 -0.4020
    3MOL   H106  750   3.015   5.438   7.637 -0.1368  1.5412  2.5137
    3MOL   H107  751   3.144   5.267   7.787  0.5837  0.9308 -0.3550
    3MOL   H108  752   2.998   5.262   0.054  0.7225  0.7712  0.3069
    3MOL   H109  753   3.160   5.511   0.011  0.5080  0.4317  0.7068
    3MOL   H110  754   3.185   5.415   0.158  0.3262  0.4164  0.3864
    3MOL   H111  755   3.027   5.492   0.132 -0.3609  0.5642 -2.2095
    3MOL   H112  756   2.668   5.373   0.079 -2.6384 -2.0413 -0.5622
    3MOL   H113  757   2.640   5.533   0.041 -2.0336  0.1304  0.6321
    3MOL   C114  758   2.476   5.395   7.810  0.5992 -0.1458 -0.6013
    3MOL   O115  759   2.477   5.260   7.766  0.2197 -0.1265  0.6142
    3MOL   C116  760   2.373   5.216   7.685  0.1526  0.9643 -0.2169
    3MOL   C117  761   2.360   5.058   7.687 -0.0109 -0.1755  0.3870
    3MOL   C118  762   2.313   4.998   7.821 -0.0365 -0.3075 -0.1059
    3MOL   C119  763   2.381   5.392   0.107  0.4244  0.2830 -0.1475
    3MOL   H120  764   2.430   5.462   7.738  0.5238  0.5946  0.1332
    3MOL   H121  765   2.278   5.242   7.733  1.4703 -0.8080  3.6058
    3MOL   H122  766   2.381   5.262   7.587  2.0929  0.7847 -0.1557
    3MOL   H123  767   2.459   5.017   7.665 -0.4933 -2.0480  1.5957
    3MOL   H124  768   2.292   5.024   7.609  1.5470  0.8478 -1.4659
    3MOL   H125  769   2.382   5.026   0.072 -4.2603  0.5373  3.4855
    3MOL   H126  770   2.310   4.891   7.801  1.6150 -0.0525 -1.8042
    3MOL   H127  771   2.215   5.029   0.030  0.3670  1.5303 -0.5350
    3MOL   H128  772   2.291   5.334   0.089  1.1778 -0.5754 -1.2244
    3MOL   H129  773   2.424   5.331   0.187  2.5842  2.4556  0.4289
    3MOL   C130  774   2.360   5.528   0.174 -0.2489  0.2639  0.0251
    3MOL   O131  775   2.490   5.559   0.230  0.2480 -0.6070 -0.1676
    3MOL   C132  776   2.473   5.589   0.370  0.0302  0.5461 -0.0299
    3MOL   C133  777   2.586   5.678   0.425  0.0824  0.3273 -0.1926
    3MOL   C134  778   2.567   5.825   0.390 -0.3072 -0.5088 -0.2706
    3MOL   C135  779   2.314   5.637   0.075 -0.4767 -0.4913 -0.2391
    3MOL   H136  780   2.283   5.503   0.247  0.0822 -0.9288 -0.0236
    3MOL   H137  781   2.387   5.654   0.386  0.0874  0.2665  1.4873
    3MOL   H138  782   2.459   5.496   0.424  0.2789  0.0260 -0.8455
    3MOL   H139  783   2.675   5.642   0.372 -0.2724 -1.6757  0.4985
    3MOL   H140  784   2.609   5.659   0.530 -0.7150 -1.8233 -0.3722
    3MOL   H141  785   2.664   5.874   0.385  0.1549 -1.2703  0.8737
    3MOL   H142  786   2.503   5.862   0.470  0.0057 -1.1708  0.2911
    3MOL   H143  787   2.520   5.841   0.293 -1.0506  0.2398  0.2092
    3MOL   H144  788   2.395   5.675   0.012  0.0931  0.6164  1.1413
    3MOL   H145  789   2.239   5.592   0.011 -0.6121 -2.9707  1.5924
    3MOL   C146  790   2.251   5.759   0.145  0.4804  0.0755 -0.2966
    3MOL   O147  791   2.247   5.861   0.044 -0.3162 -0.3145  0.0204
    3MOL   C148  792   2.345   5.963   0.049  0.0940  0.4023  0.6021
    3MOL   C149  793   2.312   6.067   7.769 -0.3872  1.1014 -0.6589
    3MOL   C150  794   2.189   6.146   7.815 -0.0665  0.4078  0.9157
    3MOL   C151  795   2.101   5.743   0.172 -0.4007 -0.1416  0.2938
    3MOL   H152  796   2.312   5.788   0.231  0.6118 -0.7892 -0.0911
    3MOL   H153  797   2.362   6.010   0.146 -2.8589 -0.3485  1.5515
    3MOL   H154  798   2.440   5.925   0.014 -0.7637 -0.1989 -1.1294
    3MOL   H155  799   2.304   6.019   7.672  0.9950 -0.4411 -0.0158
    3MOL   H156  800   2.392   6.141   7.773  0.5820  0.0038  0.8734
    3MOL   H157  801   2.178   6.238   7.757 -2.7394  0.2040  1.0032
    3MOL   H158  802   2.199   6.174   0.092  1.2906  3.0265  0.1178
    3MOL   H159  803   2.097   6.088   7.805  0.4327 -0.0620 -1.3551
    3MOL   H160  804   2.082   5.844   0.209 -0.2431  1.0635 -2.7761
    3MOL   H161  805   2.058   5.735   0.073 -0.7643  0.0037  0.4391
    3MOL   C162  806   2.045   5.640   0.273 -0.0734  0.0369  0.6652
    3MOL   O163  807   2.119   5.666   0.392  0.1922 -0.2282 -0.3475
    3MOL   C164  808   2.106   5.578   0.496 -0.1192  0.6937 -0.0524
    3MOL   C165  809   2.162   5.654   0.620  0.2115  0.5563 -0.5079
    3MOL   C166  810   2.095   5.790   0.637  0.0478  0.4938 -0.2198
    3MOL   C167  811   1.889   5.655   0.299  0.4040 -0.4923  0.4922
    3MOL   H168  812   2.065   5.538   0.240 -2.4905 -0.3948  0.4380
    3MOL   H169  813   2.006   5.540   0.517 -1.0893  2.3678 -1.5629
    3MOL   H170  814   2.177   5.496   0.481 -0.3358  0.0772  2.1687
    3MOL   H171  815   2.268   5.667   0.595  0.4080 -1.1993 -0.6569
    3MOL   H172  816   2.153   5.600   0.715 -1.2829  1.1552 -0.2949
    3MOL   H173  817   2.137   5.844   0.721  1.7464 -0.9211 -0.1174
    3MOL   H174  818   1.986   5.783   0.635  0.0661 -0.8437  2.1142
    3MOL   H175  819   2.114   5.843   0.543 -1.8798 -1.9026 -2.0464
    3MOL   H176  820   1.853   5.587   0.377 -0.4715 -1.2213 -0.5367
    3MOL   H177  821   1.880   5.758   0.332 -3.0902 -0.3208 -0.8369
    3MOL   C178  822   1.803   5.628   0.177 -0.8353  0.3707 -0.0266
    3MOL   O179  823   1.830   5.496   0.137  0.6959  0.5619  0.3782
    3MOL   C180  824   1.799   5.473   0.002 -0.0370  0.7310 -0.0165
    3MOL   C181  825   1.845   5.332   7.789 -0.3070 -0.6368  0.1538
    3MOL   C182  826   1.988   5.301   0.007  0.2453 -0.7246 -0.3734
    3MOL   C183  827   1.656   5.652   0.204  0.2673  0.2702  0.1147
    3MOL   H184  828   1.845   5.694   0.101  0.8814  0.1341  0.6832
    3MOL   H185  829   1.696   5.494   7.802 -1.0774 -2.0525  1.4765
    3MOL   H186  830   1.862   5.541   7.772 -0.5365  1.5077  0.3560
    3MOL   H187  831   1.840   5.321   7.681 -1.0169 -0.9288  0.2109
    3MOL   H188  832   1.769   5.267   0.004 -0.0100  0.4030  2.3405
    3MOL   H189  833   2.054   5.378   7.793 -1.9902  1.9718  0.8793
    3MOL   H190  834   2.020   5.206   7.791 -1.1606 -0.1297 -2.7948
    3MOL   H191  835   1.998   5.290   0.115  0.8139  1.9693 -0.1130
    3MOL   H192  836   1.653   5.751   0.250 -1.8891 -0.3099  1.3121
    3MOL   H193  837   1.607   5.657   0.106  1.9502 -2.0464 -0.8693
    3MOL   C194  838   1.583   5.546   0.300  1.0319  0.4269 -0.2612
    3MOL   O195  839   1.634   5.536   0.440 -0.0334 -0.1911  0.0312
    3MOL   C196  840   1.675   5.410   0.487 -0.5607 -0.6351  0.2572
    3MOL   C197  841   1.663   5.392   0.644  0.5698  0.0131  0.7145
    3MOL   C198  842   1.514   5.358   0.683  0.1690 -0.5665  0.0844
    3MOL   C199  843   1.428   5.567   0.302 -0.0962  0.1312 -0.6368
    3MOL   H200  844   1.601   5.448   0.255 -0.5586 -0.7889  1.6970
    3MOL   H201  845   1.625   5.322   0.447  0.5868 -1.2265  0.1037
    3MOL   H202  846   1.776   5.392   0.452 -0.8649 -0.2167 -0.8644
    3MOL   H203  847   1.688   5.483   0.698 -0.8537  0.2007  1.0742
    3MOL   H204  848   1.721   5.310   0.687  0.4549 -0.5057 -0.1044
    3MOL   H205  849   1.505   5.366   0.791  0.1057  1.0596 -0.0310
    3MOL   H206  850   1.501   5.253   0.655  1.2582 -0.9794  1.0498
    3MOL   H207  851   1.443   5.426   0.637  0.6470  0.2197  0.5009
    3MOL   H208  852   1.399   5.632   0.384 -0.5073 -2.1217  1.0559
    3MOL   H209  853   1.390   5.617   0.213 -0.6376 -1.7857 -1.5122
    3MOL   C210  854   1.355   5.434   0.331  0.3255 -0.1295  0.4749
    3MOL   O211  855   1.218   5.465   0.355 -0.6550 -0.7560  0.5089
    3MOL   C212  856   1.132   5.365   0.395  0.0701  0.6459  0.3269
    3MOL   C213  857   0.988   5.415   0.417  0.0359  0.0568  0.6416
    3MOL   C214  858   0.909   5.306   0.482  0.7067  0.2428 -1.0059
    3MOL   C215  859   1.364   5.328   0.219  0.4470  0.5304  0.2191
    3MOL   H216  860   1.386   5.388   0.424 -0.4386 -0.1861  0.7099
    3MOL   H217  861   1.125   5.285   0.321 -2.8516  0.7507  0.4046
    3MOL   H218  862   1.159   5.328   0.494 -1.0542  1.6855  1.0381
    3MOL   H219  863   0.933   5.435   0.325 -1.3732  2.1215  1.8794
    3MOL   H220  864   0.996   5.496   0.489  0.5665  1.8862 -1.3952
    3MOL   H221  865   0.889   5.219   0.419 -1.3055 -0.4641  0.5787
    3MOL   H222  866   0.817   5.345   0.526  1.3277  1.0584 -0.4255
    3MOL   H223  867   0.972   5.274   0.565 -1.2047  0.0942  0.4122
    3MOL   H224  868   1.467   5.313   0.189 -0.5905 -2.5382 -1.9614
    3MOL   H225  869   1.335   5.233   0.264 -1.7897  0.2444 -1.7553
    3MOL   C226  870   1.287   5.357   0.087 -0.2050 -0.4599  0.2162
    3MOL   O227  871   1.371   5.430   0.000  0.8186 -0.4949  0.0556
    3MOL   C228  872   1.312   5.493   7.715 -0.0804  0.1678 -0.1019
    3MOL   C229  873   1.426   5.580   7.652 -0.1356 -0.3571  0.3617
    3MOL   C230  874   1.410   5.728   7.684  0.0096 -1.2300  0.2025
    3MOL   C231  875   1.223   5.229   0.017  0.3473  0.2051 -0.4385
    3MOL   H232  876   1.199   5.416   0.112  0.2100  0.7141 -1.0583
    3MOL   H233  877   1.275   5.423   7.640 -0.6959  1.0483 -0.6279
    3MOL   H234  878   1.228   5.556   7.743  0.7208  1.1341  0.2016
    3MOL   H235  879   1.433   5.543   7.550  0.3053 -0.2642  0.3598
    3MOL   H236  880   1.527   5.558   7.686  0.5816 -0.4915 -1.7738
    3MOL   H237  881   1.470   5.784   7.612 -0.5757  0.4944  1.0425
    3MOL   H238  882   1.429   5.769   7.783 -0.0281  1.1120 -0.7438
    3MOL   H239  883   1.309   5.751   7.649  0.9261  1.0495 -1.0389
    3MOL   H240  884   1.168   5.172   0.092 -0.9324  2.0301  0.0311
    3MOL   H241  885   1.152   5.252   7.765  0.1705 -0.9750 -0.6394
    3MOL   C242  886   1.333   5.135   7.793  0.0977 -0.1749  0.5415
    3MOL   O243  887   1.286   4.999   7.795 -1.0293 -0.2743 -0.3345
    3MOL   C244  888   1.334   4.915   0.065 -0.6930  0.1157 -0.4640
    3MOL   C245  889   1.234   4.799   0.088 -0.3375 -0.2575 -0.6441
    3MOL   C246  890   1.292   4.689   0.174 -0.7688  0.5578  0.0694
    3MOL   C247  891   1.370   5.154   7.651 -0.3561  0.3683  0.4538
    3MOL   H248  892   1.418   5.134   0.033 -0.6710 -1.2975  1.5239
    3MOL   H249  893   1.430   4.882   0.026 -0.3782  2.6630 -1.9223
    3MOL   H250  894   1.340   4.970   0.158 -1.8730  2.2760 -1.6370
    3MOL   H251  895   1.203   4.755   7.821 -1.5997  1.0686 -0.8573
    3MOL   H252  896   1.143   4.837   0.134 -1.3138 -1.7000 -1.3840
    3MOL   H253  897   1.357   4.637   0.104 -0.1994  0.2640  0.8034
    3MOL   H254  898   1.211   4.618   0.194 -0.2568  0.3666  1.5366
    3MOL   H255  899   1.339   4.730   0.264 -0.0845 -1.2046  0.5362
    3MOL   H256  900   1.287   5.117   7.591 -1.8813  3.4032  0.5828
    3MOL   H257  901   1.398   5.258   7.632  1.6144  0.3234  2.8041
    3MOL   C258  902   1.479   5.065   7.593  0.1143 -0.8329  0.4520
    3MOL   O259  903   1.477   5.078   7.449  0.6574  0.3992  0.0845
    3MOL   C260  904   1.417   4.973   7.373 -0.4288 -0.0801  0.0496
    3MOL   C261  905   1.401   4.978   7.220  0.0831  0.1014 -0.4121
    3MOL   C262  906   1.367   4.845   7.150 -0.3072 -0.0444 -0.6434
    3MOL   C263  907   1.624   5.090   7.646  0.5017 -0.1654  0.6382
    3MOL   H264  908   1.453   4.961   7.610 -0.3024 -0.8142 -0.0709
    3MOL   H265  909   1.495   4.899   7.395 -0.7625 -0.0912  1.2309
    3MOL   H266  910   1.327   4.942   7.427 -0.9956  0.0912 -0.7860
    3MOL   H267  911   1.502   5.009   7.192  0.7990  0.3793  2.2465
    3MOL   H268  912   1.336   5.058   7.186  0.0418  0.2447 -0.0005
    3MOL   H269  913   1.446   4.770   7.164  0.8966  1.1466 -0.9677
    3MOL   H270  914   1.347   4.860   7.044 -1.1795 -0.5496 -0.5516
    3MOL   H271  915   1.273   4.809   7.191 -0.3551  0.1391 -0.5946
    3MOL   H272  916   1.654   5.182   7.597 -3.5210  1.4031  0.9293
    3MOL   H273  917   1.620   5.101   7.755  2.0327  0.2035  0.6712
    3MOL   C274  918   1.732   4.984   7.617  0.1392 -0.4157 -0.7911
    3MOL   O275  919   1.859   5.044   7.597 -0.4002 -0.3630 -0.2492
    3MOL   C276  920   1.898   5.066   7.457 -0.2958  0.5219 -0.2066
    3MOL   C277  921   2.016   5.164   7.451 -0.0411 -0.1161 -0.7480
    3MOL   C278  922   2.053   5.194   7.305 -0.5321  0.0946 -0.2331
    3MOL   C279  923   1.749   4.889   7.735  0.0035 -0.0710 -0.2195
    3MOL   H280  924   1.707   4.934   7.523  1.4467 -1.7973 -0.4318
    3MOL   H281  925   1.933   4.970   7.419  2.6774  1.3477  0.2884
    3MOL   H282  926   1.813   5.101   7.399  0.0513  0.3517 -0.8262
    3MOL   H283  927   2.104   5.122   7.500 -0.4283 -0.7781 -0.6202
    3MOL   H284  928   1.985   5.259   7.494  1.2521  0.6882 -1.5597
    3MOL   H285  929   2.084   5.103   7.254 -0.5276 -1.0927  1.8242
    3MOL   H286  930   2.140   5.259   7.312  0.7915 -1.7544  0.8071
    3MOL   H287  931   1.964   5.232   7.254 -0.0652  1.7463  0.1419
    3MOL   H288  932   1.810   4.936   7.812 -0.5457  1.9415 -0.9775
    3MOL   H289  933   1.651   4.859   7.771 -0.5557  0.1738 -1.4844
    3MOL   C290  934   1.829   4.761   7.711  1.0306  0.3488 -0.4070
    3MOL   O291  935   1.835   4.679   7.825 -0.3059  0.2797  0.1077
    3MOL   C292  936   1.897   4.722   0.120  0.4633 -0.0536  0.3161
    3MOL   C293  937   1.896   4.612   0.225  0.8148 -0.4316  0.5728
    3MOL   C294  938   1.762   4.556   0.279  0.1711 -0.3049  1.2406
    3MOL   C295  939   1.767   4.682   7.591  0.2225  0.3577  0.2485
    3MOL   H296  940   1.930   4.789   7.682  0.9208  0.6214 -0.5252
    3MOL   H297  941   2.002   4.733   0.093  0.2154 -1.7475 -1.4524
    3MOL   H298  942   1.855   4.815   0.158 -2.4778 -1.1891 -0.0577
    3MOL   H299  943   1.955   4.636   0.313  1.6142  0.4668 -0.2006
    3MOL   H300  944   1.952   4.528   0.184 -2.3358 -1.3382 -2.0963
    3MOL   H301  945   1.692   4.538   0.198  0.9745 -1.1429  0.7264
    3MOL   H302  946   1.714   4.630   0.344  1.1964  1.0222  0.5017
    3MOL   H303  947   1.782   4.465   0.335 -0.0306 -1.6797 -0.8747
    3MOL   H304  948   1.664   4.658   7.615  0.9424 -2.4649  0.7147
    3MOL   H305  949   1.786   4.733   7.497 -0.9486  0.7449  0.2145
    3MOL   C306  950   1.844   4.552   7.568 -0.5560  0.0239 -0.5340
    3MOL   O307  951   1.794   4.489   7.450 -0.0005 -0.1224  0.2920
    3MOL   C308  952   1.676   4.417   7.468 -0.1799  0.2950  0.6142
    3MOL   C309  953   1.628   4.355   7.335 -0.3548  0.0864  0.2789
    3MOL   C310  954   1.726   4.265   7.262 -0.1017 -0.0645  0.5093
    3MOL   C311  955   1.991   4.570   7.523  0.2253  0.4254 -0.3439
    3MOL   H312  956   1.828   4.484   7.651  2.3415 -2.0846 -1.6081
    3MOL   H313  957   1.688   4.346   7.550  1.0828  0.3250  0.4782
    3MOL   H314  958   1.607   4.489   7.512 -3.3332 -2.5259  0.4455
    3MOL   H315  959   1.588   4.427   7.264 -2.8804  0.8738  2.4026
    3MOL   H316  960   1.534   4.302   7.354  0.6744 -1.8551  0.0448
    3MOL   H317  961   1.671   4.209   7.187 -0.5093 -1.7713  2.0450
    3MOL   H318  962   1.756   4.184   7.329 -1.4215  0.9526  2.3671
    3MOL   H319  963   1.816   4.309   7.219 -0.2237  0.7877  1.1296
    3MOL   H320  964   1.991   4.635   7.436 -0.7446 -1.8637 -2.0963
    3MOL   H321  965   2.048   4.605   7.610 -0.8046  1.0835  0.0831
    3MOL   H322  966   2.035   4.473   7.499  1.5128  0.9905 -0.2778
    4MOL     C1  967   3.180   4.054   0.976 -0.6731 -0.7981 -0.0653
    4MOL     O2  968   3.102   3.944   0.960  0.0589  0.1374 -0.3249
    4MOL     C3  969   3.057   3.888   1.080  0.0300  0.0671  0.5285
    4MOL     C4  970   2.926   3.816   1.051 -0.1471 -0.1068 -0.3385
    4MOL     C5  971   2.949   3.703   0.955  0.2355  0.3061 -0.2190
    4MOL     C6  972   3.227   4.097   0.832  0.1187  0.6192 -0.1780
    4MOL     H7  973   3.260   4.041   1.049 -0.3946  0.0306 -0.2217
    4MOL     H8  974   3.131   3.820   1.120  0.3349  0.2558  0.2907
    4MOL     H9  975   3.041   3.959   1.161  2.0990 -0.5713  1.5231
    4MOL    H10  976   2.870   3.896   1.003 -0.9712 -1.2108 -1.2231
    4MOL    H11  977   2.870   3.790   1.141 -0.5160 -0.2687 -0.6136
    4MOL    H12  978   3.013   3.627   0.998 -0.4115  0.1565  0.4903
    4MOL    H13  979   2.997   3.737   0.863 -2.2299  1.0927 -1.2478
    4MOL    H14  980   2.860   3.647   0.924  0.0918 -0.0331  0.8037
    4MOL    H15  981   3.262   4.014   0.771  0.4727 -0.0486  0.9133
    4MOL    H16  982   3.137   4.134   0.782 -0.2189  2.2697  1.5586
    4MOL    H17  983   3.121   4.132   1.024 -1.4026 -0.4339 -1.5419
    4MOL    C18  984   3.329   4.211   0.829  0.0380  0.1308  0.4050
    4MOL    O19  985   3.268   4.319   0.901 -0.0140  0.3348 -0.3928
    4MOL    C20  986   3.337   4.444   0.889  0.5361 -0.1568 -0.2291
    4MOL    C21  987   3.249   4.561   0.948  0.2069  0.4011  0.1623
    4MOL    C22  988   3.234   4.578   1.104  0.0801 -0.6425  0.5298
    4MOL    C23  989   3.468   4.177   0.893  1.1608 -0.3902  0.2854
    4MOL    H24  990   3.341   4.247   0.726  1.8382  1.6707  1.1283
    4MOL    H25  991   3.424   4.441   0.955 -0.4462  2.8109  1.2929
    4MOL    H26  992   3.375   4.461   0.789  1.6409 -0.3064  0.1581
    4MOL    H27  993   3.149   4.543   0.906 -0.1849  0.2019  1.1653
    4MOL    H28  994   3.274   4.659   0.907 -3.2874  0.1213 -2.9705
    4MOL    H29  995   3.322   4.591   1.167 -0.0264 -0.3490  0.6207
    4MOL    H30  996   3.186   4.489   1.143 -1.5381  0.0552  0.1729
    4MOL    H31  997   3.172   4.666   1.121  1.5072  1.0050 -2.2896
    4MOL    H32  998   3.531   4.266   0.889  2.5358 -1.3909 -0.8573
    4MOL    H33  999   3.461   4.154   0.999  2.2039  0.1378  0.4751
    4MOL    C34 1000   3.549   4.060   0.829  0.2724  0.7887 -0.1193
    4MOL    O35 1001   3.633   4.112   0.727  0.0865 -0.2111  0.3052
    4MOL    C36 1002   3.573   4.100   0.596 -0.1000 -0.1496 -0.1562
    4MOL    C37 1003   3.665   4.180   0.509  0.3909 -0.4120  0.1450
    4MOL    C38 1004   3.631   4.160   0.361  0.1367  0.3497  0.2154
    4MOL    C39 1005   3.637   3.983   0.931  0.1257 -0.0837 -0.1244
    4MOL    H40 1006   3.473   3.986   0.804  2.8373 -1.6105 -1.0472
    4MOL    H41 1007   3.573   3.994   0.572  1.2328  0.0565 -1.1138
    4MOL    H42 1008   3.473   4.144   0.593 -0.0060  0.0405 -0.5051
    4MOL    H43 1009   3.770   4.162   0.534  0.3117  0.8238  1.4095
    4MOL    H44 1010   3.653   4.285   0.536 -1.2067 -0.7347  0.7246
    4MOL    H45 1011   3.540   4.218   0.346 -0.8769 -0.8906  1.3349
    4MOL    H46 1012   3.611   4.055   0.337 -1.1063  0.8003 -0.7559
    4MOL    H47 1013   3.710   4.205   0.302 -0.8907 -1.0671 -2.3230
    4MOL    H48 1014   3.703   3.911   0.882 -0.7703 -0.2970 -1.0445
    4MOL    H49 1015   3.702   4.054   0.983 -2.0358  1.7708  0.1493
    4MOL    C50 1016   3.557   3.908   1.045 -0.8496  0.4225 -0.2487
    4MOL    O51 1017   3.548   3.775   0.998 -0.0325 -0.0569  0.4125
    4MOL    C52 1018   3.425   3.706   1.024  0.5639 -0.6308 -0.4210
    4MOL    C53 1019   3.439   3.559   0.965 -0.6755  0.2550  0.9109
    4MOL    C54 1020   3.301   3.484   0.965  0.6069  0.3051 -0.9620
    4MOL    C55 1021   3.620   3.893   1.188  0.4639 -0.5818 -0.7788
    4MOL    H56 1022   3.455   3.939   1.071 -1.9072 -2.0089 -1.3131
    4MOL    H57 1023   3.418   3.712   1.133 -0.2815  3.2064 -0.5916
    4MOL    H58 1024   3.331   3.752   0.992 -0.3183 -1.5273  0.8107
    4MOL    H59 1025   3.518   3.509   1.020 -0.1501 -2.0226 -1.7638
    4MOL    H60 1026   3.469   3.565   0.861 -2.6004  0.8675  0.3584
    4MOL    H61 1027   3.235   3.535   0.895 -1.2958 -1.5134 -0.5425
    4MOL    H62 1028   3.255   3.475   1.064 -0.6626 -2.0030 -1.7187
    4MOL    H63 1029   3.312   3.385   0.922 -0.0613 -0.4184  0.4900
    4MOL    H64 1030   3.590   3.813   1.255 -1.1096  0.9266  0.3431
    4MOL    H65 1031   3.723   3.867   1.162  1.5581  0.7004  2.0856
    4MOL    C66 1032   3.629   4.023   1.276 -0.6244  1.3661  0.0278
    4MOL    O67 1033   3.497   4.074   1.273 -0.1663 -0.0173 -0.2567
    4MOL    C68 1034   3.484   4.213   1.308  0.3302 -0.5401 -0.7370
    4MOL    C69 1035   3.350   4.256   1.373  0.6321  1.2838 -0.5990
    4MOL    C70 1036   3.241   4.234   1.271 -0.7129 -0.2530 -0.4972
    4MOL    C71 1037   3.663   3.990   1.424 -0.4165 -0.6185 -0.2918
    4MOL    H72 1038   3.692   4.104   1.238  0.5455 -0.1258 -1.2488
    4MOL    H73 1039   3.562   4.222   1.384 -0.3458  1.3438 -0.2299
    4MOL    H74 1040   3.508   4.281   1.226  1.2583 -0.1032 -0.1164
    4MOL    H75 1041   3.358   4.365   1.382  1.0245  1.2929 -1.0307
    4MOL    H76 1042   3.331   4.231   1.477 -2.1436  0.6843 -1.2066
    4MOL    H77 1043   3.221   4.127   1.264  0.7129 -0.7187  1.8727
    4MOL    H78 1044   3.273   4.280   1.177  1.5394 -0.1814  0.2696
    4MOL    H79 1045   3.148   4.280   1.304 -1.6660 -0.5401 -2.7263
    4MOL    H80 1046   3.661   4.072   1.495  0.3185  1.5304 -2.6639
    4MOL    H81 1047   3.580   3.930   1.461 -0.4546  0.2409  1.0313
    4MOL    C82 1048   3.814   3.943   1.440  0.7602  0.1755  0.6663
    4MOL    O83 1049   3.907   4.048   1.420  0.5880  0.3216  0.3297
    4MOL    C84 1050   3.977   4.026   1.297  0.6581  0.6205  0.4191
    4MOL    C85 1051   4.072   4.137   1.263  0.2735  0.3687 -0.3339
    4MOL    C86 1052   4.169   4.110   1.151 -0.3093  0.2428  0.2015
    4MOL    C87 1053   3.842   3.883   1.578 -0.0416 -0.1793 -0.2422
    4MOL    H88 1054   3.832   3.870   1.361  0.4754  0.0658  0.7006
    4MOL    H89 1055   4.018   3.925   1.300  0.3256  0.3636 -2.6935
    4MOL    H90 1056   3.907   4.027   1.214  1.8571  0.1823 -0.6196
    4MOL    H91 1057   4.138   4.152   1.349  1.2105  0.7473 -1.1143
    4MOL    H92 1058   4.015   4.229   1.247  1.1854  1.1430  0.7561
    4MOL    H93 1059   4.247   4.185   1.134 -0.4381  0.6788  1.5190
    4MOL    H94 1060   4.114   4.120   1.057  4.0593 -1.7616 -2.7769
    4MOL    H95 1061   4.204   4.007   1.159 -1.1142 -0.0878 -0.4611
    4MOL    H96 1062   3.951   3.880   1.574 -0.0456 -1.6644  0.4450
    4MOL    H97 1063   3.810   3.947   1.660 -2.5137 -0.1853 -1.1829
    4MOL    C98 1064   3.763   3.748   1.604 -0.3426 -0.3271  0.3426
    4MOL    O99 1065   3.797   3.662   1.491 -0.1332 -0.2027 -0.6913
    4MOL   C100 1066   3.690   3.577   1.462 -0.2553 -0.8042 -0.9738
    4MOL   C101 1067   3.720   3.506   1.336  0.9450  0.0982  0.0600
    4MOL   C102 1068   3.623   3.388   1.317 -0.4273 -0.3126  0.5111
    4MOL   C103 1069   3.791   3.669   1.736 -0.1096  0.1385 -0.1314
    4MOL   H104 1070   3.656   3.766   1.614 -0.8772 -0.5510 -4.1504
    4MOL   H105 1071   3.674   3.499   1.537 -2.7855  0.5234 -0.0880
    4MOL   H106 1072   3.592   3.624   1.455 -0.0761 -0.0486  1.1929
    4MOL   H107 1073   3.826   3.478   1.329  1.0983  1.1906 -2.2891
    4MOL   H108 1074   3.703   3.581   1.259  2.1352 -0.7785 -1.0939
    4MOL   H109 1075   3.644   3.331   1.227  0.9963 -0.0997  0.6858
    4MOL   H110 1076   3.522   3.426   1.304 -0.3848  0.0644  1.2240
    4MOL   H111 1077   3.624   3.315   1.397  1.8390 -2.0509 -1.0378
    4MOL   H112 1078   3.701   3.609   1.744  1.3870 -2.0963  0.2384
    4MOL   H113 1079   3.883   3.613   1.725  1.2810  2.3485 -0.0933
    4MOL   C114 1080   3.796   3.764   1.862  0.3702  0.4630 -1.0903
    4MOL   O115 1081   3.686   3.855   1.865  0.5388  0.0152  0.4603
    4MOL   C116 1082   3.710   3.962   1.941  0.5452 -0.3294 -0.2554
    4MOL   C117 1083   3.581   4.038   1.957 -0.5368 -0.3794  0.2991
    4MOL   C118 1084   3.459   3.947   1.979  0.7410  0.3973  0.2219
    4MOL   C119 1085   3.800   3.672   1.985  0.2414 -0.8461  0.2672
    4MOL   H120 1086   3.888   3.821   1.855  1.2247 -0.8625 -0.8896
    4MOL   H121 1087   3.742   3.923   2.037  1.1439  0.9939  0.0963
    4MOL   H122 1088   3.790   4.032   1.916  0.7207 -0.8650 -1.2088
    4MOL   H123 1089   3.563   4.090   1.863 -1.8066 -0.3770  0.5335
    4MOL   H124 1090   3.598   4.118   2.029  0.3592  0.8768 -1.2845
    4MOL   H125 1091   3.362   3.992   1.959  0.7333  0.2095 -0.1739
    4MOL   H126 1092   3.465   3.899   2.076  0.0638  1.6944  0.9228
    4MOL   H127 1093   3.465   3.865   1.908  0.9676 -0.1352  0.8548
    4MOL   H128 1094   3.782   3.728   2.076  0.7695 -0.4422  0.1240
    4MOL   H129 1095   3.709   3.612   1.975 -0.6033  0.1029  2.0543
    4MOL   C130 1096   3.935   3.587   2.000 -0.4414  0.6690 -0.4065
    4MOL   O131 1097   4.031   3.657   2.078  0.0285 -0.3870  0.8280
    4MOL   C132 1098   4.123   3.744   2.006  0.0224  0.0823 -0.0919
    4MOL   C133 1099   4.127   3.888   2.050 -0.0957  0.0646 -0.4369
    4MOL   C134 1100   4.177   3.880   2.193 -0.1090 -0.7488 -0.4640
    4MOL   C135 1101   3.903   3.450   2.071  0.0380  0.3907  0.1379
    4MOL   H136 1102   3.974   3.569   1.900 -2.4106  0.9792 -1.2459
    4MOL   H137 1103   4.226   3.709   2.004  0.4854  1.3309  1.5193
    4MOL   H138 1104   4.092   3.745   1.901  1.8354  2.2369 -0.6358
    4MOL   H139 1105   4.035   3.947   2.043 -0.8390 -0.9975  0.2721
    4MOL   H140 1106   4.195   3.947   1.988  3.8319 -3.0416  0.7741
    4MOL   H141 1107   4.115   3.810   2.249  0.8441  1.2008  3.1982
    4MOL   H142 1108   4.163   3.971   2.252 -1.3594 -1.4598  0.3501
    4MOL   H143 1109   4.277   3.841   2.205 -0.0321  0.3428  3.2319
    4MOL   H144 1110   3.939   3.453   2.173 -1.1351  0.7594  0.5476
    4MOL   H145 1111   3.796   3.432   2.077 -0.0475  0.7755 -0.2265
    4MOL   C146 1112   3.970   3.329   1.989 -0.1574  0.3778 -0.4435
    4MOL   O147 1113   3.927   3.318   1.851 -0.0728  0.0391 -0.1372
    4MOL   C148 1114   3.791   3.276   1.821  0.2417  0.4993 -0.3687
    4MOL   C149 1115   3.771   3.129   1.840 -1.1118 -0.1618 -0.9857
    4MOL   C150 1116   3.637   3.086   1.797 -0.0981 -0.2880  0.3600
    4MOL   C151 1117   4.121   3.324   1.994 -0.3360 -0.6958 -0.4177
    4MOL   H152 1118   3.934   3.240   2.041  1.3609  0.8469  1.4572
    4MOL   H153 1119   3.719   3.337   1.877  1.8976  1.9591  0.2150
    4MOL   H154 1120   3.788   3.290   1.713 -0.3254 -1.6546 -0.6468
    4MOL   H155 1121   3.770   3.113   1.948 -5.4739  0.7291 -0.8264
    4MOL   H156 1122   3.858   3.083   1.792  0.6064  0.1486  1.7205
    4MOL   H157 1123   3.566   3.166   1.817 -0.9571 -0.9442 -0.0102
    4MOL   H158 1124   3.600   2.988   1.826 -1.3343  0.3210  0.8875
    4MOL   H159 1125   3.649   3.082   1.689  0.6315 -0.1580  0.4299
    4MOL   H160 1126   4.141   3.430   1.973 -1.3994 -0.3428  0.2935
    4MOL   H161 1127   4.146   3.301   2.098 -0.5191 -1.4403 -0.5417
    4MOL   C162 1128   4.207   3.225   1.915  1.0540 -0.0332 -0.3402
    4MOL   O163 1129   4.339   3.223   1.946  0.0399  0.7040 -0.6924
    4MOL   C164 1130   4.409   3.341   1.912  0.6472  0.0673  0.2601
    4MOL   C165 1131   4.540   3.338   1.988  1.3241  0.9455 -0.0240
    4MOL   C166 1132   4.621   3.211   1.958 -0.4400  0.2090 -0.1310
    4MOL   C167 1133   4.148   3.083   1.931 -1.1493  0.2481 -0.4842
    4MOL   H168 1134   4.201   3.258   1.812  1.7540  0.7990 -0.1187
    4MOL   H169 1135   4.440   3.332   1.807  1.0036 -2.3579  0.5456
    4MOL   H170 1136   4.366   3.439   1.932 -0.7612 -0.3241 -0.7388
    4MOL   H171 1137   4.519   3.339   2.095  1.3027  0.1985 -0.0139
    4MOL   H172 1138   4.589   3.433   1.969 -1.6623  2.2560 -1.4116
    4MOL   H173 1139   4.652   3.206   1.854  4.0757  1.8142  1.0012
    4MOL   H174 1140   4.577   3.117   1.991  1.5735 -0.4747  0.6632
    4MOL   H175 1141   4.714   3.218   2.014 -0.0387  2.7904 -1.0765
    4MOL   H176 1142   4.162   3.046   2.033  0.0605 -0.0889 -0.7704
    4MOL   H177 1143   4.039   3.080   1.925 -1.3683  1.0404  2.1112
    4MOL   C178 1144   4.197   2.987   1.817 -0.1374  0.0103 -0.0736
    4MOL   O179 1145   4.151   2.850   1.853  0.2892  0.0748 -0.2295
    4MOL   C180 1146   4.229   2.752   1.781  0.0527 -0.9085  0.1334
    4MOL   C181 1147   4.149   2.614   1.761 -0.2386  0.6299 -0.5058
    4MOL   C182 1148   4.060   2.614   1.632  0.4603 -0.6764  0.0481
    4MOL   C183 1149   4.152   3.030   1.676 -0.0283  0.1552 -0.0325
    4MOL   H184 1150   4.305   2.978   1.827 -0.6388 -1.6892  5.1732
    4MOL   H185 1151   4.245   2.790   1.680  4.0893  0.2833  1.1450
    4MOL   H186 1152   4.329   2.742   1.823 -1.4682  1.4125  4.6220
    4MOL   H187 1153   4.080   2.623   1.845 -0.8503  1.5899 -1.1122
    4MOL   H188 1154   4.209   2.522   1.763 -0.7098  0.2603 -2.5782
    4MOL   H189 1155   4.015   2.711   1.610 -1.4780 -1.5687 -0.0329
    4MOL   H190 1156   3.984   2.538   1.650 -1.1806  1.5237  2.8234
    4MOL   H191 1157   4.122   2.586   1.547  1.4570 -2.4084  1.3016
    4MOL   H192 1158   4.109   2.944   1.623 -1.4759  1.6282 -1.3012
    4MOL   H193 1159   4.068   3.098   1.691 -1.3101 -1.4928  0.4734
    4MOL   C194 1160   4.274   3.079   1.581 -0.1114  0.3756 -0.7017
    4MOL   O195 1161   4.367   2.969   1.562  0.3363 -0.1840  0.0577
    4MOL   C196 1162   4.496   3.012   1.532  0.3539 -0.2413  0.5853
    4MOL   C197 1163   4.570   2.880   1.554  0.6230 -0.3853 -0.3964
    4MOL   C198 1164   4.528   2.762   1.457  0.0682  0.5388  0.0070
    4MOL   C199 1165   4.217   3.124   1.438  0.4270  0.2308  0.0302
    4MOL   H200 1166   4.324   3.158   1.636 -2.3216  0.7087  0.8937
    4MOL   H201 1167   4.516   3.053   1.433  0.5302 -0.6800  0.4335
    4MOL   H202 1168   4.537   3.086   1.601  2.0856  0.3658 -1.0424
    4MOL   H203 1169   4.553   2.848   1.656  1.9216  0.9948  0.2588
    4MOL   H204 1170   4.678   2.890   1.541  0.9176 -1.7675  0.9189
    4MOL   H205 1171   4.583   2.671   1.483  0.4723  0.7364 -0.1513
    4MOL   H206 1172   4.537   2.782   1.350 -1.8152 -2.0663 -0.7069
    4MOL   H207 1173   4.425   2.729   1.467  1.2177 -3.6391 -0.6819
    4MOL   H208 1174   4.302   3.147   1.374  1.1053 -0.4869  0.6760
    4MOL   H209 1175   4.170   3.038   1.390 -1.1223 -0.0155  1.9090
    4MOL   C210 1176   4.117   3.230   1.449  0.4231 -0.1069 -0.0517
    4MOL   O211 1177   4.178   3.348   1.503 -0.2025 -0.3120  0.1987
    4MOL   C212 1178   4.089   3.433   1.586 -0.4112  0.4658  0.6489
    4MOL   C213 1179   4.119   3.589   1.570  0.0115  0.4997 -0.4744
    4MOL   C214 1180   4.235   3.628   1.654 -0.1109  0.3121 -0.2374
    4MOL   C215 1181   4.052   3.286   1.323 -0.1651 -0.5265  0.1156
    4MOL   H216 1182   4.036   3.193   1.511 -0.6282  1.2240 -0.5991
    4MOL   H217 1183   3.988   3.420   1.547  0.2499  0.5009 -1.1114
    4MOL   H218 1184   4.080   3.398   1.689 -1.7401 -2.1159 -0.3047
    4MOL   H219 1185   4.033   3.652   1.592 -1.0705 -0.7127 -1.1205
    4MOL   H220 1186   4.123   3.603   1.462 -0.6411  0.1329 -0.5496
    4MOL   H221 1187   4.323   3.602   1.595 -0.9507 -0.9377 -0.9453
    4MOL   H222 1188   4.229   3.570   1.746  0.6329  0.5945 -0.0041
    4MOL   H223 1189   4.241   3.737   1.662 -1.4850  0.4117 -0.4668
    4MOL   H224 1190   3.969   3.348   1.357  0.2263 -0.4449  0.9257
    4MOL   H225 1191   4.116   3.356   1.268 -2.3370  2.0942  0.8215
    4MOL   C226 1192   3.981   3.183   1.230 -0.0729 -0.6846 -0.1982
    4MOL   O227 1193   3.878   3.128   1.307 -0.4375 -1.0260  0.9942
    4MOL   C228 1194   3.827   3.009   1.251  0.2203  0.1179 -0.3102
    4MOL   C229 1195   3.733   2.947   1.356 -0.0855  0.0574 -0.1349
    4MOL   C230 1196   3.801   2.885   1.477 -0.3261  0.4234 -0.1745
    4MOL   C231 1197   3.916   3.261   1.107 -0.2118  0.4394 -0.0920
    4MOL   H232 1198   4.063   3.121   1.194  1.4769  0.6937  0.8991
    4MOL   H233 1199   3.770   3.042   1.164  1.4272  1.6476 -0.5386
    4MOL   H234 1200   3.904   2.936   1.228  0.9217  0.7518  0.0200
    4MOL   H235 1201   3.688   2.859   1.310  0.7139  0.2820 -1.4026
    4MOL   H236 1202   3.663   3.022   1.391  0.5325 -0.1730  1.6309
    4MOL   H237 1203   3.728   2.824   1.530 -0.8527  1.0934 -0.1204
    4MOL   H238 1204   3.839   2.968   1.538  0.5796  0.8275 -1.2781
    4MOL   H239 1205   3.889   2.830   1.445 -0.4519  1.3326 -2.1336
    4MOL   H240 1206   3.827   3.218   1.062  0.5272 -0.0204 -1.1411
    4MOL   H241 1207   3.877   3.355   1.145 -0.0272  0.3930  0.2183
    4MOL   C242 1208   4.023   3.297   0.999  0.0929 -0.1548  0.4737
    4MOL   O243 1209   4.002   3.193   0.905 -0.6443  0.2267  0.2732
    4MOL   C244 1210   4.109   3.105   0.900  0.0791  0.3429 -0.6698
    4MOL   C245 1211   4.073   3.001   0.792 -1.1768 -0.3369 -0.2110
    4MOL   C246 1212   4.064   3.058   0.654  0.2652  0.4939 -0.0889
    4MOL   C247 1213   4.005   3.433   0.930  0.0148  0.2045 -0.2901
    4MOL   H248 1214   4.124   3.285   1.039  0.0927 -1.6813  0.0419
    4MOL   H249 1215   4.206   3.151   0.878  0.0969  1.8381  2.2981
    4MOL   H250 1216   4.120   3.051   0.995 -0.7222  2.2316  0.5100
    4MOL   H251 1217   3.975   2.959   0.815 -1.0100 -0.0480  1.0239
    4MOL   H252 1218   4.147   2.921   0.793 -0.1392  0.6221  0.4476
    4MOL   H253 1219   3.981   3.129   0.649  0.5172  0.8133  0.1936
    4MOL   H254 1220   4.027   2.980   0.587 -1.4883  0.8723  0.4241
    4MOL   H255 1221   4.155   3.095   0.607 -0.1422 -0.9018 -2.0627
    4MOL   H256 1222   4.070   3.445   0.844  0.9390 -0.1613  0.3566
    4MOL   H257 1223   3.908   3.448   0.881  0.8326  0.4220 -1.8883
    4MOL   C258 1224   4.024   3.562   1.019 -0.0319 -0.2763 -0.3584
    4MOL   O259 1225   4.164   3.591   1.046  0.7285 -0.5135 -0.4617
    4MOL   C260 1226   4.177   3.666   1.168  0.1370  0.1064  0.2310
    4MOL   C261 1227   4.329   3.684   1.186  0.2364  0.0464  0.2176
    4MOL   C262 1228   4.384   3.742   1.320 -0.1789 -0.2126 -0.3700
    4MOL   C263 1229   3.969   3.700   0.962  0.4951  0.0496 -0.5494
    4MOL   H264 1230   3.966   3.548   1.110  0.8945  1.0897  0.4569
    4MOL   H265 1231   4.136   3.767   1.171  0.9386  0.4018  1.7843
    4MOL   H266 1232   4.141   3.601   1.249  0.1987  1.1511  1.1042
    4MOL   H267 1233   4.370   3.733   1.097 -1.4808 -0.6303 -0.9770
    4MOL   H268 1234   4.369   3.583   1.188 -0.0805 -0.1110 -0.9736
    4MOL   H269 1235   4.482   3.789   1.305  0.3400 -1.9021 -2.4443
    4MOL   H270 1236   4.419   3.656   1.379 -1.5176  1.3538  2.8623
    4MOL   H271 1237   4.308   3.806   1.365 -1.3978 -1.5560 -0.4955
    4MOL   H272 1238   3.863   3.683   0.938 -0.1818  0.7033  1.8999
    4MOL   H273 1239   3.950   3.772   1.041 -2.5815 -0.8218 -0.4251
    4MOL   C274 1240   4.035   3.757   0.835 -0.1596 -0.0033  0.4505
    4MOL   O275 1241   3.934   3.801   0.740  0.2663  0.4278  0.5510
    4MOL   C276 1242   3.894   3.699   0.654  0.0017 -0.4865  0.6980
    4MOL   C277 1243   3.789   3.767   0.559  0.3515  0.3287 -0.2498
    4MOL   C278 1244   3.843   3.872   0.466 -0.3094  0.6171  0.2638
    4MOL   C279 1245   4.122   3.885   0.849  0.4073  0.4547  0.7644
    4MOL   H280 1246   4.094   3.679   0.787  0.5614  0.9715 -0.2628
    4MOL   H281 1247   3.973   3.654   0.594 -0.5100  1.3415 -1.3831
    4MOL   H282 1248   3.835   3.617   0.696 -2.0125  0.3398 -0.4457
    4MOL   H283 1249   3.717   3.815   0.625  2.3385  0.1440  2.1081
    4MOL   H284 1250   3.740   3.684   0.507 -0.4812  0.6017  0.0984
    4MOL   H285 1251   3.775   3.904   0.387 -2.0056 -0.2323  1.3328
    4MOL   H286 1252   3.931   3.836   0.413 -0.8935 -0.7791  0.2157
    4MOL   H287 1253   3.871   3.953   0.534 -0.2613 -0.0770  1.0789
    4MOL   H288 1254   4.051   3.949   0.901 -0.4442  0.6854 -0.6428
    4MOL   H289 1255   4.203   3.857   0.916  2.2578 -0.4170 -1.7639
    4MOL   C290 1256   4.167   3.947   0.716  0.0281 -0.2313 -0.5432
    4MOL   O291 1257   4.198   4.088   0.741 -0.0052 -0.4367 -0.6043
    4MOL   C292 1258   4.083   4.173   0.743  0.0766 -0.2581 -0.2683
    4MOL   C293 1259   4.121   4.294   0.829  0.2766  0.1443  0.3268
    4MOL   C294 1260   4.002   4.389   0.851  0.0467 -0.2433  0.2282
    4MOL   C295 1261   4.291   3.869   0.662 -0.3477 -0.1937  0.2805
    4MOL   H296 1262   4.085   3.950   0.644  0.0853  0.7808 -0.5688
    4MOL   H297 1263   4.068   4.201   0.638 -1.4410 -1.6968 -0.4531
    4MOL   H298 1264   3.996   4.123   0.787  0.1935 -0.5610 -0.3814
    4MOL   H299 1265   4.204   4.352   0.789 -0.2062  1.2319  0.8908
    4MOL   H300 1266   4.162   4.249   0.919  2.6790  1.5342 -0.0255
    4MOL   H301 1267   4.035   4.473   0.914 -2.5298  2.0083 -1.3217
    4MOL   H302 1268   3.906   4.356   0.889 -0.7113  1.6212  0.0039
    4MOL   H303 1269   3.982   4.430   0.752 -1.1524 -0.4161  0.3980
    4MOL   H304 1270   4.365   3.861   0.742 -0.7305  0.3948  0.6942
    4MOL   H305 1271   4.260   3.768   0.634  0.0049  0.0418 -0.9891
    4MOL   C306 1272   4.358   3.931   0.531 -0.1131  0.3926 -0.0529
    4MOL   O307 1273   4.456   3.844   0.479 -0.3657  0.3933  0.4179
    4MOL   C308 1274   4.588   3.858   0.533 -0.0908 -0.0241 -0.8645
    4MOL   C309 1275   4.666   3.728   0.505  0.1810  0.4873 -1.2334
    4MOL   C310 1276   4.814   3.735   0.536  0.0226 -0.6436  0.5959
    4MOL   C311 1277   4.271   3.970   0.413 -0.5012  0.9070 -0.1002
    4MOL   H312 1278   4.401   4.025   0.565 -1.2812  1.0984 -0.4944
    4MOL   H313 1279   4.627   3.947   0.484  0.1041  1.5493  2.0073
    4MOL   H314 1280   4.578   3.881   0.639 -1.8551  1.6321 -1.3732
    4MOL   H315 1281   4.657   3.684   0.406 -0.6802 -1.2917 -0.3861
    4MOL   H316 1282   4.609   3.662   0.570  3.1086 -1.0606 -0.1490
    4MOL   H317 1283   4.843   3.630   0.536  3.2280  0.1838  1.5518
    4MOL   H318 1284   4.818   3.781   0.635 -0.5238 -0.5480  0.5752
    4MOL   H319 1285   4.860   3.811   0.472 -0.0086  0.5473  1.9519
    4MOL   H320 1286   4.193   4.040   0.444 -1.7713 -0.6791  0.3597
    4MOL   H321 1287   4.332   4.020   0.337  1.4257 -5.5789 -3.1614
    4MOL   H322 1288   4.225   3.888   0.358 -0.0658  0.4484  0.2180
    5MOL     C1 1289   1.589   6.332   1.803  0.6873 -0.2259  0.1801
    5MOL     O2 1290   1.714   6.393   1.816  0.1947  0.5650 -0.5517
    5MOL     C3 1291   1.799   6.332   1.914  0.4552 -0.0072 -0.1506
    5MOL     C4 1292   1.925   6.421   1.913  0.1401  0.3314 -0.6141
    5MOL     C5 1293   2.015   6.378   2.032 -0.2737 -0.3476  0.4148
    5MOL     C6 1294   1.510   6.418   1.699 -0.1383 -0.2288 -0.4123
    5MOL     H7 1295   1.532   6.346   1.895 -2.4265  0.3442 -1.7385
    5MOL     H8 1296   1.738   6.348   2.003  0.1577  2.8489 -0.8435
    5MOL     H9 1297   1.811   6.226   1.891 -0.7478 -0.2192  0.1531
    5MOL    H10 1298   1.894   6.526   1.919 -0.1342  0.1669  0.9336
    5MOL    H11 1299   1.978   6.397   1.821  1.3219 -1.6684  0.5563
    5MOL    H12 1300   2.056   6.278   2.026  1.6094  0.5271 -2.0530
    5MOL    H13 1301   1.956   6.393   2.123  1.6355 -0.6308  1.7172
    5MOL    H14 1302   2.100   6.442   2.055  0.7472 -1.6485  0.2841
    5MOL    H15 1303   1.508   6.525   1.718  0.4954 -0.4092  0.6829
    5MOL    H16 1304   1.564   6.409   1.604 -0.0615  0.7148 -0.4591
    5MOL    H17 1305   1.610   6.231   1.770 -1.1283 -0.8884  0.9544
    5MOL    C18 1306   1.355   6.393   1.682  0.1619 -0.2013  0.0265
    5MOL    O19 1307   1.330   6.254   1.650  0.0915 -0.9495  0.2930
    5MOL    C20 1308   1.375   6.215   1.524  0.0605 -0.9335  0.0062
    5MOL    C21 1309   1.346   6.066   1.502  0.0114  0.6832 -0.0692
    5MOL    C22 1310   1.376   5.969   1.627 -0.2494 -0.0059  0.3662
    5MOL    C23 1311   1.272   6.428   1.805  0.4402  0.4856 -0.6649
    5MOL    H24 1312   1.314   6.455   1.602 -3.0469 -1.0450  0.9319
    5MOL    H25 1313   1.329   6.277   1.447  1.1464  1.5626  1.2871
    5MOL    H26 1314   1.483   6.232   1.524 -0.1786  0.7321  1.6967
    5MOL    H27 1315   1.402   6.034   1.414 -1.0374  1.5287 -1.0635
    5MOL    H28 1316   1.240   6.057   1.481  0.2656 -0.1996 -1.0747
    5MOL    H29 1317   1.478   5.991   1.659  0.5332 -0.6047 -1.6421
    5MOL    H30 1318   1.367   5.867   1.588  0.4497  0.6575 -1.5897
    5MOL    H31 1319   1.312   5.993   1.711 -1.8420 -0.9564 -0.5430
    5MOL    H32 1320   1.299   6.360   1.886 -3.4425 -0.4432 -0.0396
    5MOL    H33 1321   1.295   6.530   1.835 -0.7041  1.1235 -1.8770
    5MOL    C34 1322   1.126   6.410   1.793 -0.0874 -0.1213  0.6588
    5MOL    O35 1323   1.082   6.358   1.920  0.0352  0.2739 -0.1357
    5MOL    C36 1324   0.990   6.245   1.908  0.9490 -0.9305  0.6141
    5MOL    C37 1325   1.045   6.106   1.852  0.4736 -0.4153 -1.0840
    5MOL    C38 1326   0.924   6.019   1.808 -0.4312  0.2999  0.0480
    5MOL    C39 1327   1.039   6.540   1.760 -0.2587  0.1015 -0.3282
    5MOL    H40 1328   1.096   6.333   1.723 -0.2100  0.6019 -0.0942
    5MOL    H41 1329   0.936   6.232   2.002 -0.4463 -1.5199 -0.2550
    5MOL    H42 1330   0.911   6.280   1.841  1.1797 -1.8167 -0.1234
    5MOL    H43 1331   1.094   6.052   1.933  1.7072  0.4190 -1.2589
    5MOL    H44 1332   1.114   6.108   1.768  1.3616  0.1430 -0.3523
    5MOL    H45 1333   0.964   5.928   1.763 -0.4443 -0.5202  1.6504
    5MOL    H46 1334   0.872   6.066   1.725  1.1692  3.3614  0.6886
    5MOL    H47 1335   0.858   5.999   1.892 -0.3750  2.3890  0.6231
    5MOL    H48 1336   0.934   6.512   1.770  0.3200 -2.3192 -0.5668
    5MOL    H49 1337   1.064   6.612   1.837 -0.0290 -0.1402 -0.1763
    5MOL    C50 1338   1.043   6.611   1.627 -0.0933 -0.8173 -0.4429
    5MOL    O51 1339   0.965   6.532   1.536 -0.0272 -0.0833  0.1061
    5MOL    C52 1340   1.050   6.455   1.452  0.2060 -0.5917  0.4125
    5MOL    C53 1341   0.996   6.460   1.311 -0.5371  0.1370  0.3239
    5MOL    C54 1342   1.092   6.393   1.205  0.2039  0.3143 -0.1345
    5MOL    C55 1343   0.970   6.749   1.636  0.1799 -0.6432 -0.3207
    5MOL    H56 1344   1.146   6.633   1.598 -0.2861  2.0922  0.9412
    5MOL    H57 1345   1.156   6.477   1.444 -0.0776  0.5186 -0.3900
    5MOL    H58 1346   1.047   6.353   1.492 -2.6200  0.2180  2.4168
    5MOL    H59 1347   0.997   6.563   1.277 -0.3757 -0.0296 -0.1896
    5MOL    H60 1348   0.896   6.418   1.301 -0.2974 -0.6862  1.2554
    5MOL    H61 1349   1.076   6.287   1.187  0.4315 -0.1400  2.1936
    5MOL    H62 1350   1.198   6.409   1.227  0.2917  1.2381 -1.1942
    5MOL    H63 1351   1.070   6.443   1.111  0.0828  0.2814 -0.1235
    5MOL    H64 1352   0.975   6.791   1.535  1.7098  2.5156  0.9972
    5MOL    H65 1353   0.864   6.741   1.658 -0.0456  1.7616 -0.4661
    5MOL    C66 1354   1.043   6.861   1.721  0.0650 -1.1361  0.1083
    5MOL    O67 1355   1.165   6.894   1.639 -0.0760 -0.5539  0.1321
    5MOL    C68 1356   1.263   6.938   1.735 -0.4376 -0.1559 -0.1500
    5MOL    C69 1357   1.391   6.986   1.659 -0.1649  0.5620 -0.3193
    5MOL    C70 1358   1.363   7.119   1.592 -0.2833 -0.5819 -0.3484
    5MOL    C71 1359   0.965   6.992   1.740  0.3851  0.2724 -0.0105
    5MOL    H72 1360   1.074   6.823   1.818  2.5053  1.5249  0.4411
    5MOL    H73 1361   1.228   7.026   1.789  1.4483  0.9216 -0.6212
    5MOL    H74 1362   1.289   6.857   1.803 -0.0091 -0.1121 -0.2576
    5MOL    H75 1363   1.405   6.917   1.576 -0.5299  0.8471 -0.6170
    5MOL    H76 1364   1.485   6.991   1.714  0.9929  1.5843 -2.3232
    5MOL    H77 1365   1.264   7.122   1.545  0.2492  1.3849 -1.4155
    5MOL    H78 1366   1.433   7.144   1.513 -0.5583 -1.5071 -0.8995
    5MOL    H79 1367   1.364   7.205   1.658 -2.2147 -0.7680 -0.0261
    5MOL    H80 1368   1.019   7.056   1.809  0.2611  1.0094 -0.6002
    5MOL    H81 1369   0.970   7.031   1.639  1.1683 -2.5352 -1.1200
    5MOL    C82 1370   0.835   6.978   1.811  0.4275 -1.4502  0.7445
    5MOL    O83 1371   0.876   6.916   1.928  0.6820 -0.3581  0.1275
    5MOL    C84 1372   0.772   6.831   1.970 -0.2528  0.3604 -0.4768
    5MOL    C85 1373   0.813   6.781   2.110 -0.4280  0.2461  0.4015
    5MOL    C86 1374   0.792   6.878   2.218  1.0257  0.1535  0.1349
    5MOL    C87 1375   0.761   7.110   1.840  0.3470  0.0178  1.0801
    5MOL    H88 1376   0.763   6.918   1.755  1.3169 -2.0632  0.2607
    5MOL    H89 1377   0.677   6.883   1.971  0.4766  1.7285  1.3742
    5MOL    H90 1378   0.769   6.742   1.908 -0.0276 -0.3775  0.5653
    5MOL    H91 1379   0.917   6.749   2.121  0.1502  1.8726 -0.1985
    5MOL    H92 1380   0.745   6.700   2.138  0.0813 -0.9501 -1.7528
    5MOL    H93 1381   0.690   6.908   2.240  1.1855 -0.1610  1.3628
    5MOL    H94 1382   0.841   6.975   2.206  0.7849  0.4660  1.5503
    5MOL    H95 1383   0.834   6.845   2.314  2.2833 -0.1459 -0.5005
    5MOL    H96 1384   0.691   7.074   1.915  0.1717 -1.3483  0.2845
    5MOL    H97 1385   0.836   7.180   1.878  0.7053  1.6077 -2.4198
    5MOL    C98 1386   0.672   7.168   1.727  0.2943 -0.1611  0.1550
    5MOL    O99 1387   0.582   7.061   1.679 -0.8217 -0.7558 -0.0704
    5MOL   C100 1388   0.599   7.028   1.540 -0.6740 -0.0358 -0.6657
    5MOL   C101 1389   0.507   6.919   1.507 -0.8162 -0.4759  0.1799
    5MOL   C102 1390   0.525   6.787   1.577 -0.3835 -0.4862  0.4130
    5MOL   C103 1391   0.587   7.289   1.779  0.0815  0.1986 -0.2525
    5MOL   H104 1392   0.741   7.196   1.648  0.4202 -3.7088 -1.0746
    5MOL   H105 1393   0.589   7.114   1.474  1.4853  0.6052 -0.1972
    5MOL   H106 1394   0.700   6.997   1.511 -0.1608  4.1064 -3.6088
    5MOL   H107 1395   0.511   6.901   1.400 -1.8323 -2.3264  0.4325
    5MOL   H108 1396   0.405   6.949   1.531 -0.8185  2.0742 -2.7560
    5MOL   H109 1397   0.612   6.731   1.541  0.0673 -0.2785  1.1751
    5MOL   H110 1398   0.446   6.715   1.554 -1.8093  1.0400  0.4791
    5MOL   H111 1399   0.513   6.792   1.685 -0.0679 -0.3556  0.4430
    5MOL   H112 1400   0.530   7.241   1.858  1.2677 -1.2544 -0.2630
    5MOL   H113 1401   0.654   7.362   1.825  0.4556 -0.1373 -0.2617
    5MOL   C114 1402   0.513   7.369   1.669 -0.0325  0.7024  0.4485
    5MOL   O115 1403   0.384   7.382   1.726  0.0604 -0.1416  0.5731
    5MOL   C116 1404   0.292   7.272   1.713  0.1328  0.2257 -0.5886
    5MOL   C117 1405   0.150   7.322   1.758 -0.6013 -0.2571  0.1139
    5MOL   C118 1406   0.158   7.383   1.905  0.7466  0.4367  0.7603
    5MOL   C119 1407   0.570   7.513   1.634 -0.3569 -0.6119  1.0896
    5MOL   H120 1408   0.503   7.310   1.578  1.2524 -2.1372  2.0864
    5MOL   H121 1409   0.289   7.263   1.604 -0.3013  1.7369 -0.7062
    5MOL   H122 1410   0.323   7.172   1.744  0.6219 -0.0455 -1.8961
    5MOL   H123 1411   0.088   7.233   1.765 -0.4814 -0.4061 -0.6749
    5MOL   H124 1412   0.102   7.395   1.692 -0.3638  0.1854  0.4279
    5MOL   H125 1413   0.058   7.402   1.942 -0.5486 -2.8213 -0.8431
    5MOL   H126 1414   0.218   7.474   1.907  1.4727 -0.0420  1.0966
    5MOL   H127 1415   0.201   7.308   1.971 -1.0248 -2.2330 -1.0019
    5MOL   H128 1416   0.497   7.559   1.567  0.2480  1.2799  1.7053
    5MOL   H129 1417   0.568   7.568   1.728  1.4432  2.6320 -0.6620
    5MOL   C130 1418   0.710   7.507   1.569  0.1369 -0.1170 -0.4374
    5MOL   O131 1419   0.814   7.470   1.661  0.2342  0.2059  0.1472
    5MOL   C132 1420   0.856   7.582   1.742 -0.2520  0.6518 -0.0001
    5MOL   C133 1421   0.930   7.542   1.867  0.4104  0.4546  0.5863
    5MOL   C134 1422   0.950   7.660   1.964  0.4134 -0.4368  0.1344
    5MOL   C135 1423   0.732   7.417   1.446  0.1459  0.6154 -1.2301
    5MOL   H136 1424   0.714   7.613   1.545  0.4325 -0.4616 -1.9540
    5MOL   H137 1425   0.927   7.642   1.684  0.5155 -0.2512 -0.0058
    5MOL   H138 1426   0.773   7.648   1.767 -0.5642 -0.3985  1.8610
    5MOL   H139 1427   1.025   7.493   1.847  0.0958 -0.8204  2.1282
    5MOL   H140 1428   0.874   7.460   1.912  2.5731 -1.6372 -0.4643
    5MOL   H141 1429   1.016   7.630   2.046 -0.4645  1.0941  1.4471
    5MOL   H142 1430   0.855   7.693   2.008  1.6879  1.8260  1.2545
    5MOL   H143 1431   0.984   7.752   1.917  0.1269 -1.2578 -1.6929
    5MOL   H144 1432   0.754   7.313   1.469 -2.3270  0.6176  1.4436
    5MOL   H145 1433   0.626   7.410   1.421  0.0632  0.3941 -0.8096
    5MOL   C146 1434   0.783   7.480   1.314  0.5161  0.4486  0.0239
    5MOL   O147 1435   0.929   7.467   1.305 -0.3084  0.2559 -0.0213
    5MOL   C148 1436   1.005   7.557   1.378  0.0399  0.1815 -0.1299
    5MOL   C149 1437   1.151   7.520   1.362 -0.0571 -0.7808  0.5177
    5MOL   C150 1438   1.199   7.387   1.419 -0.5161  0.3485  0.2960
    5MOL   C151 1439   0.728   7.397   1.193  0.3751 -0.4955  0.1392
    5MOL   H152 1440   0.751   7.585   1.310  0.1776  0.3238 -0.5688
    5MOL   H153 1441   0.988   7.659   1.344 -1.6490 -0.1115 -0.2012
    5MOL   H154 1442   0.999   7.536   1.485  2.4515 -0.3198 -0.0624
    5MOL   H155 1443   1.214   7.601   1.400 -0.1123 -1.0247  1.1274
    5MOL   H156 1444   1.173   7.512   1.255 -1.7557  4.4353 -0.3978
    5MOL   H157 1445   1.122   7.310   1.407 -0.8481  0.8558 -0.9570
    5MOL   H158 1446   1.238   7.390   1.521  1.1630 -0.4241 -0.3120
    5MOL   H159 1447   1.288   7.349   1.370  0.5360  0.2029  2.2466
    5MOL   H160 1448   0.795   7.312   1.176  0.9509  0.0257 -0.1959
    5MOL   H161 1449   0.632   7.355   1.224  0.7638 -1.7104 -0.2917
    5MOL   C162 1450   0.713   7.468   1.060  0.1929 -0.2129  0.2597
    5MOL   O163 1451   0.649   7.586   1.084 -0.3090  0.1195 -0.0923
    5MOL   C164 1452   0.505   7.581   1.096  0.4932  0.1304 -0.6352
    5MOL   C165 1453   0.440   7.716   1.071  0.4091  0.3017  0.3088
    5MOL   C166 1454   0.506   0.001   1.157 -0.1594 -0.4405 -0.0795
    5MOL   C167 1455   0.854   7.497   0.999 -0.2856  0.3868  0.4539
    5MOL   H168 1456   0.652   7.415   0.987 -0.0243  3.2216 -2.2040
    5MOL   H169 1457   0.462   7.520   1.017  1.0070 -0.6625 -0.3119
    5MOL   H170 1458   0.480   7.526   1.187  1.3357  0.5899 -0.1105
    5MOL   H171 1459   0.334   7.714   1.098  0.1330  2.9603 -0.4580
    5MOL   H172 1460   0.442   7.733   0.964 -3.0629 -2.0338 -0.2114
    5MOL   H173 1461   0.611   0.017   1.134 -0.1505 -1.6230 -0.9272
    5MOL   H174 1462   0.501   7.800   1.262  2.8394 -0.3384  0.1307
    5MOL   H175 1463   0.446   0.091   1.150 -1.0109 -1.0401 -0.5797
    5MOL   H176 1464   0.823   7.573   0.927 -2.0375 -1.0763 -0.3563
    5MOL   H177 1465   0.927   7.551   1.060 -2.0847  2.0403  1.1915
    5MOL   C178 1466   0.921   7.379   0.924  0.0004  0.2726 -0.0987
    5MOL   O179 1467   0.835   7.330   0.819 -0.1401  0.2949  0.4682
    5MOL   C180 1468   0.856   7.191   0.787  0.1324  0.0352 -0.0069
    5MOL   C181 1469   0.726   7.162   0.723 -0.2857 -0.0281 -0.1649
    5MOL   C182 1470   0.611   7.129   0.820 -0.1615  0.7618  0.4001
    5MOL   C183 1471   1.061   7.418   0.866 -0.2448  0.5661 -0.4739
    5MOL   H184 1472   0.936   7.300   0.998 -1.1236  1.1127  1.0404
    5MOL   H185 1473   0.938   7.189   0.715  0.1479  4.0077 -0.2215
    5MOL   H186 1474   0.879   7.130   0.875  1.2070 -0.1188 -0.3816
    5MOL   H187 1475   0.721   7.073   0.659  0.1216 -0.2554  0.1108
    5MOL   H188 1476   0.696   7.235   0.649 -1.3332  0.4699  0.7403
    5MOL   H189 1477   0.578   7.209   0.886 -1.2002  0.1174  0.6614
    5MOL   H190 1478   0.641   7.044   0.881  0.6621  0.9824  0.3106
    5MOL   H191 1479   0.522   7.097   0.766  0.1300 -1.1967  1.0281
    5MOL   H192 1480   1.071   7.475   0.773  1.5631 -2.7790 -2.4058
    5MOL   H193 1481   1.087   7.489   0.945 -0.3400  4.0435 -3.4440
    5MOL   C194 1482   1.172   7.303   0.885  0.3662  0.2397 -0.1065
    5MOL   O195 1483   1.279   7.332   0.794  0.0516 -0.0596  0.3097
    5MOL   C196 1484   1.261   7.298   0.658 -0.6814  0.1074  0.3996
    5MOL   C197 1485   1.350   7.404   0.582  0.3738 -0.5954  0.1796
    5MOL   C198 1486   1.354   7.380   0.436 -0.6085  0.7619  0.6132
    5MOL   C199 1487   1.233   7.290   1.024  0.3678  0.4045  0.4924
    5MOL   H200 1488   1.128   7.209   0.853  0.8207  0.7585 -2.3637
    5MOL   H201 1489   1.288   7.193   0.656  0.9102  0.4950  0.9732
    5MOL   H202 1490   1.157   7.303   0.624 -0.6972 -0.3670  0.3782
    5MOL   H203 1491   1.451   7.403   0.623 -0.8115  0.9758  3.3100
    5MOL   H204 1492   1.307   7.500   0.611  0.8239  0.0005 -1.1230
    5MOL   H205 1493   1.376   7.276   0.412 -2.3134  0.6535 -0.5197
    5MOL   H206 1494   1.416   7.446   0.376  0.2691 -0.2553  0.3883
    5MOL   H207 1495   1.256   7.398   0.393 -0.3254  0.2381 -0.2674
    5MOL   H208 1496   1.275   7.387   1.051 -0.3730  0.5457  1.1452
    5MOL   H209 1497   1.152   7.283   1.096  2.1449  1.8720  2.7228
    5MOL   C210 1498   1.339   7.179   1.057 -0.4457  0.1212  0.4889
    5MOL   O211 1499   1.273   7.052   1.028  0.6082 -0.5853 -0.3027
    5MOL   C212 1500   1.223   6.991   1.149  0.4657  0.4518 -0.3844
    5MOL   C213 1501   1.155   6.856   1.094 -0.1881 -0.3670  0.0838
    5MOL   C214 1502   1.244   6.750   1.036 -0.1026  0.1645 -0.4218
    5MOL   C215 1503   1.475   7.201   0.979  0.1021  0.5600 -0.3890
    5MOL   H216 1504   1.356   7.184   1.164  0.4317  0.5243  0.3307
    5MOL   H217 1505   1.294   6.973   1.230  1.1172  1.3150 -0.7613
    5MOL   H218 1506   1.152   7.071   1.174  1.1914  0.8732  0.3422
    5MOL   H219 1507   1.087   6.885   1.015 -0.0611  1.7994  0.7430
    5MOL   H220 1508   1.093   6.809   1.171  0.7513 -0.6485  0.6783
    5MOL   H221 1509   1.311   6.807   0.972  2.1631 -1.8134  0.1470
    5MOL   H222 1510   1.187   6.683   0.971 -0.8241  1.4130 -1.0974
    5MOL   H223 1511   1.304   6.690   1.103  0.9213 -0.4208 -1.8329
    5MOL   H224 1512   1.455   7.215   0.873  1.3344  1.7274 -0.4801
    5MOL   H225 1513   1.532   7.283   1.022  1.4282 -0.0354 -0.9511
    5MOL   C226 1514   1.576   7.087   0.996 -0.7797  0.3210 -0.2242
    5MOL   O227 1515   1.693   7.121   0.917  0.1492  0.5968 -0.4602
    5MOL   C228 1516   1.723   7.033   0.806 -0.1385 -0.6501  0.5200
    5MOL   C229 1517   1.853   7.086   0.731  0.3957  0.4758 -0.6366
    5MOL   C230 1518   1.838   7.220   0.657  0.0144 -0.5505 -0.5794
    5MOL   C231 1519   1.617   7.063   1.145 -0.3265 -0.0847  0.1953
    5MOL   H232 1520   1.534   6.990   0.971 -0.4838 -0.0789  0.8044
    5MOL   H233 1521   1.732   6.932   0.848 -0.8966 -0.2521  1.6570
    5MOL   H234 1522   1.638   7.033   0.738 -0.0064 -0.3134  0.3582
    5MOL   H235 1523   1.861   7.015   0.648  0.0177  1.2569 -1.3533
    5MOL   H236 1524   1.940   7.071   0.794 -1.1165 -1.6588  1.0097
    5MOL   H237 1525   1.845   7.306   0.724  2.1730  0.7688 -2.4428
    5MOL   H238 1526   1.738   7.220   0.614  1.3452  2.5109 -3.9174
    5MOL   H239 1527   1.911   7.243   0.580  0.0444  1.8849  0.1316
    5MOL   H240 1528   1.526   7.042   1.202  0.0059 -0.8304  0.4597
    5MOL   H241 1529   1.667   6.966   1.149 -0.5284 -0.1521  1.7275
    5MOL   C242 1530   1.692   7.181   1.213  0.1401  1.0564 -0.3319
    5MOL   O243 1531   1.596   7.284   1.257 -0.2364 -0.5921 -0.3877
    5MOL   C244 1532   1.642   7.413   1.287 -0.3267  0.7255 -0.0646
    5MOL   C245 1533   1.525   7.493   1.334  0.7227  0.1342  0.9251
    5MOL   C246 1534   1.560   7.634   1.381  0.0761  0.9946 -0.2524
    5MOL   C247 1535   1.775   7.139   1.338  0.1026 -0.4396  0.5135
    5MOL   H248 1536   1.751   7.217   1.128 -1.0447 -2.3886 -2.7362
    5MOL   H249 1537   1.711   7.416   1.372  0.6487  0.5372 -0.8425
    5MOL   H250 1538   1.689   7.457   1.199 -0.4422  0.4924 -0.2432
    5MOL   H251 1539   1.484   7.429   1.412 -1.2230 -0.7940 -0.7968
    5MOL   H252 1540   1.457   7.509   1.250  0.5690 -1.1526  0.8020
    5MOL   H253 1541   1.646   7.664   1.322 -0.9919 -0.4498 -2.6389
    5MOL   H254 1542   1.582   7.646   1.487  1.0551  0.9220 -0.4508
    5MOL   H255 1543   1.468   7.692   1.366 -0.6753  0.2563  1.3281
    5MOL   H256 1544   1.813   7.229   1.386 -0.0952 -0.7024  1.1700
    5MOL   H257 1545   1.708   7.097   1.413 -1.3025 -0.5904 -0.8094
    5MOL   C258 1546   1.891   7.046   1.321 -0.7450  0.2138 -0.1883
    5MOL   O259 1547   1.996   7.106   1.250 -0.9289 -0.9160 -0.1953
    5MOL   C260 1548   2.069   7.021   1.158  0.6761 -0.2253 -0.0883
    5MOL   C261 1549   2.215   7.072   1.130 -0.6681 -0.2401 -0.2398
    5MOL   C262 1550   2.222   7.167   1.006  0.2666 -0.2074 -0.0762
    5MOL   C263 1551   1.958   6.992   1.449 -0.4018 -0.2129 -0.0176
    5MOL   H264 1552   1.859   6.957   1.268 -3.5521  1.3430 -0.4502
    5MOL   H265 1553   2.081   6.927   1.213  0.9334  0.0202  0.2740
    5MOL   H266 1554   2.005   7.002   1.071 -0.2095  1.9817  0.0614
    5MOL   H267 1555   2.285   6.988   1.128  1.8941  1.8182  0.8903
    5MOL   H268 1556   2.255   7.125   1.216 -0.0267  0.3582 -0.9007
    5MOL   H269 1557   2.184   7.131   0.910  0.7486  0.4785 -0.5234
    5MOL   H270 1558   2.313   7.226   0.994 -0.1023 -0.2219 -3.3443
    5MOL   H271 1559   2.153   7.246   1.036 -0.1046 -0.9263  1.0378
    5MOL   H272 1560   2.050   6.937   1.431 -0.5908 -0.5988  0.1688
    5MOL   H273 1561   2.004   7.077   1.498 -1.6686  0.2000  0.4611
    5MOL   C274 1562   1.870   6.917   1.551 -0.2126 -0.1841 -0.4309
    5MOL   O275 1563   1.805   6.817   1.478  0.2799 -0.0870  0.1514
    5MOL   C276 1564   1.665   6.813   1.501  0.2849  0.7609  0.7003
    5MOL   C277 1565   1.615   6.697   1.415  0.5574 -0.3342  0.0762
    5MOL   C278 1566   1.464   6.689   1.410  0.1511 -0.6700  0.6702
    5MOL   C279 1567   1.944   6.857   1.671 -0.6918 -0.3351  0.0138
    5MOL   H280 1568   1.804   6.997   1.585  0.3840 -0.0750  0.4974
    5MOL   H281 1569   1.652   6.794   1.608 -2.9838 -0.3607  0.1379
    5MOL   H282 1570   1.614   6.903   1.468  0.3255  0.5019 -0.0701
    5MOL   H283 1571   1.654   6.600   1.449 -0.1488 -0.9939 -0.9543
    5MOL   H284 1572   1.656   6.700   1.314 -0.1072  1.3672 -0.1547
    5MOL   H285 1573   1.413   6.779   1.375 -2.5563 -2.7014 -0.8402
    5MOL   H286 1574   1.419   6.670   1.507  2.6022 -1.2183  1.7469
    5MOL   H287 1575   1.432   6.608   1.345 -0.1198  0.0485 -0.1073
    5MOL   H288 1576   1.881   6.789   1.729 -0.3566 -1.4070 -0.8544
    5MOL   H289 1577   2.024   6.804   1.619  1.5091  2.0040  0.9039
    5MOL   C290 1578   2.002   6.972   1.764  0.4016 -0.3019 -0.7650
    5MOL   O291 1579   1.884   7.027   1.820 -0.1102 -0.1331  0.1818
    5MOL   C292 1580   1.895   7.167   1.863  0.1914 -0.8144 -0.5246
    5MOL   C293 1581   1.774   7.189   1.952 -0.1178 -0.0739 -0.1074
    5MOL   C294 1582   1.651   7.191   1.853  0.4172  0.0372 -0.1351
    5MOL   C295 1583   2.090   6.924   1.875 -0.3729 -0.4588  0.1951
    5MOL   H296 1584   2.051   7.048   1.704 -1.5323  1.3255 -0.3552
    5MOL   H297 1585   1.986   7.189   1.919  0.6101  0.6700 -1.7416
    5MOL   H298 1586   1.899   7.245   1.786  1.7696  0.1059  0.4504
    5MOL   H299 1587   1.789   7.292   1.986  0.7799 -0.2368 -0.0043
    5MOL   H300 1588   1.770   7.125   2.040 -0.8315  2.8231  2.0408
    5MOL   H301 1589   1.660   7.264   1.773 -0.9193 -0.8252 -1.1013
    5MOL   H302 1590   1.560   7.205   1.911 -0.6952 -1.5937 -1.4329
    5MOL   H303 1591   1.643   7.100   1.793 -1.5930 -0.6746  1.1660
    5MOL   H304 1592   2.096   7.008   1.943 -0.1249  0.5425 -1.0400
    5MOL   H305 1593   2.038   6.852   1.938  1.5844 -1.8673  0.2545
    5MOL   C306 1594   2.233   6.868   1.845 -0.0098 -0.1825  0.1915
    5MOL   O307 1595   2.299   6.867   1.972 -0.3694  0.6022 -0.9261
    5MOL   C308 1596   2.438   6.893   1.964 -0.7503 -0.9662 -0.3101
    5MOL   C309 1597   2.498   6.872   2.108  0.1443  0.3829  0.7698
    5MOL   C310 1598   2.647   6.897   2.119 -0.1515 -0.2593 -0.0183
    5MOL   C311 1599   2.237   6.728   1.784  0.0168 -0.5109  0.1262
    5MOL   H312 1600   2.292   6.942   1.791  0.6116  0.0075  1.1135
    5MOL   H313 1601   2.485   6.825   1.893 -1.0454  1.0441 -2.4822
    5MOL   H314 1602   2.463   6.992   1.926  3.4674 -2.3631 -1.5013
    5MOL   H315 1603   2.472   6.772   2.143  0.8308 -0.0748 -0.0014
    5MOL   H316 1604   2.435   6.935   2.170 -2.4282 -2.7963  1.5235
    5MOL   H317 1605   2.681   6.893   2.223  0.2737  1.3332 -0.0729
    5MOL   H318 1606   2.683   6.990   2.075  0.0711 -0.8762 -1.1441
    5MOL   H319 1607   2.691   6.809   2.073 -0.2180  0.2241 -1.0020
    5MOL   H320 1608   2.225   6.731   1.675  0.4425  0.0601  0.0972
    5MOL   H321 1609   2.339   6.690   1.794  0.3511 -0.2394 -2.0419
    5MOL   H322 1610   2.165   6.656   1.824 -0.2459 -1.0433 -1.2620
    6MOL     C1 1611   7.760   0.335   4.846  0.1923  0.7207  0.3311
    6MOL     O2 1612   7.672   0.225   4.868  0.0988 -0.4044  0.5838
    6MOL     C3 1613   7.675   0.119   4.767  0.5482  0.0189  0.3516
    6MOL     C4 1614   7.758   7.818   4.818  0.3288  0.1042 -0.0945
    6MOL     C5 1615   0.079   0.013   4.829 -0.0900 -0.6032  0.2142
    6MOL     C6 1616   7.767   0.438   4.958  0.5559 -0.0776 -0.2966
    6MOL     H7 1617   7.714   0.376   4.756  2.3476 -0.1377 -1.1917
    6MOL     H8 1618   7.577   0.083   4.735  0.2026  0.4536  0.9142
    6MOL     H9 1619   7.719   0.148   4.672  0.1558  0.6739  0.3679
    6MOL    H10 1620   7.741   7.738   4.746  1.4227 -1.4792  1.3767
    6MOL    H11 1621   7.720   7.773   4.910  2.1466 -0.6415  0.3064
    6MOL    H12 1622   0.107   0.066   4.920  1.5280 -0.9090 -0.0926
    6MOL    H13 1623   0.125   0.059   4.742  1.8420 -0.2330  1.4015
    6MOL    H14 1624   0.128   7.745   4.839  0.1287 -0.3618  1.5172
    6MOL    H15 1625   7.670   0.479   4.982  0.3165 -0.3773 -0.7403
    6MOL    H16 1626   7.815   0.395   5.046 -1.7292 -1.5791  0.2312
    6MOL    H17 1627   0.034   0.299   4.831 -0.3582 -0.7564  0.0469
    6MOL    C18 1628   0.022   0.570   4.924  0.2994 -0.2479 -0.3242
    6MOL    O19 1629   0.033   0.657   5.041  0.5750 -0.1052 -0.6121
    6MOL    C20 1630   7.746   0.746   5.067 -0.0614  0.3951  0.0502
    6MOL    C21 1631   7.746   0.799   5.211 -0.0435 -0.0900 -0.7157
    6MOL    C22 1632   7.823   0.931   5.216  0.1382  0.1322 -0.5273
    6MOL    C23 1633   0.166   0.555   4.869  0.1130  0.0089  0.7995
    6MOL    H24 1634   7.788   0.627   4.855  0.8619  0.0814 -0.5677
    6MOL    H25 1635   7.743   0.829   4.995  0.1351  0.9453  0.6722
    6MOL    H26 1636   7.654   0.691   5.049 -0.2044  0.5660  0.2607
    6MOL    H27 1637   7.790   0.724   5.277 -1.6545 -0.0185  0.4714
    6MOL    H28 1638   7.646   0.809   5.254 -0.1073 -2.5445 -0.1743
    6MOL    H29 1639   7.782   1.005   5.148 -2.3647 -1.6700 -1.0241
    6MOL    H30 1640   0.095   0.912   5.177 -0.0669 -1.9865 -0.0594
    6MOL    H31 1641   7.816   0.980   5.314  0.7048 -0.8175 -0.0024
    6MOL    H32 1642   0.221   0.499   4.945 -0.1516 -4.0346 -1.8377
    6MOL    H33 1643   0.159   0.484   4.786 -0.4837  0.7249  0.2289
    6MOL    C34 1644   0.242   0.685   4.825  0.3783  0.7356 -0.3503
    6MOL    O35 1645   0.381   0.656   4.822  0.0450  0.1255  0.2309
    6MOL    C36 1646   0.473   0.758   4.861 -0.2966  0.0958 -0.6215
    6MOL    C37 1647   0.599   0.712   4.793  0.8184  0.3738 -0.3773
    6MOL    C38 1648   0.707   0.816   4.808 -0.1674 -0.5043 -0.1635
    6MOL    C39 1649   0.218   0.716   4.676  0.4260 -0.1207  0.3241
    6MOL    H40 1650   0.221   0.767   4.894 -0.6416  0.0296  0.1865
    6MOL    H41 1651   0.428   0.849   4.822 -1.7002 -0.4377 -0.2664
    6MOL    H42 1652   0.470   0.773   4.969 -1.1477  0.5093 -0.7007
    6MOL    H43 1653   0.589   0.707   4.684  0.6982  1.0322 -0.3964
    6MOL    H44 1654   0.640   0.618   4.830 -1.4946 -2.0313 -3.6726
    6MOL    H45 1655   0.731   0.837   4.913  0.5041 -0.8234 -0.2512
    6MOL    H46 1656   0.684   0.908   4.756 -0.7649 -1.0413 -0.8629
    6MOL    H47 1657   0.801   0.786   4.763  0.2186 -0.7604  0.7891
    6MOL    H48 1658   0.314   0.709   4.624 -0.8721  0.4566 -2.2338
    6MOL    H49 1659   0.149   0.647   4.628 -1.3236  2.6379 -1.2419
    6MOL    C50 1660   0.177   0.860   4.657 -0.0425 -0.3831  0.1882
    6MOL    O51 1661   0.172   0.884   4.509  0.2016  0.1057 -0.8833
    6MOL    C52 1662   0.281   0.966   4.472 -0.3658 -0.8178  0.1240
    6MOL    C53 1663   0.285   0.987   4.319 -0.7370 -0.6617 -0.7674
    6MOL    C54 1664   0.276   0.855   4.238  0.2845 -0.3755  0.4257
    6MOL    C55 1665   0.031   0.880   4.700 -0.3018 -0.4571  0.1462
    6MOL    H56 1666   0.259   0.911   4.707 -2.4576  2.5718  1.3101
    6MOL    H57 1667   0.263   1.061   4.522 -0.7019 -0.7711 -0.0884
    6MOL    H58 1668   0.375   0.923   4.508  1.2764  2.0220 -0.6556
    6MOL    H59 1669   0.377   1.040   4.294 -1.0315  0.2266  0.0163
    6MOL    H60 1670   0.202   1.048   4.283 -1.6436 -0.5303  1.4579
    6MOL    H61 1671   0.376   0.813   4.228  0.4336 -0.0315  0.4489
    6MOL    H62 1672   0.245   0.862   4.134 -1.2510 -1.3064  0.8105
    6MOL    H63 1673   0.215   0.781   4.289 -0.6756 -0.9841 -1.5661
    6MOL    H64 1674   7.799   0.822   4.629  1.0205  0.6788 -1.9672
    6MOL    H65 1675   0.022   0.836   4.799 -0.8822  2.3496  1.3681
    6MOL    C66 1676   7.815   1.031   4.716 -0.7545 -0.4190 -0.1164
    6MOL    O67 1677   7.674   1.031   4.713 -0.4418 -0.2488 -0.1426
    6MOL    C68 1678   7.614   1.045   4.592  0.0147 -0.4804 -0.2291
    6MOL    C69 1679   7.460   1.019   4.589  0.2908 -0.6670  0.1511
    6MOL    C70 1680   7.393   1.062   4.461  0.2359  0.5414  0.2692
    6MOL    C71 1681   0.029   1.091   4.857  0.1262 -0.2019  1.5274
    6MOL    H72 1682   0.029   1.088   4.633 -1.2065  1.8680  1.1939
    6MOL    H73 1683   7.634   1.143   4.549 -1.1555 -0.0873  0.1211
    6MOL    H74 1684   7.662   0.975   4.523  2.1509  0.1907  0.5494
    6MOL    H75 1685   7.415   1.073   4.673  0.3439  0.5295 -0.5805
    6MOL    H76 1686   7.445   0.912   4.606 -0.8750 -0.4548  0.5269
    6MOL    H77 1687   7.375   1.166   4.435  3.7544  0.4835 -2.8690
    6MOL    H78 1688   7.296   1.012   4.460  0.3613  0.2929 -0.5860
    6MOL    H79 1689   7.443   1.016   4.376 -2.1710  0.1775 -1.0053
    6MOL    H80 1690   7.812   1.190   4.858  1.7253  0.5794 -0.7052
    6MOL    H81 1691   7.816   1.023   4.932 -1.8588 -0.1768  0.5024
    6MOL    C82 1692   0.179   1.101   4.875  0.2745 -0.1135 -0.1165
    6MOL    O83 1693   0.243   1.180   4.774 -0.2702  0.3710  0.5052
    6MOL    C84 1694   0.219   1.314   4.767 -0.0756  0.4265  0.1790
    6MOL    C85 1695   0.304   1.371   4.652 -0.0654  0.6313 -0.1213
    6MOL    C86 1696   0.285   1.517   4.615 -1.3734 -0.2928 -0.5163
    6MOL    C87 1697   0.207   1.167   5.021  0.0965  0.1629  0.6486
    6MOL    H88 1698   0.227   1.004   4.878 -0.3390 -0.3687  1.9300
    6MOL    H89 1699   0.112   1.329   4.762 -0.2389 -0.8320 -0.0811
    6MOL    H90 1700   0.259   1.356   4.860 -2.5927 -0.1704  1.5527
    6MOL    H91 1701   0.272   1.308   4.569 -1.9972  0.6243  0.6106
    6MOL    H92 1702   0.406   1.350   4.685 -0.6678  0.8747  1.9696
    6MOL    H93 1703   0.183   1.532   4.578 -1.1411  3.3742  0.2024
    6MOL    H94 1704   0.352   1.536   4.531  0.0652 -0.9009  0.4707
    6MOL    H95 1705   0.305   1.591   4.693 -0.0774 -0.2044 -0.9317
    6MOL    H96 1706   0.150   1.259   5.034  0.7371  0.9156 -1.5459
    6MOL    H97 1707   0.174   1.091   5.092 -1.0373 -1.1447 -1.2043
    6MOL    C98 1708   0.358   1.190   5.052  0.3763 -1.0145  0.1941
    6MOL    O99 1709   0.360   1.264   5.172  0.3673  0.1513 -0.2035
    6MOL   C100 1710   0.379   1.401   5.147 -0.2382  0.2930  0.1744
    6MOL   C101 1711   0.357   1.474   5.279  0.2050  0.2415  0.1431
    6MOL   C102 1712   0.426   1.419   5.399 -0.1698  0.3928  0.3781
    6MOL   C103 1713   0.437   1.061   5.082 -0.2792  0.2055  0.5859
    6MOL   H104 1714   0.398   1.242   4.965 -1.7517  0.9548  0.3337
    6MOL   H105 1715   0.476   1.420   5.101 -0.9855  0.4147 -1.3926
    6MOL   H106 1716   0.309   1.440   5.074 -2.3708 -0.6652  1.6515
    6MOL   H107 1717   0.253   1.482   5.311  1.0644  2.3322  2.4925
    6MOL   H108 1718   0.357   1.582   5.266  1.6346  0.2696  0.3037
    6MOL   H109 1719   0.523   1.466   5.415  0.8817 -0.9826 -1.6761
    6MOL   H110 1720   0.440   1.311   5.411 -3.4825 -0.3884 -2.1749
    6MOL   H111 1721   0.358   1.445   5.479 -2.5941 -0.6310 -1.2917
    6MOL   H112 1722   0.385   1.006   5.160 -0.4077 -0.8933 -0.2674
    6MOL   H113 1723   0.437   0.994   4.996  0.8084 -0.1287  0.8412
    6MOL   C114 1724   0.584   1.093   5.114 -0.7836 -0.2856 -0.8595
    6MOL   O115 1725   0.644   0.968   5.146 -0.4640 -0.2626  1.1246
    6MOL   C116 1726   0.626   0.927   5.281  0.1344 -0.9483  0.3394
    6MOL   C117 1727   0.670   0.780   5.312  0.4354  0.3352 -0.5901
    6MOL   C118 1728   0.819   0.753   5.302  0.5449  0.1932 -0.8920
    6MOL   C119 1729   0.665   1.154   4.994 -0.2011  0.6356  0.6602
    6MOL   H120 1730   0.591   1.160   5.200  0.9027  0.6534 -1.7183
    6MOL   H121 1731   0.679   0.994   5.348  1.2765  0.5598 -1.9856
    6MOL   H122 1732   0.520   0.931   5.308  0.0663 -0.3793 -0.0029
    6MOL   H123 1733   0.607   0.719   5.247  1.8238  0.5721 -2.2010
    6MOL   H124 1734   0.619   0.769   5.408 -0.6411  0.0983 -1.1828
    6MOL   H125 1735   0.859   0.756   5.200  2.1811 -0.6145 -0.3018
    6MOL   H126 1736   0.827   0.650   5.338 -1.0124  0.9693  1.7959
    6MOL   H127 1737   0.878   0.818   5.365 -2.1124  0.1448  1.7391
    6MOL   H128 1738   0.643   1.092   4.906  0.1370 -0.3900  1.2897
    6MOL   H129 1739   0.627   1.254   4.972 -0.6136 -0.0025 -1.7400
    6MOL   C130 1740   0.819   1.159   5.028 -0.0135  0.1019 -0.6069
    6MOL   O131 1741   0.885   1.209   4.915 -0.1488 -0.6229  0.1813
    6MOL   C132 1742   0.910   1.111   4.816  0.5506  0.0070 -0.0190
    6MOL   C133 1743   1.034   1.146   4.732  0.4731 -0.2299  0.8173
    6MOL   C134 1744   1.161   1.150   4.816 -0.2448 -0.2992 -0.2892
    6MOL   C135 1745   0.860   1.252   5.147 -0.3826 -0.0032 -0.6888
    6MOL   H136 1746   0.858   1.059   5.046 -1.1889 -0.4494 -1.0535
    6MOL   H137 1747   0.926   1.011   4.857  1.2370  0.5228  0.9845
    6MOL   H138 1748   0.822   1.108   4.752  1.0874  0.1886 -0.7835
    6MOL   H139 1749   1.025   1.236   4.671 -1.8545 -0.7727  0.3046
    6MOL   H140 1750   1.043   1.070   4.655 -0.8309 -0.1952  0.6124
    6MOL   H141 1751   1.200   1.061   4.866 -0.2569  1.3476  2.7367
    6MOL   H142 1752   1.152   1.230   4.889 -3.8089  0.6074 -1.6302
    6MOL   H143 1753   1.253   1.185   4.769 -0.8759  2.2037  0.2442
    6MOL   H144 1754   0.839   1.357   5.127 -1.9290 -0.4596 -1.4999
    6MOL   H145 1755   0.788   1.250   5.228  0.8244 -2.9713  0.3713
    6MOL   C146 1756   1.007   1.247   5.197 -0.1707 -0.1581 -0.7926
    6MOL   O147 1757   1.036   1.353   5.283 -0.2817 -0.3206 -0.7890
    6MOL   C148 1758   1.059   1.474   5.226 -0.2533 -0.0342  0.1232
    6MOL   C149 1759   1.125   1.553   5.334  0.5196  0.6553  0.0318
    6MOL   C150 1760   1.262   1.498   5.376 -0.0699 -0.1932  0.3857
    6MOL   C151 1761   1.016   1.128   5.296 -0.1198  0.3101 -0.2956
    6MOL   H152 1762   1.084   1.250   5.120 -2.4837 -0.7978 -3.1774
    6MOL   H153 1763   1.142   1.471   5.155  0.9659 -0.4430  1.5461
    6MOL   H154 1764   0.973   1.522   5.180 -0.7297  1.4810  2.5463
    6MOL   H155 1765   1.069   1.578   5.425  0.3588  0.8505 -0.1183
    6MOL   H156 1766   1.150   1.654   5.302  0.1611  0.3045 -1.3847
    6MOL   H157 1767   1.247   1.394   5.406  1.2399 -1.1156 -2.0094
    6MOL   H158 1768   1.303   1.565   5.452 -0.2209  0.5269 -0.1566
    6MOL   H159 1769   1.336   1.488   5.296 -0.1802 -1.6888  0.4522
    6MOL   H160 1770   0.939   1.144   5.371  0.7561 -2.1919  1.1712
    6MOL   H161 1771   0.987   1.039   5.240  0.7435  0.7154 -1.4200
    6MOL   C162 1772   1.149   1.089   5.376  0.3656 -0.1559 -0.6376
    6MOL   O163 1773   1.110   0.998   5.471 -0.0248  0.3874  0.0943
    6MOL   C164 1774   1.080   1.039   5.604 -0.3732  0.5248 -0.1756
    6MOL   C165 1775   0.996   0.927   5.674 -0.2507  0.2741  0.7426
    6MOL   C166 1776   0.938   0.962   5.808  0.9873 -0.3979  1.1074
    6MOL   C167 1777   1.267   1.030   5.289  0.6589 -0.4363  0.2370
    6MOL   H168 1778   1.187   1.179   5.424 -0.0386 -1.2125  1.7319
    6MOL   H169 1779   1.167   1.075   5.658  1.2049 -0.1185 -2.2510
    6MOL   H170 1780   1.019   1.129   5.606 -0.1201  0.7292 -1.3343
    6MOL   H171 1781   1.053   0.835   5.690 -0.4738  0.1173  0.6429
    6MOL   H172 1782   0.914   0.912   5.603 -0.4270  3.0320  0.3286
    6MOL   H173 1783   0.879   1.054   5.800  1.2609 -0.0483  2.8299
    6MOL   H174 1784   1.015   0.981   5.882  0.9944 -1.5217  1.4020
    6MOL   H175 1785   0.880   0.885   5.858  1.1854 -1.8501 -0.8619
    6MOL   H176 1786   1.262   0.925   5.262 -0.9229 -0.1945 -0.4834
    6MOL   H177 1787   1.250   1.074   5.191 -0.2734 -0.8840  0.1938
    6MOL   C178 1788   1.404   1.069   5.341 -0.5958  0.0660  0.0731
    6MOL   O179 1789   1.422   1.207   5.316 -0.2280 -0.2417  0.2660
    6MOL   C180 1790   1.540   1.269   5.256  0.0785  0.1150  0.0433
    6MOL   C181 1791   1.552   1.247   5.106 -0.1125 -0.7756 -0.4180
    6MOL   C182 1792   1.426   1.315   5.040  0.3223 -0.2259 -0.0980
    6MOL   C183 1793   1.420   1.035   5.489  0.5376  0.3604  0.0316
    6MOL   H184 1794   1.483   1.020   5.284  0.3413  1.9854 -0.3184
    6MOL   H185 1795   1.542   1.371   5.292  4.3024 -0.3620  1.4459
    6MOL   H186 1796   1.629   1.225   5.301  0.4955 -1.0092 -1.8047
    6MOL   H187 1797   1.561   1.138   5.096 -0.2679 -0.9097  0.8396
    6MOL   H188 1798   1.644   1.294   5.070  0.1244 -0.8606  0.0724
    6MOL   H189 1799   1.430   1.320   4.931 -1.7932 -2.0217 -0.3071
    6MOL   H190 1800   1.419   1.418   5.073 -0.1555 -0.5486  0.8123
    6MOL   H191 1801   1.329   1.271   5.063  0.3722  0.0587  0.6568
    6MOL   H192 1802   1.365   1.106   5.551  1.2294  1.3134 -0.4181
    6MOL   H193 1803   1.375   0.936   5.494  1.9289 -0.3029 -0.2024
    6MOL   C194 1804   1.559   1.038   5.544 -0.3117  0.3230 -0.4407
    6MOL   O195 1805   1.564   1.008   5.677 -0.8551 -0.5402 -0.6110
    6MOL   C196 1806   1.537   1.123   5.766 -0.2013 -0.0635  0.1630
    6MOL   C197 1807   1.533   1.077   5.912 -0.1781  0.0128 -0.7043
    6MOL   C198 1808   1.674   1.050   5.962  0.4561 -0.1824 -0.3321
    6MOL   C199 1809   1.649   0.926   5.489 -0.0367 -0.2141  0.0919
    6MOL   H200 1810   1.598   1.138   5.524 -0.6468  0.4983 -0.2103
    6MOL   H201 1811   1.629   1.179   5.747 -0.8553  0.6607 -0.9166
    6MOL   H202 1812   1.458   1.192   5.739  0.7825  1.3427  0.8471
    6MOL   H203 1813   1.473   0.988   5.931  1.0368 -0.5269  0.7478
    6MOL   H204 1814   1.494   1.158   5.974 -0.2745 -0.2527 -0.4192
    6MOL   H205 1815   1.668   1.004   6.060  1.1323  0.3473 -0.0444
    6MOL   H206 1816   1.730   1.142   5.981 -0.5790  0.7391 -1.6058
    6MOL   H207 1817   1.729   1.000   5.882 -1.2970 -2.0943 -0.3823
    6MOL   H208 1818   1.598   0.833   5.516 -0.5072 -0.0347 -0.1624
    6MOL   H209 1819   1.657   0.929   5.381 -0.3435  1.4502  0.1135
    6MOL   C210 1820   1.795   0.930   5.542  0.2542 -0.8777 -0.2476
    6MOL   O211 1821   1.876   0.841   5.465 -0.4557 -0.2204 -0.2174
    6MOL   C212 1822   1.883   0.712   5.528  0.0876 -0.1674 -0.3056
    6MOL   C213 1823   1.955   0.609   5.446 -0.3076 -0.0618  0.1022
    6MOL   C214 1824   2.000   0.496   5.531 -0.4547  0.5381 -0.1333
    6MOL   C215 1825   1.873   1.064   5.536 -0.2532 -0.4407 -0.1729
    6MOL   H216 1826   1.799   0.899   5.647  0.3938 -1.4837 -0.4309
    6MOL   H217 1827   1.922   0.723   5.630 -2.4860  0.2321  0.6723
    6MOL   H218 1828   1.782   0.672   5.543  0.0194 -0.1612 -0.7477
    6MOL   H219 1829   2.050   0.653   5.417 -0.5635  0.6701  0.3503
    6MOL   H220 1830   1.903   0.576   5.356  0.3376 -2.3708  0.5328
    6MOL   H221 1831   2.052   0.419   5.473  1.1223  0.3495  1.4684
    6MOL   H222 1832   1.915   0.452   5.584  2.5559 -2.4548  2.4851
    6MOL   H223 1833   2.076   0.526   5.603 -0.2222  1.9356 -0.9592
    6MOL   H224 1834   1.898   1.091   5.433  1.1887  1.2932  0.6064
    6MOL   H225 1835   1.804   1.145   5.563  1.0465  1.0087 -1.0760
    6MOL   C226 1836   1.996   1.067   5.631 -0.7460  0.8267  0.1449
    6MOL   O227 1837   2.104   1.104   5.544 -1.0419 -0.6968 -0.1260
    6MOL   C228 1838   2.166   0.999   5.467 -0.1333  0.7145  0.6288
    6MOL   C229 1839   2.299   1.054   5.396  0.0254 -0.8250  0.7389
    6MOL   C230 1840   2.405   1.125   5.475  0.8173 -0.5438 -0.2388
    6MOL   C231 1841   1.994   1.187   5.718 -0.4122  0.4499 -0.2806
    6MOL   H232 1842   2.006   0.976   5.690 -0.7716  0.0487 -1.0211
    6MOL   H233 1843   2.196   0.916   5.532  1.5244  0.2258 -0.7394
    6MOL   H234 1844   2.086   0.968   5.400 -2.7730  2.7664  2.7275
    6MOL   H235 1845   2.265   1.127   5.322 -2.1814  0.2390  2.7250
    6MOL   H236 1846   2.343   0.970   5.342  0.1122 -0.7266  0.6548
    6MOL   H237 1847   2.458   1.050   5.533 -1.6619 -2.0214  0.1990
    6MOL   H238 1848   2.363   1.203   5.540  1.8844  1.0003 -1.3689
    6MOL   H239 1849   2.470   1.172   5.402  1.0564  1.0994  0.9893
    6MOL   H240 1850   1.984   1.279   5.661  0.8433  0.3446 -0.6861
    6MOL   H241 1851   1.910   1.165   5.784 -1.7054 -0.2987 -2.1402
    6MOL   C242 1852   2.119   1.219   5.794  1.0108  0.2879  0.8611
    6MOL   O243 1853   2.072   1.314   5.879  0.3032  0.4245 -0.5182
    6MOL   C244 1854   2.156   1.425   5.913  0.0344  0.7043 -0.4780
    6MOL   C245 1855   2.072   1.500   6.020 -0.3623  0.1567 -0.0531
    6MOL   C246 1856   2.060   1.420   6.150 -0.8075  0.2543 -0.3355
    6MOL   C247 1857   2.181   1.093   5.871 -0.3521  0.8780 -1.1448
    6MOL   H248 1858   2.196   1.270   5.736  0.9803 -1.3973 -0.6913
    6MOL   H249 1859   2.253   1.398   5.955 -0.4531  0.4544  0.5212
    6MOL   H250 1860   2.181   1.493   5.832 -1.6657  0.4347 -1.2473
    6MOL   H251 1861   1.968   1.523   5.994 -0.7588 -1.2992  0.1923
    6MOL   H252 1862   2.113   1.598   6.043 -0.7087  0.3106 -0.0900
    6MOL   H253 1863   1.990   1.337   6.151  0.3079 -0.7127 -1.2299
    6MOL   H254 1864   2.064   1.489   6.234  1.9707 -0.2797  0.0055
    6MOL   H255 1865   2.157   1.373   6.165 -0.0623  2.3505  1.8122
    6MOL   H256 1866   2.101   1.043   5.925  1.3544  0.7381  1.3245
    6MOL   H257 1867   2.212   1.013   5.803 -0.8327 -0.5062  0.2323
    6MOL   C258 1868   2.301   1.111   5.965 -0.0414  0.2184  0.0946
    6MOL   O259 1869   2.328   0.984   6.022  0.0270  0.4066 -0.0418
    6MOL   C260 1870   2.260   0.961   6.142 -0.7574  0.1080  0.4078
    6MOL   C261 1871   2.294   0.816   6.188  0.6990  0.1672 -0.2994
    6MOL   C262 1872   2.433   0.801   6.260 -0.2159 -0.0593 -0.6173
    6MOL   C263 1873   2.431   1.141   5.881 -0.2957  0.1236 -0.3752
    6MOL   H264 1874   2.283   1.178   6.049  4.2529 -0.5477  1.7520
    6MOL   H265 1875   2.284   1.037   6.216 -0.3657  1.0271 -0.6529
    6MOL   H266 1876   2.153   0.983   6.131 -0.4665  1.7835  0.8477
    6MOL   H267 1877   2.309   0.759   6.096 -0.8457 -0.5501 -0.1214
    6MOL   H268 1878   2.216   0.762   6.242 -1.8897  1.6132 -2.4888
    6MOL   H269 1879   2.433   0.853   6.356 -0.1571 -0.4323 -0.4128
    6MOL   H270 1880   2.512   0.838   6.195 -0.9223 -1.0577 -2.0487
    6MOL   H271 1881   2.460   0.697   6.275  1.1884  0.2330 -1.0765
    6MOL   H272 1882   2.439   1.067   5.801 -0.9967 -1.3096  0.8642
    6MOL   H273 1883   2.403   1.228   5.822  2.4315  1.1040 -0.3104
    6MOL   C274 1884   2.564   1.142   5.956 -0.3567  0.1071 -0.0452
    6MOL   O275 1885   2.675   1.163   5.876  0.0700 -0.4558 -0.3662
    6MOL   C276 1886   2.752   1.057   5.822  0.2179 -0.4168 -0.3096
    6MOL   C277 1887   2.854   1.139   5.744  0.6452  0.5690  0.1952
    6MOL   C278 1888   2.813   1.195   5.607 -0.2514 -0.3461 -0.4040
    6MOL   C279 1889   2.564   1.275   6.044 -0.1427 -0.5669  0.1562
    6MOL   H280 1890   2.569   1.049   6.013  2.3800  0.7934  0.9086
    6MOL   H281 1891   2.785   0.989   5.901  1.0293  0.8230  0.4293
    6MOL   H282 1892   2.694   0.991   5.758 -2.2462  3.0021 -1.7528
    6MOL   H283 1893   2.947   1.083   5.746  0.4250  0.2110  0.4569
    6MOL   H284 1894   2.883   1.221   5.810  2.1844 -0.5902  0.9791
    6MOL   H285 1895   2.725   1.258   5.610 -0.6302 -0.7927 -1.6540
    6MOL   H286 1896   2.806   1.122   5.526  0.2730  0.0442 -0.8074
    6MOL   H287 1897   2.893   1.264   5.577  0.9620 -1.9198 -0.8767
    6MOL   H288 1898   2.586   1.355   5.973  0.6423 -0.9427 -0.0265
    6MOL   H289 1899   2.465   1.298   6.084 -0.3201 -0.1424 -0.5188
    6MOL   C290 1900   2.667   1.276   6.151 -0.1502  0.7471 -0.7849
    6MOL   O291 1901   2.677   1.407   6.207  0.7297 -0.3522  0.0110
    6MOL   C292 1902   2.750   1.504   6.137  0.4673 -0.3601 -0.4014
    6MOL   C293 1903   2.899   1.469   6.110  0.4252  0.8824 -0.8303
    6MOL   C294 1904   2.960   1.590   6.043  0.1307 -0.0833  0.0820
    6MOL   C295 1905   2.626   1.172   6.262 -0.8940  0.1503 -0.3814
    6MOL   H296 1906   2.758   1.245   6.100  2.1404  1.9131  2.3961
    6MOL   H297 1907   2.698   1.517   6.042  0.3321 -2.0752 -0.5746
    6MOL   H298 1908   2.761   1.596   6.194 -0.9909 -1.5057  1.7436
    6MOL   H299 1909   2.902   1.396   6.029 -1.5099 -1.4213  1.1105
    6MOL   H300 1910   2.962   1.440   6.194 -1.3915  2.2944  1.0974
    6MOL   H301 1911   2.914   1.601   5.944 -1.6139 -1.0680  0.7552
    6MOL   H302 1912   3.067   1.586   6.026 -0.0358  3.1126 -2.2495
    6MOL   H303 1913   2.950   1.686   6.094 -0.6280 -0.5468  0.8081
    6MOL   H304 1914   2.526   1.203   6.292 -0.3530  2.3783 -0.7743
    6MOL   H305 1915   2.612   1.075   6.214 -0.6869 -1.3053  2.4210
    6MOL   C306 1916   2.725   1.141   6.373  0.1902  0.7159 -0.2809
    6MOL   O307 1917   2.739   1.244   6.464  0.2161 -0.4237 -0.2331
    6MOL   C308 1918   2.854   1.318   6.449  0.2200  0.0760  0.4542
    6MOL   C309 1919   2.858   1.433   6.546 -0.1652  0.2564 -0.3381
    6MOL   C310 1920   2.750   1.529   6.518  0.5424  0.3647  0.5513
    6MOL   C311 1921   2.679   1.024   6.461 -0.5115 -0.4221  0.5572
    6MOL   H312 1922   2.822   1.111   6.334  0.7198 -1.2278  2.3598
    6MOL   H313 1923   2.942   1.254   6.463  0.2106 -0.1171 -0.3218
    6MOL   H314 1924   2.854   1.365   6.350  0.1131 -1.0612 -0.1027
    6MOL   H315 1925   2.953   1.484   6.534 -0.5732  0.8656 -1.0240
    6MOL   H316 1926   2.849   1.403   6.651 -1.0079 -1.7081 -0.9519
    6MOL   H317 1927   2.648   1.491   6.514 -0.9804  4.3705 -2.1966
    6MOL   H318 1928   2.765   1.576   6.420 -1.3091  0.7641  0.4567
    6MOL   H319 1929   2.747   1.601   6.599  1.2545  0.6219  0.3538
    6MOL   H320 1930   2.670   0.930   6.408 -0.3323  0.5139 -1.1803
    6MOL   H321 1931   2.747   1.018   6.547 -0.2486 -0.3777  0.3533
    6MOL   H322 1932   2.585   1.040   6.514  1.3325 -0.5022  4.0352
    7MOL     C1 1933   1.447   2.707   2.428  0.6062  0.4244  0.0954
    7MOL     O2 1934   1.378   2.625   2.332 -0.0639  0.1032  0.1443
    7MOL     C3 1935   1.464   2.559   2.240 -0.0182 -0.3249 -0.3337
    7MOL     C4 1936   1.494   2.641   2.113  0.4615  0.1676  0.8707
    7MOL     C5 1937   1.365   2.703   2.045 -0.0328 -0.2025 -0.0471
    7MOL     C6 1938   1.343   2.799   2.490 -0.2302  0.2460  0.8230
    7MOL     H7 1939   1.530   2.770   2.395 -0.4013  1.6837 -0.0705
    7MOL     H8 1940   1.558   2.529   2.288 -0.8067 -0.0836  1.4137
    7MOL     H9 1941   1.414   2.467   2.212 -1.0578  0.0052  0.4045
    7MOL    H10 1942   1.549   2.578   2.042  0.7618  0.0066  1.2468
    7MOL    H11 1943   1.572   2.715   2.133 -0.9469  1.4937  1.4950
    7MOL    H12 1944   1.393   2.779   1.971  0.9156  1.1353  1.6576
    7MOL    H13 1945   1.301   2.756   2.116  2.3318  2.2639  0.3179
    7MOL    H14 1946   1.306   2.632   1.987 -0.8411  0.5613 -0.1875
    7MOL    H15 1947   1.264   2.743   2.539 -1.7268 -0.1227 -1.8786
    7MOL    H16 1948   1.399   2.846   2.571  0.6285  0.5683  0.0549
    7MOL    H17 1949   1.493   2.641   2.501  2.8430  0.0649 -1.5487
    7MOL    C18 1950   1.290   2.907   2.393  0.2814 -0.1026 -0.3478
    7MOL    O19 1951   1.229   3.014   2.471 -0.3062  0.6368  0.5117
    7MOL    C20 1952   1.107   3.068   2.434 -0.3640 -0.3905  0.0196
    7MOL    C21 1953   1.101   3.213   2.480  0.1240  0.3400 -0.3112
    7MOL    C22 1954   0.969   3.277   2.439 -0.9327  0.5105 -0.7547
    7MOL    C23 1955   1.389   2.973   2.299 -0.0299 -0.1482 -0.1449
    7MOL    H24 1956   1.219   2.852   2.331 -0.2915  1.1404 -0.8001
    7MOL    H25 1957   1.081   3.065   2.328 -0.0452 -0.4356 -0.0583
    7MOL    H26 1958   1.027   3.007   2.476  0.0665 -0.7912  0.2714
    7MOL    H27 1959   1.175   3.269   2.421  1.0499 -0.3192  0.2048
    7MOL    H28 1960   1.128   3.221   2.585 -1.3614  1.2359  0.0227
    7MOL    H29 1961   0.975   3.386   2.446  1.0569  0.4766 -1.5745
    7MOL    H30 1962   0.887   3.239   2.499  0.9663 -2.8059 -0.1510
    7MOL    H31 1963   0.944   3.252   2.336  0.5625 -1.7454 -0.6012
    7MOL    H32 1964   1.443   2.902   2.236 -0.2444 -0.4476  0.0041
    7MOL    H33 1965   1.321   3.034   2.240 -1.3387 -1.3668  0.0826
    7MOL    C34 1966   1.492   3.065   2.358  0.2636  0.6473 -0.5297
    7MOL    O35 1967   1.588   3.002   2.439 -0.1091 -0.0840  0.6862
    7MOL    C36 1968   1.612   3.056   2.567  0.4187 -0.2940  0.1645
    7MOL    C37 1969   1.708   2.957   2.633  0.3177  0.1229  0.4410
    7MOL    C38 1970   1.829   2.920   2.553 -0.1271 -0.2854  0.5928
    7MOL    C39 1971   1.570   3.136   2.244  0.4023 -0.6706 -0.3242
    7MOL    H40 1972   1.429   3.138   2.410  1.1993  2.5414 -1.9880
    7MOL    H41 1973   1.660   3.154   2.562 -0.0569 -0.0498  0.2918
    7MOL    H42 1974   1.512   3.062   2.610  0.3843 -0.6718  0.1373
    7MOL    H43 1975   1.655   2.864   2.654  1.8223 -0.0706  3.5264
    7MOL    H44 1976   1.742   2.982   2.733  2.8702  0.9301 -0.5991
    7MOL    H45 1977   1.906   2.865   2.607  0.6616  0.8523  0.6354
    7MOL    H46 1978   1.882   3.006   2.514 -0.8233 -0.7796 -1.5630
    7MOL    H47 1979   1.789   2.875   2.461  0.0934  1.4437 -0.3597
    7MOL    H48 1980   1.629   3.068   2.183  0.5424  2.9190 -4.4113
    7MOL    H49 1981   1.493   3.173   2.176 -0.2115 -0.9494  0.2090
    7MOL    C50 1982   1.662   3.255   2.289 -0.1993 -0.1501  0.0953
    7MOL    O51 1983   1.728   3.303   2.168  0.0219  0.2337 -0.0651
    7MOL    C52 1984   1.864   3.266   2.146  0.0558 -0.2123 -0.4952
    7MOL    C53 1985   1.925   3.330   2.017  0.1456 -0.1845 -0.1374
    7MOL    C54 1986   1.839   3.300   1.895 -0.2519  0.4531 -0.3834
    7MOL    C55 1987   1.588   3.378   2.352 -0.0875 -0.1370  0.5365
    7MOL    H56 1988   1.737   3.218   2.358 -0.1266 -0.1553  0.0129
    7MOL    H57 1989   1.931   3.297   2.226 -2.3995  1.0394  1.1405
    7MOL    H58 1990   1.872   3.159   2.128 -1.3491 -1.0342  3.3757
    7MOL    H59 1991   2.024   3.288   1.998 -0.5463 -0.4323 -3.5547
    7MOL    H60 1992   1.936   3.437   2.033 -2.2401  0.5085 -2.6223
    7MOL    H61 1993   1.875   3.348   1.804 -0.1899  0.6127 -0.2755
    7MOL    H62 1994   1.741   3.345   1.911 -0.2897  0.0033  0.6749
    7MOL    H63 1995   1.838   3.193   1.878  1.0387 -0.2606  3.5018
    7MOL    H64 1996   1.496   3.389   2.296  0.5063  0.8896 -0.2667
    7MOL    H65 1997   1.566   3.336   2.450 -1.0056 -2.9474 -0.8243
    7MOL    C66 1998   1.668   3.512   2.367 -0.2014 -0.0494  0.5419
    7MOL    O67 1999   1.591   3.612   2.432  0.4504 -0.0200 -0.2596
    7MOL    C68 2000   1.473   3.654   2.361 -0.0807  0.1585  0.4521
    7MOL    C69 2001   1.421   3.779   2.431  0.7131 -0.1110 -0.0536
    7MOL    C70 2002   1.263   3.795   2.415 -0.0238 -0.1104 -0.1065
    7MOL    C71 2003   1.798   3.497   2.438  0.5567  0.5329 -0.3033
    7MOL    H72 2004   1.703   3.540   2.267  2.3233 -1.8096  0.8756
    7MOL    H73 2005   1.499   3.680   2.259  1.3664  1.6813  1.1787
    7MOL    H74 2006   1.395   3.579   2.354  1.0444 -1.0159  0.2557
    7MOL    H75 2007   1.483   3.858   2.389 -0.0189  0.9618  0.8688
    7MOL    H76 2008   1.446   3.777   2.537  1.3979  0.9899 -0.1928
    7MOL    H77 2009   1.234   3.797   2.310 -0.7481  0.8788  0.1122
    7MOL    H78 2010   1.217   3.887   2.450 -0.4305 -0.5217  0.4458
    7MOL    H79 2011   1.208   3.704   2.440 -1.1338  0.7885  0.7602
    7MOL    H80 2012   1.779   3.461   2.540 -1.4565  1.4688 -0.3072
    7MOL    H81 2013   1.871   3.430   2.394 -0.3481  0.3974 -1.6260
    7MOL    C82 2014   1.870   3.628   2.459 -0.2083 -0.4851 -0.0198
    7MOL    O83 2015   1.967   3.593   2.553 -0.1606 -0.1195 -0.0230
    7MOL    C84 2016   2.019   3.698   2.634  0.1606  0.0645  0.0686
    7MOL    C85 2017   1.919   3.739   2.741 -0.7940  0.4301  0.2542
    7MOL    C86 2018   1.847   3.629   2.814  0.5231  0.5279 -0.4451
    7MOL    C87 2019   1.926   3.689   2.326  0.0339  0.0461 -0.3551
    7MOL    H88 2020   1.794   3.694   2.500 -1.2991 -2.3080  0.9740
    7MOL    H89 2021   2.105   3.652   2.683 -0.5184  1.8722  3.0229
    7MOL    H90 2022   2.065   3.779   2.577 -1.7062  0.8968 -0.2897
    7MOL    H91 2023   1.844   3.813   2.713 -0.2361  1.6136  1.8303
    7MOL    H92 2024   1.977   3.801   2.809 -1.2201  0.7696  0.3122
    7MOL    H93 2025   1.911   3.552   2.856  0.3201  0.2007 -0.7371
    7MOL    H94 2026   1.788   3.573   2.741 -0.3065  1.7763 -0.7443
    7MOL    H95 2027   1.801   3.669   2.904  1.1945 -0.3278  0.2912
    7MOL    H96 2028   2.034   3.703   2.339  0.1480  0.6934 -1.8844
    7MOL    H97 2029   1.916   3.621   2.242  1.7365 -0.0586 -0.5056
    7MOL    C98 2030   1.860   3.828   2.296 -0.9830  0.0594  0.0584
    7MOL    O99 2031   1.886   3.917   2.406 -0.1424  0.5633  0.5796
    7MOL   C100 2032   1.772   3.995   2.454  0.6344  0.1679  0.4217
    7MOL   C101 2033   1.805   4.083   2.569 -0.6471  0.4101  0.2973
    7MOL   C102 2034   1.914   4.190   2.561 -0.4552  0.2829 -0.1189
    7MOL   C103 2035   1.918   3.887   2.170  0.0752 -0.2832 -0.2707
    7MOL   H104 2036   1.752   3.814   2.294 -0.8704 -0.8812  0.3773
    7MOL   H105 2037   1.740   4.061   2.374 -0.1442  0.4998  1.0073
    7MOL   H106 2038   1.683   3.937   2.479 -0.3080  1.3593 -0.1563
    7MOL   H107 2039   1.841   4.016   2.647 -1.5285 -1.0552 -0.5591
    7MOL   H108 2040   1.716   4.127   2.615 -0.4877 -0.0504  1.0559
    7MOL   H109 2041   1.910   4.234   2.461 -3.4923 -2.5311 -1.3357
    7MOL   H110 2042   2.014   4.148   2.567 -1.4516 -2.4867 -1.8342
    7MOL   H111 2043   1.909   4.266   2.639 -0.8179  0.0539  0.0865
    7MOL   H112 2044   1.903   3.995   2.163 -0.2977 -0.3204 -0.0094
    7MOL   H113 2045   2.025   3.866   2.171  0.4771  1.6106 -0.4315
    7MOL   C114 2046   1.863   3.831   2.044 -0.4658  0.0814  0.0359
    7MOL   O115 2047   1.722   3.810   2.046 -0.4208  0.3852 -0.0023
    7MOL   C116 2048   1.668   3.698   1.979  0.6781  0.4007 -0.2458
    7MOL   C117 2049   1.523   3.715   1.953  0.8093 -0.6077  0.2669
    7MOL   C118 2050   1.486   3.816   1.837  0.0433 -0.2362 -0.2858
    7MOL   C119 2051   1.898   3.913   1.916 -0.0464 -0.3912 -0.1761
    7MOL   H120 2052   1.911   3.734   2.037 -0.4503 -0.1455  2.8407
    7MOL   H121 2053   1.722   3.666   1.890 -2.3689 -0.3717 -1.8741
    7MOL   H122 2054   1.689   3.619   2.050  1.5216  0.8560  0.0211
    7MOL   H123 2055   1.463   3.733   2.043 -0.2429 -3.0007  0.0808
    7MOL   H124 2056   1.480   3.622   1.916  1.7084 -1.0908  0.4262
    7MOL   H125 2057   1.534   3.913   1.851  1.0470 -0.9131  1.1224
    7MOL   H126 2058   1.378   3.827   1.838  0.1343  0.6578 -0.3635
    7MOL   H127 2059   1.520   3.774   1.742 -0.4653 -1.2362 -0.0376
    7MOL   H128 2060   1.845   3.865   1.834 -0.0641 -2.6944  1.1523
    7MOL   H129 2061   1.849   4.011   1.919  1.7592  0.4975  1.3481
    7MOL   C130 2062   2.049   3.911   1.876  0.2578  0.5844 -0.9200
    7MOL   O131 2063   2.088   3.773   1.850  0.9120  0.0496  0.1948
    7MOL   C132 2064   2.209   3.734   1.918 -0.0809  0.4362 -0.2239
    7MOL   C133 2065   2.266   3.603   1.873  0.1737 -0.1057  0.0560
    7MOL   C134 2066   2.326   3.618   1.733 -0.0040  0.0059 -0.9240
    7MOL   C135 2067   2.087   3.993   1.751 -0.1030 -0.0309  0.3761
    7MOL   H136 2068   2.100   3.941   1.967  0.6155 -0.4861 -0.7529
    7MOL   H137 2069   2.288   3.807   1.896  1.2508 -1.0769 -0.5365
    7MOL   H138 2070   2.189   3.728   2.025 -2.5107 -0.1607 -0.6813
    7MOL   H139 2071   2.199   3.518   1.881  0.1038 -0.0067  0.5078
    7MOL   H140 2072   2.358   3.570   1.922 -1.3649 -2.0499  1.6986
    7MOL   H141 2073   2.404   3.695   1.731 -1.4003  1.4399 -1.4728
    7MOL   H142 2074   2.253   3.647   1.658 -0.2509 -0.2333 -0.7757
    7MOL   H143 2075   2.379   3.528   1.704  0.7409 -0.1885  0.9873
    7MOL   H144 2076   2.190   3.963   1.730 -0.0164  1.4574 -1.5291
    7MOL   H145 2077   2.018   3.965   1.671  0.5274  2.8597 -1.2824
    7MOL   C146 2078   2.073   4.151   1.764 -0.4276  0.5040 -0.0952
    7MOL   O147 2079   2.114   4.185   1.892  0.8173  0.0584  0.1586
    7MOL   C148 2080   2.035   4.281   1.959 -1.0326 -0.3668 -0.4507
    7MOL   C149 2081   2.086   4.343   2.091  0.3183  0.1003 -0.0070
    7MOL   C150 2082   2.217   4.421   2.070 -0.3038 -0.0389 -0.6207
    7MOL   C151 2083   2.149   4.215   1.643  0.2953 -0.6377 -0.9743
    7MOL   H152 2084   1.971   4.186   1.748 -0.5504  0.0151 -0.3760
    7MOL   H153 2085   2.013   4.368   1.897 -1.8689 -0.4343 -0.2494
    7MOL   H154 2086   1.946   4.221   1.980 -0.9537 -0.3937 -0.1897
    7MOL   H155 2087   2.107   4.270   2.170 -0.0450  0.8350  0.7779
    7MOL   H156 2088   2.011   4.414   2.125 -0.4939 -0.6370 -0.2191
    7MOL   H157 2089   2.208   4.487   1.983 -0.4098  2.1174  0.9668
    7MOL   H158 2090   2.291   4.347   2.041 -1.1336 -1.1171  0.0025
    7MOL   H159 2091   2.261   4.462   2.160 -1.7932  0.2381 -0.0073
    7MOL   H160 2092   2.247   4.185   1.680  0.1241 -0.5378 -0.4326
    7MOL   H161 2093   2.141   4.169   1.545  0.2213  0.8138 -1.6622
    7MOL   C162 2094   2.140   4.373   1.634 -0.1318  0.3398  0.0131
    7MOL   O163 2095   2.240   4.428   1.548  0.2638 -0.4185 -0.2241
    7MOL   C164 2096   2.370   4.411   1.590 -0.0641  0.1911 -0.2578
    7MOL   C165 2097   2.458   4.485   1.493 -0.7798  0.5527 -0.0552
    7MOL   C166 2098   2.445   4.638   1.516  0.0921  1.0982  0.1300
    7MOL   C167 2099   2.003   4.424   1.583  0.2723  0.4791 -0.1643
    7MOL   H168 2100   2.149   4.433   1.725  0.2841  0.5663 -0.1705
    7MOL   H169 2101   2.382   4.457   1.688 -1.5380  2.0461 -0.9032
    7MOL   H170 2102   2.404   4.308   1.593  2.2845  0.9421 -0.3186
    7MOL   H171 2103   2.419   4.469   1.392 -0.5406  0.4064 -0.1225
    7MOL   H172 2104   2.563   4.458   1.499 -0.2926  1.8112 -2.1220
    7MOL   H173 2105   2.339   4.658   1.499 -0.1063 -1.0315 -1.1892
    7MOL   H174 2106   2.503   4.700   1.447 -1.0280  0.1530 -1.6963
    7MOL   H175 2107   2.484   4.662   1.615  1.5718 -0.1709 -0.1301
    7MOL   H176 2108   2.018   4.406   1.476  1.9728  3.1126 -0.4239
    7MOL   H177 2109   1.913   4.377   1.621  0.3365 -0.2701 -0.9066
    7MOL   C178 2110   1.980   4.582   1.590  0.3175  0.1350  0.8226
    7MOL   O179 2111   1.861   4.613   1.515  0.3045  0.1833  0.4698
    7MOL   C180 2112   1.889   4.661   1.383 -0.1786 -0.3724  0.2437
    7MOL   C181 2113   1.754   4.703   1.322 -0.1438 -0.3077 -0.0283
    7MOL   C182 2114   1.661   4.587   1.290  0.0035  0.2230  0.1681
    7MOL   C183 2115   1.962   4.648   1.729  0.4432  0.2922  0.3862
    7MOL   H184 2116   2.062   4.642   1.551 -0.4503  1.3975  1.0832
    7MOL   H185 2117   1.964   4.737   1.402 -1.7742  1.7189 -1.6196
    7MOL   H186 2118   1.931   4.585   1.316  0.0044  2.2333 -2.6785
    7MOL   H187 2119   1.760   4.761   1.230  0.3147  1.7403  1.2747
    7MOL   H188 2120   1.703   4.766   1.395  0.0308  1.5008 -1.4468
    7MOL   H189 2121   1.569   4.613   1.237  0.5966 -1.5536 -1.7881
    7MOL   H190 2122   1.635   4.525   1.375  2.0142  0.6448  1.1145
    7MOL   H191 2123   1.715   4.532   1.213  0.3728  1.6871 -0.6356
    7MOL   H192 2124   2.056   4.631   1.781  1.7886  0.3307 -1.9683
    7MOL   H193 2125   1.966   4.756   1.714 -3.0317  0.2738 -1.0696
    7MOL   C194 2126   1.831   4.614   1.808 -0.4764  0.6084  0.2676
    7MOL   O195 2127   1.787   4.480   1.821 -0.2577 -0.5281  0.3846
    7MOL   C196 2128   1.671   4.443   1.740 -0.1413  0.0366  0.2569
    7MOL   C197 2129   1.597   4.328   1.801  0.0554 -0.1988 -0.3012
    7MOL   C198 2130   1.661   4.192   1.810  0.7914  0.0973  0.6489
    7MOL   C199 2131   1.840   4.667   1.948  0.7816  0.7612  0.1713
    7MOL   H200 2132   1.756   4.679   1.762 -1.6322  0.0621  1.3660
    7MOL   H201 2133   1.600   4.525   1.745 -0.0342  0.1686 -0.3352
    7MOL   H202 2134   1.698   4.435   1.634 -0.3152 -0.0857  0.2216
    7MOL   H203 2135   1.495   4.326   1.762 -0.4382  1.8978  0.7682
    7MOL   H204 2136   1.579   4.357   1.905 -0.6423 -1.6502  0.0003
    7MOL   H205 2137   1.613   4.127   1.883  0.4793  0.3418  0.6631
    7MOL   H206 2138   1.766   4.210   1.833  1.0138 -1.2244  0.7234
    7MOL   H207 2139   1.647   4.144   1.714  0.6456 -0.9435  1.1798
    7MOL   H208 2140   1.916   4.613   2.004 -0.0323  1.1477  1.6907
    7MOL   H209 2141   1.881   4.767   1.940  0.1539  1.0660  0.7477
    7MOL   C210 2142   1.706   4.674   2.031  0.2165  0.4054 -0.5862
    7MOL   O211 2143   1.728   4.613   2.160  0.2286 -0.5241  0.0966
    7MOL   C212 2144   1.692   4.473   2.156  0.2407  0.7410 -0.2858
    7MOL   C213 2145   1.711   4.415   2.301  0.2982  0.1493 -0.2258
    7MOL   C214 2146   1.606   4.484   2.401  0.0531 -0.2621  0.3067
    7MOL   C215 2147   1.649   4.815   2.062 -0.5210 -0.1414  0.1724
    7MOL   H216 2148   1.629   4.618   1.978  0.2180  1.4789 -1.7713
    7MOL   H217 2149   1.593   4.444   2.121 -0.3572  2.6963 -0.2728
    7MOL   H218 2150   1.771   4.431   2.094  0.4052 -1.1313  1.1278
    7MOL   H219 2151   1.809   4.411   2.348 -0.3277 -0.3713  1.0725
    7MOL   H220 2152   1.700   4.307   2.311  1.9085  0.0439  0.5825
    7MOL   H221 2153   1.651   4.484   2.500  0.2290  0.0601  0.2277
    7MOL   H222 2154   1.507   4.444   2.420 -0.1277  2.0789  5.2657
    7MOL   H223 2155   1.598   4.590   2.374  0.0511  1.1659  5.3195
    7MOL   H224 2156   1.721   4.890   2.093 -1.1332  0.6331 -0.2386
    7MOL   H225 2157   1.603   4.854   1.971 -0.0232  0.3161  0.1200
    7MOL   C226 2158   1.528   4.831   2.169 -0.4603  0.0050 -0.2297
    7MOL   O227 2159   1.499   4.970   2.162  0.2822 -0.0295 -0.1319
    7MOL   C228 2160   1.437   5.037   2.277 -0.1876  0.1630  0.6364
    7MOL   C229 2161   1.508   5.029   2.412 -0.0313  1.2097  0.3415
    7MOL   C230 2162   1.664   5.037   2.396 -0.2370 -0.4368  0.6082
    7MOL   C231 2163   1.407   4.730   2.144 -0.8162  0.3488 -1.0042
    7MOL   H232 2164   1.569   4.808   2.267  0.4104 -1.7448 -0.9679
    7MOL   H233 2165   1.443   5.142   2.246  1.2151  0.5425  2.1006
    7MOL   H234 2166   1.335   5.006   2.295 -0.8787  1.9681  0.0101
    7MOL   H235 2167   1.486   4.931   2.454  0.6615  1.2087  0.7172
    7MOL   H236 2168   1.468   5.102   2.483 -0.4564  0.8764  0.4416
    7MOL   H237 2169   1.714   5.082   2.482  1.3502  1.4107 -1.2281
    7MOL   H238 2170   1.683   5.111   2.318 -2.8513  0.0574  0.4023
    7MOL   H239 2171   1.711   4.942   2.372 -1.5187 -0.9589  0.1115
    7MOL   H240 2172   1.449   4.631   2.161 -1.5386  0.5146  1.9691
    7MOL   H241 2173   1.327   4.745   2.216 -1.7055  0.2442 -1.9644
    7MOL   C242 2174   1.341   4.739   2.008 -0.3871  0.1485 -0.8145
    7MOL   O243 2175   1.245   4.632   2.005  0.0981  0.3518 -0.6479
    7MOL   C244 2176   1.195   4.583   1.877  0.3171  0.2723 -0.0772
    7MOL   C245 2177   1.090   4.476   1.910 -0.3447 -0.3124  0.1259
    7MOL   C246 2178   1.016   4.425   1.792 -0.1771 -0.1569 -0.4580
    7MOL   C247 2179   1.274   4.869   1.963  0.5013 -0.2962 -0.5546
    7MOL   H248 2180   1.407   4.708   1.928  0.3179  2.3541 -1.1060
    7MOL   H249 2181   1.157   4.666   1.816  1.1566 -0.2481 -1.3222
    7MOL   H250 2182   1.275   4.534   1.822  1.6795  2.2554  0.0833
    7MOL   H251 2183   1.022   4.530   1.975  1.3009  1.0511  0.7757
    7MOL   H252 2184   1.140   4.389   1.951  0.1381 -0.4910 -0.8212
    7MOL   H253 2185   1.084   4.392   1.715  1.3958 -0.8961  1.2126
    7MOL   H254 2186   0.978   4.519   1.751  0.0030  0.3441  0.4939
    7MOL   H255 2187   0.944   4.345   1.812 -0.1028 -0.0184  0.4187
    7MOL   H256 2188   1.166   4.856   1.953  0.3349  0.3326  0.4027
    7MOL   H257 2189   1.289   4.940   2.044 -3.1023 -1.5482  1.3213
    7MOL   C258 2190   1.320   4.932   1.834  0.1050 -0.3053  0.7198
    7MOL   O259 2191   1.258   4.866   1.726 -0.0765  0.1195 -0.3098
    7MOL   C260 2192   1.347   4.781   1.657  0.9839  0.0952 -0.3515
    7MOL   C261 2193   1.265   4.709   1.545 -0.4998 -0.0258  0.0744
    7MOL   C262 2194   1.367   4.641   1.441  0.0521 -0.3718 -0.6795
    7MOL   C263 2195   1.281   5.084   1.818 -0.6243  0.7226 -0.3480
    7MOL   H264 2196   1.428   4.933   1.826  0.1250  1.8424  0.8473
    7MOL   H265 2197   1.411   4.849   1.601 -0.1505  1.0945 -0.4339
    7MOL   H266 2198   1.395   4.710   1.725 -1.3999 -1.0038  0.2094
    7MOL   H267 2199   1.210   4.787   1.493 -0.3621 -0.7689 -1.2081
    7MOL   H268 2200   1.196   4.633   1.584 -2.0758  0.9091 -0.8321
    7MOL   H269 2201   1.429   4.719   1.398  1.5205 -0.4294  1.3051
    7MOL   H270 2202   1.316   4.603   1.351  1.5494 -2.4722 -0.6839
    7MOL   H271 2203   1.433   4.560   1.473  0.7772  0.4772 -0.0223
    7MOL   H272 2204   1.178   5.099   1.848 -1.2669 -0.0021 -2.1152
    7MOL   H273 2205   1.326   5.136   1.902  0.3873 -0.4244 -0.1656
    7MOL   C274 2206   1.315   5.144   1.682 -0.0193  0.1471 -0.7135
    7MOL   O275 2207   1.193   5.166   1.609 -0.5709 -0.2897  0.1068
    7MOL   C276 2208   1.135   5.063   1.532  0.0738 -0.1256 -0.3518
    7MOL   C277 2209   1.023   5.113   1.452 -0.1116  0.3390  0.4605
    7MOL   C278 2210   0.899   5.178   1.512  0.4107 -0.3867  0.1391
    7MOL   C279 2211   1.381   5.285   1.691  0.4167 -0.2863  0.6321
    7MOL   H280 2212   1.388   5.088   1.624 -1.2698 -2.5350  0.2005
    7MOL   H281 2213   1.217   5.026   1.469  0.6362  1.1094 -0.3586
    7MOL   H282 2214   1.088   4.986   1.594  0.2694 -1.0430 -1.3126
    7MOL   H283 2215   0.974   5.030   1.400 -1.0215  1.8260 -1.1007
    7MOL   H284 2216   1.060   5.179   1.373  0.4184 -0.2519  0.2067
    7MOL   H285 2217   0.825   5.174   1.432 -0.5216 -1.3482  1.0356
    7MOL   H286 2218   0.914   5.272   1.564  1.0099 -0.1078 -0.5240
    7MOL   H287 2219   0.853   5.113   1.586 -0.9909  1.1650  0.6531
    7MOL   H288 2220   1.403   5.326   1.592  0.6257 -2.2509 -0.1696
    7MOL   H289 2221   1.304   5.348   1.735 -0.9436 -0.6710 -1.1399
    7MOL   C290 2222   1.516   5.297   1.773  0.1681  0.6396 -0.5339
    7MOL   O291 2223   1.593   5.191   1.724  0.1978 -0.1952 -0.0152
    7MOL   C292 2224   1.689   5.141   1.810 -0.5599  0.6902  0.2482
    7MOL   C293 2225   1.824   5.105   1.730 -0.1554  0.4392 -0.1418
    7MOL   C294 2226   1.807   4.988   1.630  0.4087  0.5032 -0.3954
    7MOL   C295 2227   1.597   5.433   1.764  0.0056 -0.5190  0.0470
    7MOL   H296 2228   1.492   5.281   1.878 -1.5957  1.4802 -0.7839
    7MOL   H297 2229   1.702   5.213   1.890 -0.2958  0.7028  0.1919
    7MOL   H298 2230   1.653   5.051   1.860 -1.7676  1.3875  0.6513
    7MOL   H299 2231   1.899   5.080   1.806 -0.1973 -3.9433 -1.3845
    7MOL   H300 2232   1.846   5.198   1.677 -1.0260  1.1357  0.6938
    7MOL   H301 2233   1.898   4.973   1.572  0.2533 -1.0150 -0.2555
    7MOL   H302 2234   1.714   5.012   1.577 -0.6588 -1.2246  0.6455
    7MOL   H303 2235   1.797   4.889   1.674  1.5382  0.7950  0.5390
    7MOL   H304 2236   1.691   5.431   1.819 -0.4211 -0.9627  0.7617
    7MOL   H305 2237   1.626   5.463   1.663 -0.0652  1.2285  0.5299
    7MOL   C306 2238   1.521   5.548   1.836 -0.6650 -0.0375  0.5408
    7MOL   O307 2239   1.511   5.523   1.978 -0.0770  0.3209  0.5127
    7MOL   C308 2240   1.378   5.552   2.024  0.9296  0.0102  0.1751
    7MOL   C309 2241   1.372   5.560   2.179  0.2184 -0.2242  0.5143
    7MOL   C310 2242   1.427   5.427   2.236  0.3915  0.6333 -0.3047
    7MOL   C311 2243   1.577   5.682   1.810 -0.0211  0.1640  1.1043
    7MOL   H312 2244   1.423   5.543   1.789 -1.8548 -0.8844  3.0784
    7MOL   H313 2245   1.351   5.653   1.993  1.7242  0.1063 -0.2114
    7MOL   H314 2246   1.303   5.480   1.989 -0.4050  1.5211 -0.1475
    7MOL   H315 2247   1.274   5.583   2.220 -1.6497 -0.9831 -3.3167
    7MOL   H316 2248   1.433   5.646   2.205  0.4272  0.2898 -1.6015
    7MOL   H317 2249   1.342   5.358   2.235 -0.1893  1.3524 -0.8661
    7MOL   H318 2250   1.465   5.442   2.337 -0.8253 -0.2208  0.3050
    7MOL   H319 2251   1.507   5.387   2.174  0.0609  1.5714 -1.3565
    7MOL   H320 2252   1.587   5.702   1.703 -0.0707 -0.7466  0.9314
    7MOL   H321 2253   1.515   5.768   1.835  1.3421  1.4910  0.0502
    7MOL   H322 2254   1.678   5.692   1.849 -0.4343 -2.1069  2.7965
    8MOL     C1 2255   0.607   4.576   6.436  0.0866 -0.2089  1.1540
    8MOL     O2 2256   0.655   4.457   6.367 -0.0019 -0.2428  0.2732
    8MOL     C3 2257   0.690   4.488   6.233  0.1960  0.5299 -0.4196
    8MOL     C4 2258   0.798   4.394   6.182 -0.4985  0.1904 -0.1577
    8MOL     C5 2259   0.823   4.410   6.037  0.2740  0.6690 -0.4140
    8MOL     C6 2260   0.572   4.535   6.576  0.6545 -0.6816 -0.6370
    8MOL     H7 2261   0.529   4.637   6.392  0.5320 -0.7948 -0.4951
    8MOL     H8 2262   0.597   4.482   6.176 -0.4644 -0.4316  0.7186
    8MOL     H9 2263   0.732   4.588   6.235 -0.7328  0.9233  0.9188
    8MOL    H10 2264   0.770   4.290   6.201 -1.0546 -0.3667 -3.6346
    8MOL    H11 2265   0.901   4.405   6.217 -0.4993  1.8091 -0.6539
    8MOL    H12 2266   0.726   4.414   5.986 -0.9709 -1.0501  1.7508
    8MOL    H13 2267   0.891   4.340   5.990  0.3557 -2.3658  3.9927
    8MOL    H14 2268   0.869   4.509   6.027  2.3164 -0.2996 -0.8875
    8MOL    H15 2269   0.510   4.445   6.571 -0.2099 -0.0349 -1.8736
    8MOL    H16 2270   0.667   4.502   6.617  0.8475  2.0172  1.1494
    8MOL    H17 2271   0.689   4.648   6.443 -0.6950  0.5008  2.9750
    8MOL    C18 2272   0.536   4.647   6.676  0.4141  0.1310 -0.0371
    8MOL    O19 2273   0.396   4.677   6.658  0.1663  0.1207 -0.4790
    8MOL    C20 2274   0.356   4.808   6.705 -0.0212  0.5437 -0.1483
    8MOL    C21 2275   0.204   4.814   6.750 -0.2515 -0.6887  0.0634
    8MOL    C22 2276   0.122   4.770   6.630  0.3927 -0.1120  0.5331
    8MOL    C23 2277   0.565   4.607   6.820 -0.2126  0.1525  0.3134
    8MOL    H24 2278   0.585   4.740   6.647 -0.4924  0.6661  0.1085
    8MOL    H25 2279   0.423   4.850   6.780 -0.4212 -1.8354  1.6136
    8MOL    H26 2280   0.371   4.865   6.614 -1.3847 -0.1778 -0.8386
    8MOL    H27 2281   0.184   4.919   6.771 -2.4588 -0.9431 -0.6918
    8MOL    H28 2282   0.186   4.769   6.848 -3.3547  0.7725  0.2201
    8MOL    H29 2283   0.015   4.758   6.649  0.0994  1.4845  0.0025
    8MOL    H30 2284   0.156   4.676   6.587  3.8493 -0.3629  3.6665
    8MOL    H31 2285   0.127   4.852   6.557  0.0818  0.5547  1.2558
    8MOL    H32 2286   0.673   4.603   6.833  0.0042 -1.0990 -1.6216
    8MOL    H33 2287   0.529   4.697   6.870 -1.4605  1.0642 -2.1224
    8MOL    C34 2288   0.500   4.484   6.891  0.6493 -0.1907 -0.0473
    8MOL    O35 2289   0.560   4.497   7.023 -0.2758  0.1078 -0.2658
    8MOL    C36 2290   0.643   4.388   7.066 -0.0518 -0.4565  0.0715
    8MOL    C37 2291   0.720   4.433   7.195  0.6176  0.1382  0.8738
    8MOL    C38 2292   0.816   4.550   7.169  0.3070 -0.0753 -0.1664
    8MOL    C39 2293   0.347   4.486   6.900  0.1059 -0.0080 -0.2397
    8MOL    H40 2294   0.546   4.393   6.853 -0.3808 -1.8931  2.5799
    8MOL    H41 2295   0.582   4.299   7.079 -0.4213 -0.5066 -1.8722
    8MOL    H42 2296   0.721   4.370   6.992  0.4849  2.7584 -0.2385
    8MOL    H43 2297   0.787   4.358   7.237  0.8625 -0.1447 -0.0034
    8MOL    H44 2298   0.644   4.459   7.268  1.1623  3.5008  0.2964
    8MOL    H45 2299   0.762   4.641   7.146  0.2965 -0.0259  0.0582
    8MOL    H46 2300   0.886   4.536   7.086  2.3712  0.8989  1.3465
    8MOL    H47 2301   0.872   4.557   7.262  0.0269  1.3206 -0.1019
    8MOL    H48 2302   0.306   4.583   6.927  0.5843  0.8911 -2.6103
    8MOL    H49 2303   0.305   4.469   6.801  2.8363 -0.1731 -1.4157
    8MOL    C50 2304   0.286   4.368   6.984  0.3523 -0.2904  0.0694
    8MOL    O51 2305   0.145   4.382   6.996 -0.1807  0.0151  0.1644
    8MOL    C52 2306   0.095   4.476   7.093 -0.1116 -1.1211  0.5201
    8MOL    C53 2307   7.780   4.518   7.061 -0.0607 -0.2798 -0.0777
    8MOL    C54 2308   7.778   4.638   6.965 -0.2161 -0.0077 -0.3576
    8MOL    C55 2309   0.311   4.240   6.913  0.0760  0.1588  0.2648
    8MOL    H56 2310   0.327   4.378   7.085 -0.1783  1.0475  0.1668
    8MOL    H57 2311   0.110   4.433   7.192  3.3120  0.1343  0.6165
    8MOL    H58 2312   0.158   4.565   7.093 -2.7445  0.7731  0.5592
    8MOL    H59 2313   7.728   4.539   7.155  2.1724 -2.2029  1.6396
    8MOL    H60 2314   7.734   4.426   7.025 -0.9350  0.1278 -0.0400
    8MOL    H61 2315   7.825   4.605   6.872  2.1474 -1.4982  1.3051
    8MOL    H62 2316   0.012   4.718   7.006 -0.7818  0.8890 -1.2312
    8MOL    H63 2317   7.675   4.671   6.955 -0.2120 -0.1672 -0.9258
    8MOL    H64 2318   0.258   4.258   6.820 -0.0713  0.3793  0.3907
    8MOL    H65 2319   0.412   4.207   6.888 -0.1619 -0.8863  0.6667
    8MOL    C66 2320   0.248   4.118   6.976  0.1884  0.5572  0.5592
    8MOL    O67 2321   0.292   4.000   6.902  0.7447  0.0507 -0.7946
    8MOL    C68 2322   0.201   3.960   6.794  0.0768 -0.5486  0.0862
    8MOL    C69 2323   0.192   3.810   6.785  0.3737  0.3922 -0.2568
    8MOL    C70 2324   0.325   3.753   6.731 -0.5901 -0.7643  0.3791
    8MOL    C71 2325   0.289   4.090   7.122 -0.4261 -0.0718  0.1203
    8MOL    H72 2326   0.140   4.130   6.976  0.1056 -0.1559 -0.5655
    8MOL    H73 2327   0.098   3.994   6.805  0.6378  2.0608 -2.1509
    8MOL    H74 2328   0.239   4.009   6.704  1.1199 -0.7745  0.3936
    8MOL    H75 2329   0.108   3.792   6.719  0.6742 -0.7226 -0.3637
    8MOL    H76 2330   0.172   3.766   6.883 -2.7725  1.1570 -0.5179
    8MOL    H77 2331   0.409   3.781   6.794 -0.4755 -0.8048  0.2435
    8MOL    H78 2332   0.360   3.775   6.631  0.0128 -0.0423  0.7495
    8MOL    H79 2333   0.329   3.645   6.745 -0.7503 -0.6434  1.4024
    8MOL    H80 2334   0.397   4.073   7.122 -0.6262 -1.3858 -0.0854
    8MOL    H81 2335   0.272   4.183   7.175 -2.4614 -0.5730  0.3788
    8MOL    C82 2336   0.210   3.970   7.190  0.3893  0.7435  0.9986
    8MOL    O83 2337   0.295   3.959   7.312  0.1662  0.1967 -0.4075
    8MOL    C84 2338   0.287   3.830   7.373  0.1843 -0.3368  0.1132
    8MOL    C85 2339   0.382   3.825   7.493  0.1512  0.3624 -0.3184
    8MOL    C86 2340   0.529   3.853   7.464  0.1681 -0.3963 -0.6161
    8MOL    C87 2341   0.063   3.996   7.221 -0.5806  0.0979  1.2110
    8MOL    H88 2342   0.217   3.879   7.130  0.2014  2.1535 -1.2312
    8MOL    H89 2343   0.186   3.802   7.400  0.9682 -2.7173  0.6630
    8MOL    H90 2344   0.324   3.749   7.311  2.7992  1.7648 -1.1969
    8MOL    H91 2345   0.369   3.734   7.552 -4.0972  0.4431 -0.9963
    8MOL    H92 2346   0.341   3.910   7.547 -0.4493  0.4101 -0.8352
    8MOL    H93 2347   0.588   3.833   7.553 -1.3050 -0.0882  0.4658
    8MOL    H94 2348   0.545   3.954   7.428  1.0261 -0.8060 -1.3796
    8MOL    H95 2349   0.559   3.792   7.379 -2.4074 -0.5347 -1.4700
    8MOL    H96 2350   0.048   4.043   7.318 -1.0674 -2.4025  2.3918
    8MOL    H97 2351   0.042   4.064   7.139  2.0303 -0.5758 -0.0546
    8MOL    C98 2352   7.792   3.887   7.187 -0.2196  0.5906 -0.0471
    8MOL    O99 2353   7.799   3.780   7.289  0.8041 -0.2260  0.4608
    8MOL   C100 2354   0.016   3.657   7.236 -0.0397  0.2349  0.4428
    8MOL   C101 2355   7.826   3.539   7.334 -0.1142  0.3566  0.6071
    8MOL   C102 2356   7.674   3.519   7.377  0.1017  0.5219  0.1989
    8MOL   C103 2357   7.647   3.944   7.176 -0.0941 -0.2008  0.1772
    8MOL   H104 2358   7.806   3.846   7.087  1.1996 -1.0402  0.7871
    8MOL   H105 2359   7.810   3.626   7.137  3.4257  0.3292 -0.8535
    8MOL   H106 2360   0.125   3.658   7.227  0.0680 -1.5987  1.3265
    8MOL   H107 2361   0.058   3.566   7.420  0.8487 -1.1772  0.4463
    8MOL   H108 2362   0.050   3.452   7.293 -0.9689 -0.5269  1.3782
    8MOL   H109 2363   7.669   3.442   7.453  0.4772  1.9043  1.6467
    8MOL   H110 2364   7.615   3.493   7.289 -0.5925 -1.8438  1.3196
    8MOL   H111 2365   7.634   3.609   7.424  1.1022  0.3207  1.4332
    8MOL   H112 2366   7.574   3.886   7.232 -2.5869  0.2241 -2.4676
    8MOL   H113 2367   7.636   4.044   7.218 -0.1388  0.0456 -0.4147
    8MOL   C114 2368   7.589   3.937   7.034 -0.2747  0.2399 -0.6074
    8MOL   O115 2369   7.683   4.012   6.959  0.2899  0.3840  0.9003
    8MOL   C116 2370   7.634   4.143   6.924  0.2611  0.6733  0.3801
    8MOL   C117 2371   7.710   4.196   6.800  0.1512 -0.1807  0.1101
    8MOL   C118 2372   7.643   4.329   6.748  0.4568  0.2790 -0.3990
    8MOL   C119 2373   7.573   3.797   6.976  0.2045 -0.8389  0.6413
    8MOL   H120 2374   7.491   3.983   7.043 -2.0232 -3.7091  1.9165
    8MOL   H121 2375   7.528   4.141   6.898  0.2807  1.3735  0.2325
    8MOL   H122 2376   7.650   4.207   7.011  0.3275  1.2116 -0.0309
    8MOL   H123 2377   7.706   4.118   6.725  0.3986  0.2351 -0.3382
    8MOL   H124 2378   7.814   4.217   6.823 -0.1821  3.3541 -1.1957
    8MOL   H125 2379   7.629   4.396   6.834 -0.6927 -1.4380  0.7877
    8MOL   H126 2380   7.542   4.320   6.708  0.5869  1.6194 -1.0482
    8MOL   H127 2381   7.697   4.388   6.674  0.4599  1.2711  0.3845
    8MOL   H128 2382   7.658   3.730   6.992  0.1224 -0.8692  0.9681
    8MOL   H129 2383   7.496   3.750   7.038  0.1163 -1.7830 -0.1621
    8MOL   C130 2384   7.534   3.798   6.825  0.3029 -0.2078 -0.0529
    8MOL   O131 2385   7.500   3.665   6.783  0.0188 -0.0102 -1.1638
    8MOL   C132 2386   7.608   3.578   6.767 -0.2539  0.2478  0.3625
    8MOL   C133 2387   7.567   3.469   6.666 -1.1050  0.6124  0.0182
    8MOL   C134 2388   7.501   3.516   6.540  0.0814 -0.1786 -0.5388
    8MOL   C135 2389   7.404   3.878   6.791 -0.2793  0.0143  0.0080
    8MOL   H136 2390   7.618   3.837   6.768  1.6904 -0.7136  1.6122
    8MOL   H137 2391   7.693   3.629   6.723 -0.6686  1.1706  0.6167
    8MOL   H138 2392   7.626   3.526   6.862 -1.7218 -1.5900 -0.3247
    8MOL   H139 2393   7.506   3.389   6.709  0.5931 -0.4839  0.4343
    8MOL   H140 2394   7.644   3.399   6.635 -2.1993 -0.3110 -0.6803
    8MOL   H141 2395   7.573   3.583   6.493  0.8302 -0.2528  0.4922
    8MOL   H142 2396   7.413   3.575   6.566  0.2228  0.1456 -0.7923
    8MOL   H143 2397   7.472   3.437   6.471 -3.4135  0.1907  0.4356
    8MOL   H144 2398   7.318   3.833   6.842 -1.8094  0.9191 -1.7067
    8MOL   H145 2399   7.401   3.976   6.839 -3.2130  0.6661 -1.3719
    8MOL   C146 2400   7.380   3.904   6.637 -0.6981  0.9518  0.6447
    8MOL   O147 2401   7.287   4.010   6.616 -0.5546  0.1009  0.4884
    8MOL   C148 2402   7.153   3.968   6.630  0.5606 -0.3527  0.1904
    8MOL   C149 2403   7.041   4.058   6.589 -0.9203 -0.0329  0.1178
    8MOL   C150 2404   7.051   4.115   6.452 -0.6490 -0.2743 -0.1288
    8MOL   C151 2405   7.506   3.960   6.553 -0.2354 -0.0235  0.2300
    8MOL   H152 2406   7.346   3.808   6.597  4.1461 -0.7011  0.2542
    8MOL   H153 2407   7.132   3.873   6.581 -1.3932 -0.4081  1.0755
    8MOL   H154 2408   7.139   3.930   6.731  1.8802 -0.3574  0.3722
    8MOL   H155 2409   7.033   4.139   6.662 -0.1573 -0.3645  0.5698
    8MOL   H156 2410   6.946   4.005   6.586  0.0910 -1.9769  1.7386
    8MOL   H157 2411   6.974   4.191   6.438 -0.5780 -0.6113 -2.6315
    8MOL   H158 2412   7.037   4.038   6.376  1.5471 -1.4929  0.6772
    8MOL   H159 2413   7.147   4.159   6.427 -1.3099  1.1337 -0.2092
    8MOL   H160 2414   7.527   4.062   6.585  0.7950 -0.2900  0.4139
    8MOL   H161 2415   7.590   3.895   6.580  0.0945  0.9634  1.5875
    8MOL   C162 2416   7.476   3.971   6.390 -0.6207 -0.6571 -0.2220
    8MOL   O163 2417   7.569   4.057   6.327  0.9424 -0.2334  0.5426
    8MOL   C164 2418   7.535   4.194   6.354  0.1633 -0.2944  0.5121
    8MOL   C165 2419   7.593   4.284   6.248 -0.2650 -0.2468  0.7072
    8MOL   C166 2420   7.747   4.282   6.227  0.6762  0.2179 -0.7163
    8MOL   C167 2421   7.493   3.836   6.331  0.2359 -0.0279  0.2963
    8MOL   H168 2422   7.375   4.010   6.377 -0.7494 -0.5657  0.9307
    8MOL   H169 2423   7.428   4.213   6.345 -0.3325 -2.5980  1.2959
    8MOL   H170 2424   7.569   4.235   6.450 -1.1436  3.3449 -0.4900
    8MOL   H171 2425   7.567   4.383   6.285 -1.3207 -0.1232 -0.3416
    8MOL   H172 2426   7.548   4.269   6.150 -1.3996  0.7147  1.0695
    8MOL   H173 2427   7.795   4.304   6.322 -2.2319 -3.4177  1.7375
    8MOL   H174 2428   7.781   4.349   6.148  0.3561  0.7642 -0.3948
    8MOL   H175 2429   7.773   4.181   6.195 -1.7532 -0.1611 -1.6541
    8MOL   H176 2430   7.580   3.797   6.384  0.0868 -0.6893  0.0559
    8MOL   H177 2431   7.414   3.767   6.359 -0.8695  1.3385  0.6368
    8MOL   C178 2432   7.506   3.840   6.171 -1.0744 -0.0788 -0.2008
    8MOL   O179 2433   7.545   3.723   6.109 -0.4251  0.6470  0.1214
    8MOL   C180 2434   7.639   3.646   6.184  0.1252  0.6925  0.1450
    8MOL   C181 2435   7.691   3.545   6.081 -0.2298 -0.8386 -0.1745
    8MOL   C182 2436   7.589   3.448   6.025 -0.6027 -0.5461 -0.4346
    8MOL   C183 2437   7.390   3.903   6.099 -0.0798  0.3010  0.2400
    8MOL   H184 2438   7.585   3.907   6.137 -1.4558 -0.7962 -2.5578
    8MOL   H185 2439   7.719   3.707   6.227  3.0259 -1.2940 -2.2150
    8MOL   H186 2440   7.591   3.579   6.255 -0.2896  2.2087  1.3063
    8MOL   H187 2441   7.774   3.489   6.125  0.2070 -1.1486 -1.3908
    8MOL   H188 2442   7.715   3.609   5.997 -0.5223  0.9697  1.0830
    8MOL   H189 2443   7.515   3.509   5.974  0.8431  1.1988 -0.4995
    8MOL   H190 2444   7.526   3.390   6.092  0.9773 -1.2073  0.5157
    8MOL   H191 2445   7.630   3.385   5.946  0.7888  0.5890 -0.6356
    8MOL   H192 2446   7.310   3.830   6.108 -0.4949  0.5304 -1.4289
    8MOL   H193 2447   7.348   3.994   6.140 -1.4379  0.1578 -0.7887
    8MOL   C194 2448   7.411   3.932   5.947  0.1957 -0.2153  0.7703
    8MOL   O195 2449   7.291   3.951   5.875 -0.6125  0.5351 -0.2570
    8MOL   C196 2450   7.229   3.832   5.828  0.5232 -0.5695  0.6104
    8MOL   C197 2451   7.122   3.881   5.732  0.2932  0.7019  0.1541
    8MOL   C198 2452   7.155   3.985   5.618  0.0451  0.7267 -0.0265
    8MOL   C199 2453   7.494   4.062   5.920  0.0035 -0.5426  0.5298
    8MOL   H200 2454   7.469   3.860   5.889 -0.9431  1.6484 -2.8335
    8MOL   H201 2455   7.297   3.767   5.773  0.3044 -1.8687  1.8422
    8MOL   H202 2456   7.187   3.763   5.901 -1.8761 -0.0703 -0.2415
    8MOL   H203 2457   7.058   3.941   5.797 -1.3805 -1.8932  0.9589
    8MOL   H204 2458   7.052   3.806   5.696  0.7756 -0.4391  1.5597
    8MOL   H205 2459   7.074   4.058   5.613 -1.4868 -0.8887  0.7123
    8MOL   H206 2460   7.166   3.943   5.519 -0.6035 -0.3141  0.3428
    8MOL   H207 2461   7.244   4.045   5.637 -0.9541  1.5157  2.4309
    8MOL   H208 2462   7.442   4.145   5.968  1.0255  0.9540 -0.8540
    8MOL   H209 2463   7.590   4.042   5.968 -1.5904 -3.2719  2.7163
    8MOL   C210 2464   7.516   4.090   5.771  0.0375 -0.6826  0.5844
    8MOL   O211 2465   7.589   4.215   5.782 -0.6616 -0.3144  0.5665
    8MOL   C212 2466   7.572   4.296   5.667 -0.0515  0.1955  0.2644
    8MOL   C213 2467   7.645   4.425   5.694  0.5593  0.0062 -0.3194
    8MOL   C214 2468   7.589   4.511   5.800 -0.3507 -0.7053  0.3513
    8MOL   C215 2469   7.588   3.980   5.687  0.7383  0.0070 -0.0773
    8MOL   H216 2470   7.421   4.109   5.723  1.7631  1.0396 -2.3207
    8MOL   H217 2471   7.616   4.260   5.575 -0.4371  1.2931 -0.3626
    8MOL   H218 2472   7.469   4.324   5.644 -0.5565  1.0888  3.3916
    8MOL   H219 2473   7.645   4.470   5.595  0.0155  2.4714  0.7846
    8MOL   H220 2474   7.749   4.408   5.720  0.4865 -1.6459 -1.0225
    8MOL   H221 2475   7.491   4.554   5.778  1.0461  3.1171  1.2532
    8MOL   H222 2476   7.647   4.600   5.822 -1.4023  0.5318 -1.6910
    8MOL   H223 2477   7.587   4.459   5.896  0.7121 -0.8858  0.2852
    8MOL   H224 2478   7.513   3.908   5.656  1.3383 -0.9365  0.6373
    8MOL   H225 2479   7.620   4.024   5.593  0.4948 -1.4545 -0.8514
    8MOL   C226 2480   7.711   3.907   5.738 -0.1114 -0.1593 -0.5206
    8MOL   O227 2481   7.742   3.799   5.652 -0.2196 -0.2574  1.0157
    8MOL   C228 2482   7.658   3.684   5.677  0.2710  0.0364  0.2584
    8MOL   C229 2483   7.630   3.610   5.547  0.0556 -0.2346 -0.7779
    8MOL   C230 2484   7.547   3.693   5.440  1.1568 -0.1176  0.3222
    8MOL   C231 2485   0.005   4.003   5.737  0.0039  1.2239  0.1796
    8MOL   H232 2486   7.684   3.861   5.833  0.7365  0.8690  0.2266
    8MOL   H233 2487   7.708   3.611   5.741 -1.3503 -0.3490  1.0882
    8MOL   H234 2488   7.562   3.703   5.724 -0.0675  0.3169 -0.5266
    8MOL   H235 2489   7.570   3.525   5.579  1.2310  0.5540  3.8661
    8MOL   H236 2490   7.724   3.577   5.501 -0.3713 -1.7230 -0.6308
    8MOL   H237 2491   7.593   3.785   5.402  2.7578 -1.9051 -2.2395
    8MOL   H238 2492   7.451   3.715   5.486  0.0354 -2.5283 -0.7932
    8MOL   H239 2493   7.535   3.632   5.350 -0.9806  1.8583 -0.8146
    8MOL   H240 2494   0.031   4.039   5.637 -1.5584  0.4234 -0.5278
    8MOL   H241 2495   7.807   4.094   5.792  0.0984  1.4300 -0.1102
    8MOL   C242 2496   0.128   3.950   5.812  0.6992 -0.5476 -0.0381
    8MOL   O243 2497   0.216   4.060   5.797  0.5215 -0.0011  0.6855
    8MOL   C244 2498   0.342   4.022   5.745 -0.0581  0.3486  0.2268
    8MOL   C245 2499   0.437   4.141   5.773 -0.2792 -0.5798 -0.1734
    8MOL   C246 2500   0.461   4.160   5.923 -0.3317 -0.3592  0.1847
    8MOL   C247 2501   0.096   3.924   5.960  0.0658 -0.6749 -0.0488
    8MOL   H248 2502   0.155   3.857   5.762 -0.7448 -1.2318  0.4388
    8MOL   H249 2503   0.385   3.936   5.799  0.7722  1.1357  0.8397
    8MOL   H250 2504   0.353   3.992   5.641  0.9964  2.2109 -0.2180
    8MOL   H251 2505   0.388   4.227   5.727  1.0643  0.4453  0.2745
    8MOL   H252 2506   0.531   4.127   5.720  0.7442  0.6881  1.2979
    8MOL   H253 2507   0.523   4.076   5.953  0.8084  0.3265 -0.2156
    8MOL   H254 2508   0.372   4.160   5.985 -0.1515 -0.7396  0.4465
    8MOL   H255 2509   0.513   4.256   5.930 -0.5350 -0.0952 -1.6658
    8MOL   H256 2510   0.058   4.019   5.997 -1.1375 -0.7009 -1.1742
    8MOL   H257 2511   0.013   3.857   5.982 -1.3705  1.2992  0.5946
    8MOL   C258 2512   0.217   3.873   6.043  0.7448  0.2895 -0.3014
    8MOL   O259 2513   0.194   3.883   6.183  0.3677 -0.6359  0.3742
    8MOL   C260 2514   0.212   4.010   6.236  0.0598 -0.1575  0.4891
    8MOL   C261 2515   0.200   4.000   6.389  0.3823 -0.6369  0.2320
    8MOL   C262 2516   0.050   3.984   6.420  0.8397 -0.4030  0.3505
    8MOL   C263 2517   0.234   3.720   6.005 -0.4497  0.0264 -0.4516
    8MOL   H264 2518   0.304   3.933   6.018 -0.4539  1.8834 -0.7944
    8MOL   H265 2519   0.310   4.045   6.205 -0.7073  3.0613  1.5082
    8MOL   H266 2520   0.145   4.080   6.187  1.3808  0.4089 -0.5346
    8MOL   H267 2521   0.229   4.094   6.437 -0.0054  1.9120 -4.2307
    8MOL   H268 2522   0.263   3.918   6.423  1.8704  0.1267 -0.6224
    8MOL   H269 2523   0.005   4.082   6.403  0.0218 -0.6592  1.0315
    8MOL   H270 2524   0.037   3.946   6.521  1.3544 -2.2396 -0.2567
    8MOL   H271 2525   0.008   3.908   6.355  0.9385  0.9315 -1.3194
    8MOL   H272 2526   0.142   3.666   6.029 -0.1546 -0.2116  0.1871
    8MOL   H273 2527   0.261   3.724   5.900  1.4361  2.0439  0.0701
    8MOL   C274 2528   0.348   3.654   6.087  0.4117  0.0839 -0.4751
    8MOL   O275 2529   0.374   3.525   6.035 -0.3689  0.4900 -0.0298
    8MOL   C276 2530   0.289   3.419   6.086 -0.4242  0.6663 -0.3104
    8MOL   C277 2531   0.283   3.311   5.976 -0.5688  0.1257  0.2504
    8MOL   C278 2532   0.428   3.269   5.943 -0.0174 -0.2118  0.5989
    8MOL   C279 2533   0.480   3.732   6.098 -0.4060 -0.2521 -0.5259
    8MOL   H280 2534   0.317   3.646   6.191 -0.2842  1.5300 -0.5594
    8MOL   H281 2535   0.337   3.385   6.178  1.2878 -2.1291 -2.1583
    8MOL   H282 2536   0.187   3.456   6.098 -0.5640 -0.8734  4.2108
    8MOL   H283 2537   0.241   3.365   5.892  1.1454 -0.5207 -1.0489
    8MOL   H284 2538   0.216   3.228   5.998  1.7184 -1.4872  1.3685
    8MOL   H285 2539   0.486   3.347   5.894 -1.9635  0.0688 -1.3365
    8MOL   H286 2540   0.416   3.195   5.864 -0.9032 -2.8907  3.1589
    8MOL   H287 2541   0.489   3.233   6.026 -0.4279 -2.4919 -0.0713
    8MOL   H288 2542   0.527   3.709   6.002  0.7721 -0.5615  0.1240
    8MOL   H289 2543   0.478   3.840   6.111  0.6059 -0.1390 -1.2297
    8MOL   C290 2544   0.578   3.672   6.206  0.4499 -0.3266 -0.1870
    8MOL   O291 2545   0.709   3.691   6.158 -0.1961 -0.0673 -0.1275
    8MOL   C292 2546   0.763   3.588   6.077  1.0731 -0.2743  0.4194
    8MOL   C293 2547   0.919   3.589   6.072 -1.0304 -0.0150  0.5212
    8MOL   C294 2548   0.973   3.579   6.216  0.5925 -0.1256 -0.9524
    8MOL   C295 2549   0.549   3.739   6.347 -0.4664 -0.1620 -0.4328
    8MOL   H296 2550   0.570   3.565   6.226  0.3720  0.0065  1.6708
    8MOL   H297 2551   0.735   3.490   6.115  0.1426  0.0888  0.6799
    8MOL   H298 2552   0.737   3.594   5.971 -1.1503  2.6346  1.0550
    8MOL   H299 2553   0.941   3.686   6.028  0.8806 -0.8567 -0.4203
    8MOL   H300 2554   0.944   3.507   6.005 -2.2108  0.5121 -0.5858
    8MOL   H301 2555   0.955   3.671   6.271  0.0609  1.0151 -2.9720
    8MOL   H302 2556   1.081   3.561   6.225  0.4993 -0.2149  0.1072
    8MOL   H303 2557   0.933   3.495   6.273  0.4154 -1.1854 -2.6120
    8MOL   H304 2558   0.529   3.844   6.329  1.5733  0.1172 -1.1254
    8MOL   H305 2559   0.464   3.687   6.393  0.3883 -2.2165 -1.0902
    8MOL   C306 2560   0.668   3.721   6.437 -0.0573  0.1032  0.3219
    8MOL   O307 2561   0.636   3.796   6.555  0.1214 -0.7265  0.2146
    8MOL   C308 2562   0.726   3.910   6.579 -0.1565 -0.0841  0.0493
    8MOL   C309 2563   0.668   3.997   6.689 -0.5047  0.0219 -0.3583
    8MOL   C310 2564   0.561   4.099   6.632  0.3029 -0.2590 -0.0535
    8MOL   C311 2565   0.687   3.577   6.475  0.0754  0.4816 -0.3645
    8MOL   H312 2566   0.760   3.761   6.393  0.3857  0.9498  1.9393
    8MOL   H313 2567   0.803   3.846   6.621 -0.5971  0.5763  1.9122
    8MOL   H314 2568   0.758   3.947   6.482 -1.8764  1.3593  0.0056
    8MOL   H315 2569   0.745   4.054   6.742  1.4092 -1.1926 -1.7635
    8MOL   H316 2570   0.635   3.923   6.761 -0.1670 -0.6840 -0.9272
    8MOL   H317 2571   0.598   4.182   6.573  0.3601  0.9457  1.6452
    8MOL   H318 2572   0.506   4.137   6.718  2.5979  1.2361  0.8034
    8MOL   H319 2573   0.503   4.030   6.570  1.0922 -0.0963 -0.9854
    8MOL   H320 2574   0.734   3.515   6.399  1.7751 -1.6295  2.3128
    8MOL   H321 2575   0.760   3.582   6.556 -1.9493  0.4637  1.5248
    8MOL   H322 2576   0.602   3.516   6.507  1.9136 -0.0343  3.7612
    9MOL     C1 2577   6.241   7.083   1.086 -0.0017  0.2757 -1.0348
    9MOL     O2 2578   6.362   7.094   1.008 -0.0409  0.2038 -0.2761
    9MOL     C3 2579   6.347   7.202   0.916  0.3510  0.2458  0.5300
    9MOL     C4 2580   6.463   7.172   0.818 -0.1244 -0.4465  0.4501
    9MOL     C5 2581   6.600   7.212   0.872 -0.2964  0.4779 -0.1406
    9MOL     C6 2582   6.280   6.977   1.191 -0.5107 -0.8670 -0.4525
    9MOL     H7 2583   6.156   7.059   1.022  0.1540 -0.8823 -0.8135
    9MOL     H8 2584   6.255   7.191   0.858  0.4003 -2.7986  0.9341
    9MOL     H9 2585   6.347   7.304   0.954  0.9287  0.0313  1.1133
    9MOL    H10 2586   6.445   7.220   0.722  0.5963 -2.4967 -0.7428
    9MOL    H11 2587   6.463   7.068   0.785  1.6503  0.0606 -1.2199
    9MOL    H12 2588   6.630   7.151   0.957  1.9785 -0.4924 -1.5778
    9MOL    H13 2589   6.610   7.314   0.909 -3.5744  1.1056 -0.8808
    9MOL    H14 2590   6.677   7.204   0.795 -1.1282  0.1237 -0.9348
    9MOL    H15 2591   6.309   6.881   1.148 -0.5101 -0.9642 -0.2390
    9MOL    H16 2592   6.371   7.004   1.245 -0.5419 -1.3848 -0.1351
    9MOL    H17 2593   6.218   7.175   1.140  2.5076 -0.0890  0.7334
    9MOL    C18 2594   6.170   6.945   1.292  0.2436  0.0060  0.5272
    9MOL    O19 2595   6.060   6.871   1.226  0.4140 -0.2442  0.6125
    9MOL    C20 2596   5.942   6.947   1.204  0.0593  0.3760  0.9738
    9MOL    C21 2597   5.854   6.856   1.123 -0.1296 -0.3357  0.7755
    9MOL    C22 2598   5.724   6.925   1.092  0.3728  0.3041 -0.4288
    9MOL    C23 2599   6.222   6.873   1.418 -0.0887 -0.6066 -0.1497
    9MOL    H24 2600   6.141   7.040   1.337 -0.8414 -0.2906  0.4644
    9MOL    H25 2601   5.887   6.966   1.297 -0.4377  1.7259  0.4032
    9MOL    H26 2602   5.966   7.044   1.162 -0.0807 -0.2801 -0.6453
    9MOL    H27 2603   5.843   6.759   1.172  1.3682 -0.7702  0.2889
    9MOL    H28 2604   5.905   6.824   1.032 -1.1050  0.4583 -0.0702
    9MOL    H29 2605   5.745   7.017   1.038  0.3380  0.5174 -0.0816
    9MOL    H30 2606   5.667   6.956   1.179  1.8343  3.9716 -0.7173
    9MOL    H31 2607   5.658   6.860   1.034  2.1905  0.4892 -2.7899
    9MOL    H32 2608   6.287   6.938   1.477 -0.6250 -0.5572  0.3889
    9MOL    H33 2609   6.141   6.862   1.489 -0.3015  0.1510 -0.2647
    9MOL    C34 2610   6.288   6.734   1.398 -0.3139  0.0737 -0.9886
    9MOL    O35 2611   6.421   6.766   1.352 -0.1201 -0.4324  0.3132
    9MOL    C36 2612   6.477   6.659   1.279  0.3106 -0.4454  0.3153
    9MOL    C37 2613   6.624   6.701   1.236  0.3260  0.7279 -0.3373
    9MOL    C38 2614   6.701   6.603   1.143  0.5162 -0.6470 -0.4646
    9MOL    C39 2615   6.305   6.665   1.542  0.0672 -0.1883  0.7131
    9MOL    H40 2616   6.236   6.674   1.324  0.3252 -0.6274 -0.8667
    9MOL    H41 2617   6.469   6.565   1.334  2.2597 -1.3761 -0.9635
    9MOL    H42 2618   6.417   6.647   1.189 -0.7070  1.6057  0.6697
    9MOL    H43 2619   6.678   6.712   1.331  1.5763  0.8576 -1.0447
    9MOL    H44 2620   6.612   6.798   1.187 -0.0896  0.5293 -0.6305
    9MOL    H45 2621   6.645   6.542   1.071  0.4342 -0.6559 -0.3940
    9MOL    H46 2622   6.741   6.525   1.208  2.3210  1.0056  0.4142
    9MOL    H47 2623   6.772   6.654   1.079 -0.6843  0.9743 -0.5420
    9MOL    H48 2624   6.375   6.582   1.536  1.3019  1.0452 -3.9133
    9MOL    H49 2625   6.330   6.741   1.617  0.3371  2.0085 -1.5481
    9MOL    C50 2626   6.178   6.594   1.599 -0.1209  0.3027 -0.2574
    9MOL    O51 2627   6.200   6.457   1.623  0.3446  0.3562  0.8062
    9MOL    C52 2628   6.175   6.381   1.512 -0.2550 -0.0388 -0.0098
    9MOL    C53 2629   6.196   6.236   1.545 -0.7404  0.7088  0.6605
    9MOL    C54 2630   6.079   6.182   1.627  0.2401  0.1139 -0.3702
    9MOL    C55 2631   6.144   6.655   1.736  0.1487 -0.6283 -0.0426
    9MOL    H56 2632   6.104   6.618   1.522 -0.1946  0.3636 -0.1687
    9MOL    H57 2633   6.071   6.385   1.480  0.5178  1.9116 -2.3996
    9MOL    H58 2634   6.240   6.414   1.431  0.0108  1.0078  0.6222
    9MOL    H59 2635   6.290   6.215   1.596 -0.0545  0.6619 -0.6046
    9MOL    H60 2636   6.202   6.180   1.452  1.2829  2.6745 -0.4395
    9MOL    H61 2637   5.978   6.211   1.598 -1.0075 -2.5951  1.0868
    9MOL    H62 2638   6.096   6.201   1.733 -1.8842 -0.1396  0.0353
    9MOL    H63 2639   6.073   6.074   1.614 -0.9544  0.1644 -0.2669
    9MOL    H64 2640   6.237   6.645   1.793 -0.1079  1.1235  0.7153
    9MOL    H65 2641   6.123   6.762   1.733 -0.1078 -0.5921  1.8773
    9MOL    C66 2642   6.037   6.574   1.812 -0.8951  0.6660 -0.0484
    9MOL    O67 2643   6.009   6.636   1.936 -0.0301 -0.6260 -0.1381
    9MOL    C68 2644   5.945   6.562   2.043 -0.6250 -0.1409  0.4286
    9MOL    C69 2645   5.932   6.676   2.154 -0.6996  0.1917  0.0944
    9MOL    C70 2646   5.869   6.623   2.289  0.1846  0.0102  0.2927
    9MOL    C71 2647   5.915   6.552   1.726  0.2074  0.6796  0.0864
    9MOL    H72 2648   6.081   6.476   1.829 -1.9558  0.2962  0.5959
    9MOL    H73 2649   5.847   6.527   2.011 -0.4522  1.3099 -1.8151
    9MOL    H74 2650   6.003   6.479   2.082  0.9940  1.5040  1.6420
    9MOL    H75 2651   5.873   6.758   2.112 -0.7394 -0.1840 -0.5813
    9MOL    H76 2652   6.036   6.709   2.162 -0.2008 -0.7384 -2.2293
    9MOL    H77 2653   5.766   6.594   2.270  0.6798 -1.3947 -0.3285
    9MOL    H78 2654   5.871   6.694   2.372 -0.6278  0.6388 -0.2146
    9MOL    H79 2655   5.925   6.536   2.323 -1.0328 -0.2964  1.5050
    9MOL    H80 2656   5.933   6.482   1.645 -1.1593 -1.1722  1.3134
    9MOL    H81 2657   5.841   6.499   1.787  0.6328  0.9644  0.8605
    9MOL    C82 2658   5.841   6.674   1.665  0.1668 -0.5562 -0.5114
    9MOL    O83 2659   5.765   6.627   1.558  0.4528 -0.2317 -0.4550
    9MOL    C84 2660   5.835   6.598   1.432 -0.1663 -0.3449  0.2605
    9MOL    C85 2661   5.736   6.563   1.319  0.1944 -0.0768  0.0413
    9MOL    C86 2662   5.644   6.446   1.357  0.5504  0.1376 -0.1826
    9MOL    C87 2663   5.751   6.752   1.762 -0.2337 -0.4535  0.0126
    9MOL    H88 2664   5.921   6.737   1.629  0.8505 -2.0363 -1.6596
    9MOL    H89 2665   5.894   6.683   1.398  0.4582  0.3948  3.0638
    9MOL    H90 2666   5.910   6.518   1.434  1.7347  1.4079  0.4903
    9MOL    H91 2667   5.793   6.544   1.228  1.8026  2.4520  0.4601
    9MOL    H92 2668   5.670   6.648   1.302 -0.8528 -1.0037 -0.5848
    9MOL    H93 2669   5.695   6.355   1.388 -0.1260  0.2536  1.3474
    9MOL    H94 2670   5.570   6.415   1.283  0.4355  0.0851 -0.0460
    9MOL    H95 2671   5.589   6.481   1.445  1.8632  0.8281  0.3803
    9MOL    H96 2672   5.677   6.680   1.797 -0.2367  0.6666  2.4104
    9MOL    H97 2673   5.817   6.772   1.847 -0.8055  0.6089  0.2130
    9MOL    C98 2674   5.683   6.880   1.692 -0.1092  0.0159 -0.0139
    9MOL    O99 2675   5.600   6.961   1.773  0.3294 -0.2122 -0.4025
    9MOL   C100 2676   5.531   6.893   1.877  0.0634  0.0190  0.4355
    9MOL   C101 2677   5.429   6.989   1.934  0.8585 -0.4649  0.3625
    9MOL   C102 2678   5.480   7.125   1.977 -0.4710  0.5296  0.3509
    9MOL   C103 2679   5.778   6.974   1.606 -0.8520  1.0463 -0.6230
    9MOL   H104 2680   5.603   6.836   1.633 -0.5650  0.3679  0.3376
    9MOL   H105 2681   5.485   6.802   1.838  0.8518  0.2350 -1.0415
    9MOL   H106 2682   5.595   6.859   1.958  1.8938 -0.3451 -1.1448
    9MOL   H107 2683   5.372   6.945   2.016 -0.2448  2.1942  1.0532
    9MOL   H108 2684   5.357   7.010   1.855 -0.2560 -0.6880  1.3016
    9MOL   H109 2685   5.513   7.179   1.888  3.2830 -0.4339  1.0561
    9MOL   H110 2686   5.553   7.121   2.058 -1.0457  1.4409  0.9279
    9MOL   H111 2687   5.399   7.180   2.025  1.1989  3.0434  0.4344
    9MOL   H112 2688   5.844   6.914   1.544 -1.3412  0.3993 -0.5382
    9MOL   H113 2689   5.715   7.034   1.540 -1.7683 -1.6657 -2.3198
    9MOL   C114 2690   5.854   7.084   1.691 -0.4136  0.0191  0.6049
    9MOL   O115 2691   5.951   7.022   1.770 -0.1184  0.1843 -0.0168
    9MOL   C116 2692   5.970   7.082   1.896  0.0713 -0.0479 -0.0414
    9MOL   C117 2693   6.110   7.043   1.950  0.8724 -0.5136 -0.1361
    9MOL   C118 2694   6.230   7.077   1.857 -0.4378  0.0030 -0.0818
    9MOL   C119 2695   5.938   7.174   1.605 -0.2765  0.0790  0.1346
    9MOL   H120 2696   5.781   7.144   1.744 -1.3733 -1.2852  0.7737
    9MOL   H121 2697   5.975   7.191   1.892  2.2638 -0.1015  0.6955
    9MOL   H122 2698   5.878   7.059   1.950 -1.8395  1.8106 -2.3446
    9MOL   H123 2699   6.093   6.938   1.973  0.9772 -0.0741  2.0948
    9MOL   H124 2700   6.109   7.091   2.048  0.3051  1.9738 -1.3338
    9MOL   H125 2701   6.220   7.043   1.754 -2.4255 -0.5014  0.2548
    9MOL   H126 2702   6.327   7.039   1.887 -0.2926  1.3154  1.2053
    9MOL   H127 2703   6.253   7.182   1.877 -3.2179  0.2961  1.9765
    9MOL   H128 2704   5.980   7.252   1.668  0.0945  0.4028 -0.5074
    9MOL   H129 2705   6.021   7.119   1.560  0.7282  3.7036 -2.6119
    9MOL   C130 2706   5.862   7.255   1.500  0.0964 -0.0263  0.2502
    9MOL   O131 2707   5.742   7.307   1.544 -0.4559 -0.8657  0.0755
    9MOL   C132 2708   5.742   7.409   1.641  0.1719 -0.0229  0.7731
    9MOL   C133 2709   5.607   7.414   1.703 -0.2301 -0.0596 -0.1478
    9MOL   C134 2710   5.618   7.438   1.851 -0.7131 -0.0195  0.2124
    9MOL   C135 2711   5.954   7.351   1.423 -0.1053 -0.1390 -0.0228
    9MOL   H136 2712   5.835   7.177   1.429 -0.6395 -1.0811  1.6633
    9MOL   H137 2713   5.818   7.388   1.717  0.4884  1.2945  0.8351
    9MOL   H138 2714   5.778   7.504   1.603  0.0761 -0.8640 -1.4730
    9MOL   H139 2715   5.548   7.324   1.684  0.3924 -0.4927 -0.0446
    9MOL   H140 2716   5.547   7.495   1.660 -0.9775 -0.5182  0.0212
    9MOL   H141 2717   5.673   7.352   1.888 -1.2700  0.2793  1.7849
    9MOL   H142 2718   5.522   7.433   1.902 -0.3437  1.3046  1.0556
    9MOL   H143 2719   5.673   7.528   1.878  0.1155  0.0325 -1.5873
    9MOL   H144 2720   5.999   7.427   1.486 -0.0472  0.1058 -0.3627
    9MOL   H145 2721   6.040   7.296   1.382  2.2948  2.0125  1.9468
    9MOL   C146 2722   5.881   7.418   1.292 -0.3186 -0.1298  0.4858
    9MOL   O147 2723   5.968   7.509   1.218  0.1587  0.0435  0.0593
    9MOL   C148 2724   5.977   7.637   1.265  0.4240  0.1455  0.5595
    9MOL   C149 2725   6.111   7.693   1.228  0.0197  0.6280  0.0105
    9MOL   C150 2726   6.142   7.825   1.306  0.1106 -0.1201  0.6403
    9MOL   C151 2727   5.847   7.305   1.188  0.5949 -0.4779  0.0695
    9MOL   H152 2728   5.793   7.475   1.320 -0.7321  0.4880 -1.9185
    9MOL   H153 2729   5.899   7.701   1.223  0.4011  0.2091  0.6990
    9MOL   H154 2730   5.957   7.632   1.372 -1.6149  0.6938  0.2352
    9MOL   H155 2731   6.109   7.695   1.119 -2.8747  0.5487  0.0296
    9MOL   H156 2732   6.182   7.612   1.247  0.8679  1.6238  1.2058
    9MOL   H157 2733   6.088   0.083   1.268  0.8837  0.4186  0.7454
    9MOL   H158 2734   6.244   0.023   1.277  0.5651 -1.0566  1.3487
    9MOL   H159 2735   6.140   7.812   1.415 -0.0872 -2.7215  0.3573
    9MOL   H160 2736   5.941   7.260   1.157  1.5435  1.2840  0.2713
    9MOL   H161 2737   5.784   7.227   1.230  0.5196  1.0469  2.9778
    9MOL   C162 2738   5.774   7.361   1.069 -0.0458 -0.5167  0.0582
    9MOL   O163 2739   5.767   7.254   0.972 -0.5715  0.1129  0.2585
    9MOL   C164 2740   5.874   7.253   0.873 -0.0465 -0.1259 -0.6524
    9MOL   C165 2741   5.875   7.121   0.803 -0.1277  0.2851  0.1867
    9MOL   C166 2742   5.747   7.105   0.715  0.1912 -0.5264 -0.4824
    9MOL   C167 2743   5.638   7.405   1.112 -0.4994 -0.3537 -0.5940
    9MOL   H168 2744   5.826   7.437   1.011 -0.1280  0.2570  0.9983
    9MOL   H169 2745   5.856   7.334   0.802 -2.0582 -0.3320 -0.3834
    9MOL   H170 2746   5.973   7.260   0.920 -0.9193  2.9237  0.9075
    9MOL   H171 2747   5.881   7.037   0.873  1.2840  0.2872  0.0803
    9MOL   H172 2748   5.965   7.119   0.741 -0.5278 -1.9127 -0.3871
    9MOL   H173 2749   5.754   7.015   0.655  1.7254 -0.3281 -0.6202
    9MOL   H174 2750   5.732   7.189   0.648  0.6380 -1.4813 -1.7917
    9MOL   H175 2751   5.653   7.109   0.770 -2.2234  0.9780 -4.5275
    9MOL   H176 2752   5.587   7.326   1.168 -0.6696  0.9002  1.0440
    9MOL   H177 2753   5.644   7.493   1.175 -1.1145 -0.1943 -0.7558
    9MOL   C178 2754   5.550   7.445   0.991  0.2601  0.0775  0.4641
    9MOL   O179 2755   5.412   7.456   1.032  0.3252  0.0426 -0.0404
    9MOL   C180 2756   5.327   7.343   1.023 -0.3242 -0.9851 -1.1233
    9MOL   C181 2757   5.194   7.395   1.086 -0.0864  0.7108  0.1846
    9MOL   C182 2758   5.079   7.294   1.068  0.0276 -0.1453 -0.2215
    9MOL   C183 2759   5.578   7.590   0.942  0.7614  0.4001  0.8891
    9MOL   H184 2760   5.556   7.380   0.903 -2.9842  0.6592 -0.2662
    9MOL   H185 2761   5.323   7.326   0.915  1.5219 -1.4129 -1.1446
    9MOL   H186 2762   5.378   7.260   1.072 -0.8268  0.4576  1.9890
    9MOL   H187 2763   5.177   7.501   1.070 -3.2778  0.4421  1.4576
    9MOL   H188 2764   5.208   7.407   1.193  1.6945  2.5979 -0.2114
    9MOL   H189 2765   5.098   7.204   1.125 -1.1928 -0.2966 -0.0469
    9MOL   H190 2766   5.066   7.276   0.961 -1.4329 -1.6768  0.1966
    9MOL   H191 2767   4.985   7.338   1.100 -1.0324  0.1526 -3.5697
    9MOL   H192 2768   5.551   7.653   1.027 -1.1600 -0.4448  0.9360
    9MOL   H193 2769   5.683   7.612   0.925  0.3517  1.1657 -0.6781
    9MOL   C194 2770   5.500   7.636   0.815 -0.1589 -0.1707  1.2517
    9MOL   O195 2771   5.494   7.780   0.801  0.0398 -0.0971 -0.2325
    9MOL   C196 2772   5.429   7.823   0.680 -0.1850 -0.0317  0.1620
    9MOL   C197 2773   5.407   0.145   0.697 -0.2764  0.0194  0.2568
    9MOL   C198 2774   5.358   0.181   0.839  1.2525  0.2336 -0.1968
    9MOL   C199 2775   5.572   7.575   0.687  0.1165 -0.6162 -0.3863
    9MOL   H200 2776   5.400   7.595   0.827 -0.5858  0.8575  1.2264
    9MOL   H201 2777   5.496   7.815   0.594  0.5495  0.8183  0.6478
    9MOL   H202 2778   5.332   7.775   0.669 -0.5447  0.5476  0.7588
    9MOL   H203 2779   5.347   0.175   0.611 -0.1104 -3.0356 -1.0027
    9MOL   H204 2780   5.505   0.190   0.682  0.0923 -0.7941  0.1846
    9MOL   H205 2781   5.289   0.103   0.874  0.1418  1.1998 -0.2307
    9MOL   H206 2782   5.314   0.280   0.841  1.1011  0.1549  0.9338
    9MOL   H207 2783   5.441   0.176   0.910  0.3165  1.4636  1.0102
    9MOL   H208 2784   5.642   7.646   0.643 -1.7598  1.7406  0.3407
    9MOL   H209 2785   5.638   7.498   0.728  2.3733  2.8412  2.7169
    9MOL   C210 2786   5.479   7.512   0.579 -0.1764  0.2653 -0.3892
    9MOL   O211 2787   5.569   7.469   0.471  0.2541 -0.2256  0.6491
    9MOL   C212 2788   5.552   7.555   0.359  0.0249  0.2463  0.7264
    9MOL   C213 2789   5.656   7.519   0.250  0.5715  0.3379 -0.0274
    9MOL   C214 2790   5.686   7.369   0.239  0.1126  0.1784  0.2736
    9MOL   C215 2791   5.402   7.387   0.633  0.2023  0.3551 -0.1716
    9MOL   H216 2792   5.405   7.585   0.547 -0.0062 -0.0276 -1.4729
    9MOL   H217 2793   5.449   7.555   0.322 -0.0155 -0.4133  0.8338
    9MOL   H218 2794   5.576   7.657   0.391 -1.4437  0.7633  0.2268
    9MOL   H219 2795   5.742   7.576   0.287  1.0204 -1.5141  1.8826
    9MOL   H220 2796   5.621   7.561   0.156  0.5533  0.4080  0.0104
    9MOL   H221 2797   5.778   7.361   0.181  1.2738  2.3404  1.7375
    9MOL   H222 2798   5.623   7.301   0.182  0.4316  0.0206  0.1055
    9MOL   H223 2799   5.704   7.320   0.335  3.2674 -1.5285 -1.1024
    9MOL   H224 2800   5.460   7.297   0.652  1.6461  1.3837  0.4338
    9MOL   H225 2801   5.362   7.411   0.732  0.2000 -0.2028 -0.0399
    9MOL   C226 2802   5.276   7.346   0.542 -0.0557 -0.1000 -0.2517
    9MOL   O227 2803   5.276   7.216   0.483 -0.2942 -0.2782  0.1383
    9MOL   C228 2804   5.392   7.200   0.391  0.6083  0.5823 -0.6068
    9MOL   C229 2805   5.391   7.065   0.318  0.0227 -0.4870  0.6869
    9MOL   C230 2806   5.541   7.029   0.290 -0.7783  0.3561  0.4602
    9MOL   C231 2807   5.141   7.353   0.621 -0.7209 -0.6352 -0.2090
    9MOL   H232 2808   5.264   7.434   0.479 -1.0943  0.5083  0.7872
    9MOL   H233 2809   5.402   7.286   0.325 -1.8197  1.3792  0.0207
    9MOL   H234 2810   5.487   7.203   0.444  0.2016 -0.0153  0.1655
    9MOL   H235 2811   5.344   7.069   0.220  1.6239  1.3304 -0.0381
    9MOL   H236 2812   5.349   6.981   0.375  0.2261 -0.9422  0.1699
    9MOL   H237 2813   5.593   7.121   0.262  0.8162 -0.8673 -0.7050
    9MOL   H238 2814   5.548   6.953   0.212 -0.8664 -1.1215  1.8712
    9MOL   H239 2815   5.583   6.992   0.383 -0.3331  0.8388  0.4565
    9MOL   H240 2816   5.161   7.276   0.696 -0.5276  1.0454  1.5220
    9MOL   H241 2817   5.131   7.446   0.678 -1.0558 -1.3268  0.8825
    9MOL   C242 2818   5.018   7.342   0.529  0.3167  0.3246  1.1274
    9MOL   O243 2819   4.898   7.328   0.604 -0.5075  0.1299 -0.1337
    9MOL   C244 2820   4.873   7.188   0.613 -0.7288  0.0713  0.1951
    9MOL   C245 2821   4.786   7.148   0.728  0.7777  0.3035  0.6201
    9MOL   C246 2822   4.640   7.202   0.712  0.5622 -0.1566  0.1176
    9MOL   C247 2823   4.996   7.474   0.457 -0.0856  0.1948 -0.0653
    9MOL   H248 2824   5.031   7.268   0.450 -0.2448  0.8627  0.5233
    9MOL   H249 2825   4.823   7.153   0.523  0.2087 -2.4321  0.6116
    9MOL   H250 2826   4.956   7.120   0.631 -0.9059 -0.8350 -2.1573
    9MOL   H251 2827   4.830   7.173   0.825 -2.1019  0.7726  1.8561
    9MOL   H252 2828   4.777   7.040   0.718  1.3711  0.4536 -2.0909
    9MOL   H253 2829   4.582   7.166   0.798 -0.5064  3.8065  1.1417
    9MOL   H254 2830   4.602   7.173   0.614  0.1171 -0.4546  0.3757
    9MOL   H255 2831   4.639   7.310   0.703  0.5866 -0.0826  0.9582
    9MOL   H256 2832   4.948   7.541   0.527  2.4674  2.1001 -0.0669
    9MOL   H257 2833   5.088   7.525   0.427 -0.5701  0.3611 -1.3254
    9MOL   C258 2834   4.905   7.460   0.331 -0.9093  0.2028 -0.1027
    9MOL   O259 2835   4.840   7.583   0.306 -0.0541  0.1521 -0.3657
    9MOL   C260 2836   4.698   7.581   0.315 -0.3724  0.1470 -0.0433
    9MOL   C261 2837   4.653   7.609   0.453 -0.7375  0.4147  0.1596
    9MOL   C262 2838   4.502   7.599   0.467 -0.5447 -0.4050 -0.5379
    9MOL   C263 2839   4.993   7.415   0.208  0.1796 -0.6382  1.0414
    9MOL   H264 2840   4.830   7.384   0.356 -0.6874  0.0573  0.1313
    9MOL   H265 2841   4.656   7.655   0.247  1.0224  1.7001  0.7597
    9MOL   H266 2842   4.671   7.486   0.268 -0.4630  0.2789 -0.2566
    9MOL   H267 2843   4.691   7.703   0.493 -0.5063 -1.3516  4.3410
    9MOL   H268 2844   4.702   7.535   0.516 -0.9132 -0.3251 -0.5698
    9MOL   H269 2845   4.472   7.635   0.566 -1.9262 -3.7443  0.3239
    9MOL   H270 2846   4.456   7.501   0.458  0.8107 -0.8099 -3.7748
    9MOL   H271 2847   4.448   7.667   0.401 -0.2293  2.2453  1.8190
    9MOL   H272 2848   5.044   7.506   0.179  0.6803 -1.2902 -0.1559
    9MOL   H273 2849   5.063   7.340   0.246 -0.5273 -1.8231  0.0451
    9MOL   C274 2850   4.920   7.357   0.096  0.1693  1.0016  0.7008
    9MOL   O275 2851   4.840   7.249   0.147 -0.3907 -0.0109  0.6677
    9MOL   C276 2852   4.825   7.134   0.060 -0.2832 -0.0961 -0.4276
    9MOL   C277 2853   4.754   7.012   0.128 -0.2809  0.2330 -0.7885
    9MOL   C278 2854   4.780   6.994   0.281  0.3365  0.0758 -0.1106
    9MOL   C279 2855   4.814   7.438   0.012  0.2735  0.2271 -0.3591
    9MOL   H280 2856   5.001   7.322   0.031 -0.9937  2.4594 -1.5748
    9MOL   H281 2857   4.767   7.150   7.797  1.0426 -0.1498 -1.2831
    9MOL   H282 2858   4.929   7.108   0.042 -0.3139 -1.2650  0.9768
    9MOL   H283 2859   4.795   6.934   0.065 -0.4821 -1.5921  1.2985
    9MOL   H284 2860   4.648   7.019   0.104 -1.1510 -0.1148  2.6201
    9MOL   H285 2861   4.885   6.997   0.313 -0.3350 -2.6186  2.5359
    9MOL   H286 2862   4.744   6.899   0.319 -0.7263  0.8672  0.8586
    9MOL   H287 2863   4.729   7.074   0.335  0.3915  1.5130 -2.0960
    9MOL   H288 2864   4.782   7.374   7.758  0.5091 -0.4396  0.0698
    9MOL   H289 2865   4.722   7.452   0.070  2.0294 -0.8915  2.8071
    9MOL   C290 2866   4.870   7.568   7.778  0.5354 -0.0187  0.5552
    9MOL   O291 2867   4.961   7.534   7.674  0.0171  0.1083  0.2221
    9MOL   C292 2868   5.096   7.570   7.703 -0.5765 -0.7251 -0.1497
    9MOL   C293 2869   5.189   7.550   7.585 -0.5171 -0.3809 -0.4122
    9MOL   C294 2870   5.219   7.408   7.546 -0.0351 -0.8276 -0.1158
    9MOL   C295 2871   4.759   7.657   7.707  0.4070  0.7966  0.1915
    9MOL   H296 2872   4.902   7.635   0.030 -2.0373  2.6010 -0.5090
    9MOL   H297 2873   5.096   7.675   7.734 -0.4185 -0.1063 -2.1240
    9MOL   H298 2874   5.126   7.515   7.792 -1.5550 -0.2585  0.4734
    9MOL   H299 2875   5.283   7.601   7.607  0.2105 -1.3957 -1.1865
    9MOL   H300 2876   5.149   7.610   7.503 -1.3045 -1.2947 -0.6934
    9MOL   H301 2877   5.298   7.403   7.472 -1.0694 -1.1438 -1.2044
    9MOL   H302 2878   5.130   7.357   7.508  1.0620 -3.1084  0.2807
    9MOL   H303 2879   5.265   7.342   7.621  0.2296 -0.8621 -0.3094
    9MOL   H304 2880   4.711   7.593   7.633  1.2602  0.1600  0.1875
    9MOL   H305 2881   4.672   7.661   7.772  0.9584 -0.2110  1.0053
    9MOL   C306 2882   4.794   7.800   7.658  0.1444 -0.0050 -0.3432
    9MOL   O307 2883   4.709   0.019   7.553  0.3699  0.4940 -0.4786
    9MOL   C308 2884   4.736   7.801   7.421  0.5139  0.5988 -0.1625
    9MOL   C309 2885   4.808   0.085   7.349 -0.1289 -0.8957 -0.7375
    9MOL   C310 2886   4.730   0.220   7.346 -0.0298  0.3215 -0.0434
    9MOL   C311 2887   4.796   0.090   7.759  0.3961  0.2154  1.0171
    9MOL   H312 2888   4.890   7.795   7.606  1.4054  2.4061  1.6795
    9MOL   H313 2889   4.787   7.704   7.418 -0.0577  0.3149 -0.7889
    9MOL   H314 2890   4.642   7.783   7.370 -0.4120 -1.1161  2.0415
    9MOL   H315 2891   4.820   0.060   7.243  0.2641 -2.9980 -0.2275
    9MOL   H316 2892   4.907   0.103   7.390 -0.4848  0.3689 -0.4313
    9MOL   H317 2893   4.635   0.216   7.294  0.6649  0.4660 -1.3600
    9MOL   H318 2894   4.791   0.296   7.297  2.2751 -0.9522  0.7359
    9MOL   H319 2895   4.722   0.247   7.451  2.7187 -0.0341  0.2924
    9MOL   H320 2896   4.881   0.098   7.827 -0.2197  1.3223  1.6824
    9MOL   H321 2897   4.799   0.184   7.704  1.0822 -1.2596 -1.5463
    9MOL   H322 2898   4.700   0.090   7.810 -1.5361  1.6218 -2.4908
   10MOL     C1 2899   4.364   0.555   7.208 -0.9773 -0.1690  0.6687
   10MOL     O2 2900   4.321   0.418   7.193  0.0916  0.0331  0.0057
   10MOL     C3 2901   4.186   0.387   7.197 -0.1987 -0.2935  0.2925
   10MOL     C4 2902   4.166   0.263   7.107  0.8002  0.0266  0.3042
   10MOL     C5 2903   4.012   0.224   7.104  0.6699  0.6504  0.8895
   10MOL     C6 2904   4.517   0.539   7.216 -0.7117  0.5061  0.3653
   10MOL     H7 2905   4.325   0.607   7.296 -0.4414 -3.8402  3.1798
   10MOL     H8 2906   4.156   0.363   7.299 -2.7622  1.7793  0.0594
   10MOL     H9 2907   4.129   0.471   7.158 -1.4653 -2.0322 -1.6890
   10MOL    H10 2908   4.232   0.179   7.133  0.4553 -0.0609  0.8983
   10MOL    H11 2909   4.184   0.287   7.002  0.8534  0.5155  0.4253
   10MOL    H12 2910   3.990   0.130   7.053  0.1984  2.2785 -2.0194
   10MOL    H13 2911   3.966   0.311   7.058 -1.8187 -0.6588  0.8420
   10MOL    H14 2912   3.965   0.226   7.202  3.0948 -0.3098  2.1241
   10MOL    H15 2913   4.552   0.487   7.305 -1.5473 -1.2306 -0.3098
   10MOL    H16 2914   4.552   0.476   7.135 -1.7600  1.4224 -0.8288
   10MOL    H17 2915   4.334   0.621   7.126 -5.6726 -1.2158  1.3697
   10MOL    C18 2916   4.593   0.673   7.208 -0.1985 -0.6338 -0.1844
   10MOL    O19 2917   4.527   0.758   7.119  0.0560  0.1035 -0.0424
   10MOL    C20 2918   4.607   0.810   7.008 -0.4962 -0.1920 -0.5202
   10MOL    C21 2919   4.521   0.911   6.925 -0.0730  0.5317 -0.0851
   10MOL    C22 2920   4.502   1.047   6.994  0.2056 -0.2438  0.0899
   10MOL    C23 2921   4.595   0.756   7.342 -0.1421  0.1754  0.5238
   10MOL    H24 2922   4.694   0.653   7.172  0.9133  3.5192  0.2879
   10MOL    H25 2923   4.706   0.848   7.030 -0.3624  0.0561 -1.4943
   10MOL    H26 2924   4.638   0.728   6.943 -0.6640 -0.0349 -0.8003
   10MOL    H27 2925   4.421   0.868   6.922  0.5673 -1.0390  0.3477
   10MOL    H28 2926   4.561   0.928   6.825  3.1945  1.0615  1.2190
   10MOL    H29 2927   4.424   1.096   6.935  0.5680 -0.5253 -0.6352
   10MOL    H30 2928   4.589   1.111   7.006  0.3261 -0.4757  0.4250
   10MOL    H31 2929   4.461   1.028   7.093 -1.2692 -2.1451 -0.8513
   10MOL    H32 2930   4.493   0.763   7.381 -0.2610  0.9157  0.0907
   10MOL    H33 2931   4.648   0.698   7.417  1.1429 -0.5166 -0.8837
   10MOL    C34 2932   4.649   0.901   7.341 -0.4197  0.2670 -0.4158
   10MOL    O35 2933   4.601   0.969   7.456  0.3046 -0.0659 -0.5750
   10MOL    C36 2934   4.477   1.033   7.447 -0.1046 -0.6615  0.0471
   10MOL    C37 2935   4.444   1.131   7.566  0.1220  0.1299  0.2919
   10MOL    C38 2936   4.426   1.053   7.695 -0.7323  0.1452  0.0383
   10MOL    C39 2937   4.800   0.895   7.344 -0.0273 -0.1643  0.4992
   10MOL    H40 2938   4.611   0.954   7.254 -1.0347  2.1106  0.9404
   10MOL    H41 2939   4.468   1.082   7.350 -0.1175  0.3373  0.5481
   10MOL    H42 2940   4.395   0.962   7.437  1.0772 -2.1843  1.0088
   10MOL    H43 2941   4.352   1.186   7.546 -0.7719  0.8539  5.6576
   10MOL    H44 2942   4.517   1.212   7.578 -2.0823  1.9219  1.9543
   10MOL    H45 2943   4.516   1.006   7.734  0.6891  0.4834 -2.7533
   10MOL    H46 2944   4.359   0.970   7.675  0.6778 -1.0230  0.1307
   10MOL    H47 2945   4.377   1.116   7.770 -0.3086  0.2719  0.2074
   10MOL    H48 2946   4.833   0.849   7.437 -1.3079 -3.5504 -0.6280
   10MOL    H49 2947   4.831   0.835   7.258 -1.4976  0.4010 -0.4416
   10MOL    C50 2948   4.867   1.028   7.330  0.8639  0.2970  0.7324
   10MOL    O51 2949   5.007   1.005   7.334 -0.0592 -0.0057  0.7691
   10MOL    C52 2950   5.065   1.013   7.463 -0.1477  0.5650  0.7521
   10MOL    C53 2951   5.220   1.012   7.444 -0.1645  0.4525 -0.2065
   10MOL    C54 2952   5.269   0.864   7.440 -0.5903  0.4752  0.6239
   10MOL    C55 2953   4.821   1.111   7.204 -0.6307 -0.3442  0.3530
   10MOL    H56 2954   4.837   1.089   7.415  0.8064  1.3500 -0.0427
   10MOL    H57 2955   5.046   1.114   7.500  0.3967  1.1937 -0.6379
   10MOL    H58 2956   5.017   0.948   7.536 -0.9342  0.3431  0.0523
   10MOL    H59 2957   5.266   1.064   7.527 -2.8011  3.6583 -0.6595
   10MOL    H60 2958   5.236   1.066   7.351 -2.9431 -0.8080 -1.4917
   10MOL    H61 2959   5.258   0.811   7.345 -2.5969  0.7460  0.6833
   10MOL    H62 2960   5.210   0.804   7.509  0.7008 -0.8143  0.6298
   10MOL    H63 2961   5.373   0.852   7.471  0.0955  3.7758 -0.2442
   10MOL    H64 2962   4.811   1.044   7.119 -2.0214 -0.8964  0.9376
   10MOL    H65 2963   4.717   1.140   7.223  0.0326  1.9087  0.7653
   10MOL    C66 2964   4.902   1.238   7.162  0.3389 -0.1264 -0.1105
   10MOL    O67 2965   4.844   1.296   7.044 -0.0411  0.1297 -0.1682
   10MOL    C68 2966   4.901   1.246   6.925  0.3077  0.0751 -0.2103
   10MOL    C69 2967   4.826   1.306   6.808 -0.0605  0.5739 -0.5733
   10MOL    C70 2968   4.809   1.463   6.824 -0.0114  0.0295  0.1250
   10MOL    C71 2969   4.927   1.335   7.283  0.2265  0.2045 -0.6860
   10MOL    H72 2970   5.005   1.213   7.138 -0.5741 -2.4455 -1.7122
   10MOL    H73 2971   4.999   1.293   6.916 -0.0153  0.8848  0.4339
   10MOL    H74 2972   4.904   1.137   6.930  3.1279  0.1287  0.3145
   10MOL    H75 2973   4.727   1.260   6.804  0.0473 -0.0039  2.1591
   10MOL    H76 2974   4.866   1.287   6.708  0.5524  1.3158 -0.4780
   10MOL    H77 2975   4.766   1.515   6.738 -0.7659  0.1794  0.5939
   10MOL    H78 2976   4.909   1.500   6.848  0.5648 -1.5532  0.2008
   10MOL    H79 2977   4.753   1.492   6.913 -0.4739 -1.3860  0.3032
   10MOL    H80 2978   4.838   1.330   7.346  1.2102  1.6183  0.8460
   10MOL    H81 2979   5.015   1.301   7.337  0.3352 -0.7776 -1.4533
   10MOL    C82 2980   4.947   1.486   7.251  0.3520  0.8392  0.5083
   10MOL    O83 2981   4.957   1.572   7.366 -0.2030  0.2403 -0.5466
   10MOL    C84 2982   4.832   1.622   7.410 -0.3821  0.5579  0.2357
   10MOL    C85 2983   4.854   1.707   7.538  0.6588 -0.3199 -0.1803
   10MOL    C86 2984   4.950   1.822   7.516 -0.2010 -0.3089 -0.0824
   10MOL    C87 2985   5.086   1.506   7.185  0.3056 -0.1855 -0.4239
   10MOL    H88 2986   4.871   1.527   7.185 -1.1322 -0.8436  1.1336
   10MOL    H89 2987   4.778   1.666   7.327 -0.0158 -1.7604 -1.2763
   10MOL    H90 2988   4.769   1.540   7.445 -0.3603 -0.3989 -1.8893
   10MOL    H91 2989   4.891   1.638   7.614  1.4586  0.1283 -0.1614
   10MOL    H92 2990   4.756   1.752   7.555  0.0817 -0.7417 -2.1800
   10MOL    H93 2991   5.022   1.804   7.436 -2.0821  0.4477 -2.0147
   10MOL    H94 2992   5.017   1.831   7.601 -0.4426 -3.1827  0.4469
   10MOL    H95 2993   4.896   1.913   7.489 -0.9227 -0.7401 -0.0924
   10MOL    H96 2994   5.167   1.468   7.247  0.2590 -1.1587 -0.9653
   10MOL    H97 2995   5.097   1.433   7.105  2.7192 -1.1540  0.7262
   10MOL    C98 2996   5.135   1.649   7.156 -1.4593  0.4992  0.0257
   10MOL    O99 2997   5.273   1.629   7.113  0.3496  0.6171  0.1791
   10MOL   C100 2998   5.367   1.733   7.143 -0.1539 -0.4652 -0.1938
   10MOL   C101 2999   5.507   1.689   7.102  0.3602 -0.4522 -0.5154
   10MOL   C102 3000   5.547   1.552   7.163 -0.4063 -0.6275  0.7309
   10MOL   C103 3001   5.048   1.719   7.048 -0.0200 -0.0550 -0.4199
   10MOL   H104 3002   5.120   1.697   7.253 -0.3298  0.7776  0.0625
   10MOL   H105 3003   5.347   1.831   7.099 -4.4662 -0.4326  1.5591
   10MOL   H106 3004   5.383   1.747   7.250  0.0595 -0.2305 -0.2539
   10MOL   H107 3005   5.584   1.760   7.132 -1.8852  2.0667 -0.4262
   10MOL   H108 3006   5.508   1.680   6.994  0.1683 -1.5993 -0.4255
   10MOL   H109 3007   5.553   1.565   7.271 -1.2070 -0.4061  0.7520
   10MOL   H110 3008   5.639   1.521   7.113 -0.2142  2.3672 -0.9444
   10MOL   H111 3009   5.473   1.475   7.147 -1.1932 -0.1706  2.1041
   10MOL   H112 3010   5.093   1.685   6.954  1.9395 -0.1169  0.5075
   10MOL   H113 3011   4.954   1.665   7.046  0.2175 -0.5759  1.4675
   10MOL   C114 3012   5.018   1.867   7.051 -0.2947  0.3128  0.5713
   10MOL   O115 3013   5.054   1.928   6.930 -0.2801  0.1012 -0.2983
   10MOL   C116 3014   5.193   1.928   6.901 -0.5237 -0.7611  0.4029
   10MOL   C117 3015   5.208   1.993   6.756  0.0387 -0.2685  1.0771
   10MOL   C118 3016   5.362   2.016   6.730  0.9538 -0.8642 -0.4340
   10MOL   C119 3017   4.866   1.893   7.061 -0.0322 -0.0274 -0.0374
   10MOL   H120 3018   5.071   1.915   7.134 -0.1920 -0.8033  1.1526
   10MOL   H121 3019   5.236   2.003   6.967 -2.8922  2.4922 -1.6587
   10MOL   H122 3020   5.244   1.831   6.907  1.6305  0.2720 -0.8056
   10MOL   H123 3021   5.144   2.082   6.753 -0.5300 -0.6280  2.1432
   10MOL   H124 3022   5.169   1.916   6.689 -0.6751 -0.1207  1.3119
   10MOL   H125 3023   5.418   1.929   6.763  0.6725 -1.5583 -1.7324
   10MOL   H126 3024   5.396   2.105   6.783  0.9914 -1.2050  0.1125
   10MOL   H127 3025   5.381   2.025   6.623 -0.6220  3.0881 -0.4427
   10MOL   H128 3026   4.806   1.875   6.972  1.6926  0.1922 -1.2789
   10MOL   H129 3027   4.814   1.827   7.131 -3.2878 -0.3987 -2.6893
   10MOL   C130 3028   4.845   2.038   7.100  0.0913  0.7777  0.6768
   10MOL   O131 3029   4.708   2.060   7.092  0.0127  0.5894  0.2320
   10MOL   C132 3030   4.666   2.126   6.967  0.1940  0.3578 -0.8914
   10MOL   C133 3031   4.522   2.097   6.940  0.5702 -0.0868  0.1513
   10MOL   C134 3032   4.458   2.192   6.841  0.5719  0.1256 -0.0518
   10MOL   C135 3033   4.885   2.072   7.252  0.0338 -0.8815 -0.1261
   10MOL   H136 3034   4.895   2.106   7.031  0.9521 -0.9341 -0.4170
   10MOL   H137 3035   4.673   2.234   6.979 -2.4869  0.4514  0.2589
   10MOL   H138 3036   4.736   2.091   6.891  0.3542 -2.3748  0.4543
   10MOL   H139 3037   4.468   2.117   7.033  0.8020  0.3714  0.1873
   10MOL   H140 3038   4.496   1.992   6.925 -0.8930  0.2494  0.2076
   10MOL   H141 3039   4.466   2.295   6.874  1.3416  0.0325  0.0643
   10MOL   H142 3040   4.353   2.165   6.847  1.2334 -2.3486  1.2111
   10MOL   H143 3041   4.484   2.190   6.735 -0.3859  2.9692 -0.3596
   10MOL   H144 3042   4.797   2.048   7.311 -0.2278  1.5115  0.5084
   10MOL   H145 3043   4.960   2.004   7.293  1.6635  1.8814  1.6640
   10MOL   C146 3044   4.922   2.219   7.268 -0.9869  0.1280 -0.2718
   10MOL   O147 3045   5.007   2.262   7.157  0.3298  0.1661 -0.1223
   10MOL   C148 3046   5.104   2.350   7.198  0.6126  0.3120 -0.1082
   10MOL   C149 3047   5.163   2.420   7.079  0.4082  0.4171 -0.9893
   10MOL   C150 3048   5.267   2.336   7.000  0.0962  0.7855 -0.2556
   10MOL   C151 3049   4.797   2.312   7.273  0.3077  0.4598 -0.1942
   10MOL   H152 3050   4.971   2.216   7.365  0.7451 -2.1915 -1.1817
   10MOL   H153 3051   5.053   2.417   7.267  0.3717  1.9779 -1.8414
   10MOL   H154 3052   5.185   2.290   7.239 -0.2050  0.0276  1.1099
   10MOL   H155 3053   5.203   2.514   7.117 -1.5708  0.7333  0.4069
   10MOL   H156 3054   5.086   2.458   7.013 -1.4219  0.2666  1.0197
   10MOL   H157 3055   5.352   2.307   7.062 -0.4663 -2.4072 -0.8694
   10MOL   H158 3056   5.309   2.394   6.918 -0.1055  1.4170  0.0845
   10MOL   H159 3057   5.221   2.244   6.964  0.4958  0.5874 -0.2641
   10MOL   H160 3058   4.828   2.414   7.251 -0.8268  0.6005 -1.1364
   10MOL   H161 3059   4.724   2.289   7.196  0.3450  1.0204 -0.3970
   10MOL   C162 3060   4.730   2.307   7.410 -0.2677  0.6107  0.0399
   10MOL   O163 3061   4.820   2.350   7.513 -0.0581  0.1116  0.0786
   10MOL   C164 3062   4.799   2.318   7.645 -0.3432  1.1080 -0.2807
   10MOL   C165 3063   4.910   2.388   7.723 -0.3773 -0.0397  0.4210
   10MOL   C166 3064   4.897   2.545   7.728 -0.1341 -0.2973  0.2928
   10MOL   C167 3065   4.601   2.384   7.412 -0.3981 -0.0001 -0.1014
   10MOL   H168 3066   4.707   2.203   7.433  1.3346  0.3986  0.7602
   10MOL   H169 3067   4.706   2.348   7.693 -1.0889 -2.9951  1.0780
   10MOL   H170 3068   4.827   2.215   7.671  1.9260  1.1049 -2.5465
   10MOL   H171 3069   5.001   2.365   7.668 -0.7771 -1.4338  0.3240
   10MOL   H172 3070   4.910   2.360   0.001  0.0164  0.0921  0.4545
   10MOL   H173 3071   4.821   2.560   7.805  0.8089  2.5811  0.7638
   10MOL   H174 3072   4.855   2.576   7.632  0.4718 -0.5236 -0.0491
   10MOL   H175 3073   4.992   2.597   7.745  0.7736 -1.8338 -0.0202
   10MOL   H176 3074   4.537   2.355   7.328  0.1951  1.3450 -1.0527
   10MOL   H177 3075   4.552   2.351   7.503 -1.8268  0.4623 -0.6796
   10MOL   C178 3076   4.614   2.534   7.404  1.0074 -0.0336 -1.0038
   10MOL   O179 3077   4.624   2.589   7.270  0.2854  0.7827 -0.2799
   10MOL   C180 3078   4.712   2.691   7.247  0.1471 -0.5462 -0.2347
   10MOL   C181 3079   4.692   2.736   7.099 -0.5826  0.2702 -0.5698
   10MOL   C182 3080   4.548   2.787   7.077  0.9426  0.6865 -0.3494
   10MOL   C183 3081   4.494   2.604   7.471  0.5117  0.1017 -0.4196
   10MOL   H184 3082   4.702   2.566   7.459 -0.5978  3.7721 -0.4407
   10MOL   H185 3083   4.687   2.781   7.304 -1.4649 -1.5242  0.6247
   10MOL   H186 3084   4.812   2.655   7.270  0.0160 -0.0989  1.0675
   10MOL   H187 3085   4.705   2.641   7.048 -0.9251  0.1677 -0.4670
   10MOL   H188 3086   4.767   2.807   7.062  2.3982 -1.6942  1.4889
   10MOL   H189 3087   4.474   2.721   7.123 -1.1717  2.2840 -1.3400
   10MOL   H190 3088   4.529   2.791   6.970  1.6167  1.4596 -0.4446
   10MOL   H191 3089   4.540   2.887   7.120  0.0583  0.2199  0.5890
   10MOL   H192 3090   4.479   2.697   7.415 -0.6050  0.8517  1.0809
   10MOL   H193 3091   4.405   2.547   7.446 -0.2350  1.1346 -0.1557
   10MOL   C194 3092   4.491   2.645   7.623 -0.1552 -0.0663  0.6528
   10MOL   O195 3093   4.519   2.533   7.707  0.0104  0.9571 -0.9160
   10MOL   C196 3094   4.408   2.484   7.771  0.8747  0.4599  0.0059
   10MOL   C197 3095   4.461   2.427   0.078  0.2912 -0.0940  0.2637
   10MOL   C198 3096   4.521   2.282   0.068  0.3294  0.2303  0.3074
   10MOL   C199 3097   4.577   2.764   7.656 -0.4276  0.6286 -0.4822
   10MOL   H200 3098   4.385   2.669   7.629 -0.1757  0.2810 -1.0245
   10MOL   H201 3099   4.337   2.560   7.805 -1.2598 -1.1796 -0.7435
   10MOL   H202 3100   4.359   2.409   7.710  0.8755  0.3157  0.1810
   10MOL   H203 3101   4.377   2.420   0.147 -0.8969  0.7012 -1.0783
   10MOL   H204 3102   4.530   2.498   0.122  0.3755  1.3237 -2.0660
   10MOL   H205 3103   4.470   2.210   0.132 -3.1427  0.4836 -2.0230
   10MOL   H206 3104   4.626   2.283   0.096 -0.1400 -0.8149  2.1585
   10MOL   H207 3105   4.518   2.241   7.795  4.7714  2.3717 -0.8057
   10MOL   H208 3106   4.681   2.738   7.639 -1.0388 -3.1825  1.0551
   10MOL   H209 3107   4.546   2.843   7.588 -0.0886  1.1471 -0.0379
   10MOL   C210 3108   4.567   2.802   7.805  0.0568  0.3497  0.3280
   10MOL   O211 3109   4.664   2.904   7.812  0.3502 -0.0941 -0.6633
   10MOL   C212 3110   4.779   2.877   0.065 -0.1383 -0.0226 -0.5168
   10MOL   C213 3111   4.884   2.989   0.035 -0.0736 -0.0342  0.5173
   10MOL   C214 3112   4.906   3.036   7.716  0.1741 -0.3438 -0.1685
   10MOL   C215 3113   4.431   2.857   0.016 -0.8407 -0.9763  0.3220
   10MOL   H216 3114   4.596   2.717   0.039  0.4630 -0.3549 -0.8007
   10MOL   H217 3115   4.765   2.881   0.172  1.0172 -0.0107 -0.3522
   10MOL   H218 3116   4.810   2.784   0.018  0.5207  0.0479 -0.2359
   10MOL   H219 3117   4.968   2.935   0.078 -0.0946  0.8290  1.6633
   10MOL   H220 3118   4.860   3.070   0.103 -3.0667 -0.1094 -0.3495
   10MOL   H221 3119   4.911   2.942   7.661 -0.8039 -0.4080 -0.1616
   10MOL   H222 3120   5.000   3.090   7.706  0.3617 -1.0389 -2.5670
   10MOL   H223 3121   4.824   3.093   7.674  0.1115 -0.0103  0.3971
   10MOL   H224 3122   4.408   2.944   7.783 -3.2576 -0.4164  1.9644
   10MOL   H225 3123   4.350   2.791   7.816 -1.6484  0.1951 -0.1433
   10MOL   C226 3124   4.417   2.888   0.169 -0.2079  0.5061  0.0345
   10MOL   O227 3125   4.296   2.959   0.181  0.4036 -0.3136  0.2221
   10MOL   C228 3126   4.305   3.094   0.231 -0.2484 -0.0750 -0.1323
   10MOL   C229 3127   4.178   3.166   0.196  0.0887 -0.5626 -0.6126
   10MOL   C230 3128   4.062   3.107   0.272 -0.1742 -0.3167 -0.6046
   10MOL   C231 3129   4.406   2.766   0.262 -0.5371  0.2645  0.0454
   10MOL   H232 3130   4.499   2.952   0.202  0.5651  0.0268 -0.9322
   10MOL   H233 3131   4.320   3.100   0.339 -0.8672  0.0236 -0.0514
   10MOL   H234 3132   4.393   3.144   0.192 -0.2932 -0.2369 -0.4496
   10MOL   H235 3133   4.150   3.156   0.091 -0.2485  0.3304 -0.6160
   10MOL   H236 3134   4.201   3.269   0.223  0.6383 -0.5284 -1.2013
   10MOL   H237 3135   4.075   3.104   0.380 -1.4320 -0.8297 -0.4626
   10MOL   H238 3136   4.056   2.999   0.254 -1.6145  0.0162 -2.2060
   10MOL   H239 3137   3.963   3.149   0.256 -0.1930  0.6525  1.9201
   10MOL   H240 3138   4.306   2.724   0.270 -0.5791  0.5458  1.0085
   10MOL   H241 3139   4.480   2.690   0.237 -0.2209  0.3622  0.6718
   10MOL   C242 3140   4.433   2.786   0.414  0.0036 -0.0158 -0.3371
   10MOL   O243 3141   4.394   2.662   0.485 -0.4099  0.4076  0.3286
   10MOL   C244 3142   4.295   2.675   0.588  0.3694  0.3614  0.8971
   10MOL   C245 3143   4.158   2.683   0.519 -0.2288  0.1305 -0.5453
   10MOL   C246 3144   4.119   2.548   0.453 -0.5638 -0.2624 -0.4246
   10MOL   C247 3145   4.575   2.831   0.459  0.0550 -0.3064 -0.4628
   10MOL   H248 3146   4.365   2.866   0.443 -0.6507 -0.9910  0.8961
   10MOL   H249 3147   4.309   2.594   0.660  0.6185  0.1257  0.5837
   10MOL   H250 3148   4.311   2.767   0.645  0.3951  1.8735 -1.4777
   10MOL   H251 3149   4.150   2.773   0.457  1.6096  0.7609  0.1102
   10MOL   H252 3150   4.089   2.683   0.603 -3.6108  0.9382 -3.1957
   10MOL   H253 3151   4.023   2.547   0.401  0.2964 -0.8113 -2.0443
   10MOL   H254 3152   4.121   2.458   0.513  0.2585  2.5702  4.0609
   10MOL   H255 3153   4.182   2.537   0.365 -1.6731 -1.0070 -1.1446
   10MOL   H256 3154   4.652   2.757   0.436  1.0178  1.1958 -2.2279
   10MOL   H257 3155   4.592   2.917   0.394 -0.6193  1.7071  1.9169
   10MOL   C258 3156   4.581   2.871   0.607  0.6666 -0.5588  0.5797
   10MOL   O259 3157   4.718   2.875   0.634 -0.4823  0.1656  0.5691
   10MOL   C260 3158   4.772   2.758   0.677 -1.1724  0.5770  0.7456
   10MOL   C261 3159   4.918   2.767   0.708  0.0696  0.4075  0.3143
   10MOL   C262 3160   4.979   2.639   0.761 -0.1758 -0.6572  0.5244
   10MOL   C263 3161   4.509   3.008   0.640  0.0982  0.2316  0.7179
   10MOL   H264 3162   4.542   2.789   0.668 -1.5303  0.3876  0.5125
   10MOL   H265 3163   4.731   2.726   0.772 -1.3887 -1.9868 -0.1672
   10MOL   H266 3164   4.755   2.673   0.611  1.3930  0.4222  0.2246
   10MOL   H267 3165   4.925   2.847   0.782  0.3981  1.2148 -0.5779
   10MOL   H268 3166   4.975   2.791   0.618 -0.2619 -2.0591 -0.5775
   10MOL   H269 3167   4.967   2.556   0.691 -1.9048  1.1489 -1.4191
   10MOL   H270 3168   4.947   2.594   0.855 -0.0668  0.1544  0.9598
   10MOL   H271 3169   5.085   2.655   0.780 -0.4465  1.2097  0.5483
   10MOL   H272 3170   4.535   3.095   0.580  2.3094  0.4523  1.9588
   10MOL   H273 3171   4.401   2.996   0.628 -0.0991  0.7785  1.8012
   10MOL   C274 3172   4.524   3.053   0.787 -0.4892 -0.8257  0.3310
   10MOL   O275 3173   4.435   3.155   0.830 -0.0637  0.1314 -0.1325
   10MOL   C276 3174   4.491   3.286   0.788 -0.4125 -0.1127 -0.5296
   10MOL   C277 3175   4.409   3.401   0.854 -0.0466 -0.1034 -0.6680
   10MOL   C278 3176   4.412   3.542   0.794 -0.4647 -0.0833 -0.1278
   10MOL   C279 3177   4.504   2.938   0.882  0.4479  0.2194 -0.5561
   10MOL   H280 3178   4.629   3.078   0.803 -0.6166  0.2691 -0.4848
   10MOL   H281 3179   4.596   3.286   0.815 -1.2494 -0.1708  2.9116
   10MOL   H282 3180   4.478   3.300   0.680 -1.2916  0.2054 -0.3825
   10MOL   H283 3181   4.429   3.413   0.960  0.2117  1.2728 -0.8689
   10MOL   H284 3182   4.308   3.362   0.853  0.6834 -2.0405 -1.1659
   10MOL   H285 3183   4.347   3.521   0.710  0.3674 -0.4885 -0.6784
   10MOL   H286 3184   4.511   3.568   0.755  0.0079  0.1891  1.2107
   10MOL   H287 3185   4.353   3.621   0.841 -0.5829  0.1942 -0.7393
   10MOL   H288 3186   4.402   2.903   0.863  0.0054  1.0429  0.2808
   10MOL   H289 3187   4.566   2.853   0.855 -0.5960 -0.1362 -1.8746
   10MOL   C290 3188   4.524   2.973   1.032 -0.2930 -0.2979 -0.0199
   10MOL   O291 3189   4.477   2.861   1.114 -0.2557 -0.6388 -0.5698
   10MOL   C292 3190   4.347   2.887   1.163 -0.0305 -0.3595  0.6872
   10MOL   C293 3191   4.286   2.748   1.195  0.4999  0.3385  0.5345
   10MOL   C294 3192   4.134   2.748   1.226  0.5685  0.5619  0.5107
   10MOL   C295 3193   4.671   2.996   1.074  0.5206  0.4225 -1.1301
   10MOL   H296 3194   4.464   3.052   1.077 -0.6882 -0.8544  0.4330
   10MOL   H297 3195   4.352   2.961   1.243  0.7496  0.0398  0.2726
   10MOL   H298 3196   4.292   2.930   1.079  2.9587  0.2243 -1.0606
   10MOL   H299 3197   4.336   2.693   1.275 -0.3319 -0.1866  0.6917
   10MOL   H300 3198   4.299   2.671   1.119 -0.9421 -0.6132  1.2340
   10MOL   H301 3199   4.092   2.648   1.222 -0.1030  0.8199  1.0512
   10MOL   H302 3200   4.081   2.818   1.160 -1.1138  1.5519  2.8602
   10MOL   H303 3201   4.112   2.786   1.325  0.2289  0.1602  0.5891
   10MOL   H304 3202   4.714   2.904   1.114  0.5157  0.8649 -0.1118
   10MOL   H305 3203   4.731   3.025   0.988 -3.1499  2.6892 -3.0751
   10MOL   C306 3204   4.691   3.107   1.183  0.0689 -0.0611 -0.4957
   10MOL   O307 3205   4.830   3.121   1.203  0.0296 -0.2032  0.2604
   10MOL   C308 3206   4.893   3.011   1.262 -0.6066  0.1847 -0.2660
   10MOL   C309 3207   5.024   3.054   1.335  0.2420 -0.0566  0.4088
   10MOL   C310 3208   5.131   3.109   1.249  0.5798 -0.0463 -0.3219
   10MOL   C311 3209   4.639   3.241   1.130 -0.3848 -0.0199  0.1784
   10MOL   H312 3210   4.643   3.083   1.278  2.9232 -1.6349  0.5943
   10MOL   H313 3211   4.840   2.954   1.338 -2.3407  0.7167 -1.0334
   10MOL   H314 3212   4.911   2.949   1.174  1.7745  1.6161 -0.8296
   10MOL   H315 3213   5.061   2.971   1.394 -0.7550 -0.6156  0.2484
   10MOL   H316 3214   4.998   3.129   1.410 -2.9169 -0.5955 -0.0673
   10MOL   H317 3215   5.103   3.211   1.224  1.1498  0.0809 -0.4335
   10MOL   H318 3216   5.126   3.052   1.157  0.9297 -0.7697  0.1029
   10MOL   H319 3217   5.230   3.112   1.294 -0.5473 -1.2443  2.3975
   10MOL   H320 3218   4.667   3.323   1.196 -0.4862  0.6438 -0.6011
   10MOL   H321 3219   4.685   3.261   1.034 -3.0479 -0.6463 -1.2808
   10MOL   H322 3220   4.531   3.246   1.117 -0.6293 -1.1066  1.5644
   11MOL     C1 3221   5.112   6.394   2.632 -0.1109  0.0084 -0.8670
   11MOL     O2 3222   5.145   6.511   2.710  0.5785  0.1746 -0.5478
   11MOL     C3 3223   5.119   6.490   2.851 -0.0833 -0.4615  0.4581
   11MOL     C4 3224   5.232   6.410   2.928 -0.4081 -0.3357  0.6061
   11MOL     C5 3225   5.373   6.480   2.909  0.4128  0.0632  0.3414
   11MOL     C6 3226   5.151   6.413   2.488 -0.3679 -0.4383  0.0909
   11MOL     H7 3227   5.006   6.369   2.640  0.2922 -1.4034  0.2574
   11MOL     H8 3228   5.125   6.590   2.893  0.1525 -1.3713  2.6966
   11MOL     H9 3229   5.017   6.451   2.864 -0.2625  0.0700  0.6518
   11MOL    H10 3230   5.241   6.307   2.895 -2.6820  0.0346 -1.2912
   11MOL    H11 3231   5.219   6.400   3.036  2.3863 -2.8375  0.7581
   11MOL    H12 3232   5.382   6.499   2.802  1.1757 -1.6332  0.0864
   11MOL    H13 3233   5.460   6.418   2.931  1.9639  1.1173 -2.5626
   11MOL    H14 3234   5.387   6.580   2.951 -2.2766  0.6029  0.0202
   11MOL    H15 3235   5.102   6.329   2.439 -0.1306 -0.0852 -0.7760
   11MOL    H16 3236   5.104   6.502   2.445  2.5838  0.7800 -0.7895
   11MOL    H17 3237   5.166   6.313   2.680 -0.3786 -1.0886 -2.3856
   11MOL    C18 3238   5.301   6.392   2.461 -0.2520  0.2513 -0.2536
   11MOL    O19 3239   5.329   6.255   2.491 -0.3222 -0.5826  0.7523
   11MOL    C20 3240   5.466   6.212   2.488  0.0670 -0.7714 -0.7361
   11MOL    C21 3241   5.468   6.094   2.581  0.0635 -0.6278 -0.4216
   11MOL    C22 3242   5.440   6.117   2.726  0.4491 -0.0048  0.0640
   11MOL    C23 3243   5.346   6.407   2.316 -0.8156 -0.2230  0.2380
   11MOL    H24 3244   5.353   6.461   2.527 -1.1047  1.1170 -0.4800
   11MOL    H25 3245   5.490   6.191   2.383  3.7296  0.1114 -0.1216
   11MOL    H26 3246   5.531   6.287   2.533 -0.9726 -0.0044 -0.4918
   11MOL    H27 3247   5.569   6.053   2.573  1.0374  1.5744  0.2904
   11MOL    H28 3248   5.395   6.026   2.536 -0.2821  1.7547 -3.6388
   11MOL    H29 3249   5.528   6.154   2.779  0.2441 -0.8630  1.0219
   11MOL    H30 3250   5.397   6.028   2.772  1.1241 -0.2671  0.2099
   11MOL    H31 3251   5.361   6.190   2.737 -0.1248 -0.6300  0.1323
   11MOL    H32 3252   5.453   6.386   2.310 -0.7798 -0.2584  0.9413
   11MOL    H33 3253   5.283   6.337   2.261 -3.9234  3.0562 -0.5416
   11MOL    C34 3254   5.337   6.550   2.259  0.1369  0.0259  0.0664
   11MOL    O35 3255   5.447   6.629   2.305 -0.5520  0.4135 -0.0129
   11MOL    C36 3256   5.413   6.749   2.374 -0.4638  0.2925  0.4647
   11MOL    C37 3257   5.543   6.769   2.455 -0.2899 -0.0831 -0.1294
   11MOL    C38 3258   5.585   6.646   2.541  0.2632 -0.0969 -0.5795
   11MOL    C39 3259   5.343   6.563   2.104 -0.3864  0.2235  0.4148
   11MOL    H40 3260   5.247   6.606   2.285  1.5532  1.2978  2.3302
   11MOL    H41 3261   5.403   6.833   2.306 -0.7009  1.1500  1.5449
   11MOL    H42 3262   5.331   6.731   2.443 -0.5422  0.1346  0.3326
   11MOL    H43 3263   5.524   6.853   2.521  0.5135 -1.5852  2.0633
   11MOL    H44 3264   5.626   6.791   2.388  0.1368  0.1705  0.4855
   11MOL    H45 3265   5.560   6.545   2.509 -1.7283 -0.0658  0.7669
   11MOL    H46 3266   5.547   6.649   2.643  2.4665 -1.3431  0.3137
   11MOL    H47 3267   5.691   6.663   2.560 -0.0113  0.4252  0.5460
   11MOL    H48 3268   5.342   6.669   2.078  0.0562  0.4561  1.3444
   11MOL    H49 3269   5.437   6.533   2.056  0.0352  0.7210  0.9167
   11MOL    C50 3270   5.226   6.495   2.029  0.0257  0.2312  0.6249
   11MOL    O51 3271   5.102   6.520   2.097 -0.9780  0.8326  0.3068
   11MOL    C52 3272   5.011   6.408   2.097  0.0109  0.3022 -0.4202
   11MOL    C53 3273   4.885   6.436   2.179  0.0585 -0.0693  0.1300
   11MOL    C54 3274   4.806   6.547   2.104 -0.2359  0.1295  0.2213
   11MOL    C55 3275   5.213   6.532   1.883  0.2212  0.4714  0.4518
   11MOL    H56 3276   5.253   6.389   2.033  0.3069  0.2728 -0.2528
   11MOL    H57 3277   4.973   6.374   2.001  0.1507  0.1368 -0.4182
   11MOL    H58 3278   5.063   6.323   2.141 -1.4791 -0.1532  0.4946
   11MOL    H59 3279   4.899   6.464   2.283  1.7317  0.9299 -0.3497
   11MOL    H60 3280   4.823   6.346   2.178 -0.5703  0.3593 -2.1743
   11MOL    H61 3281   4.857   6.642   2.119  1.1414 -0.5453 -0.1052
   11MOL    H62 3282   4.707   6.554   2.151 -0.2733  1.0465  0.0254
   11MOL    H63 3283   4.798   6.521   1.998 -0.7909  1.4204 -0.0676
   11MOL    H64 3284   5.136   6.476   1.829 -0.4007  1.9224 -0.1746
   11MOL    H65 3285   5.173   6.632   1.867  0.3362  0.2011 -1.7243
   11MOL    C66 3286   5.342   6.520   1.791  1.0976 -0.2796  0.2008
   11MOL    O67 3287   5.408   6.392   1.825 -0.1785  1.1399 -0.4133
   11MOL    C68 3288   5.548   6.397   1.835 -0.6671 -0.0173 -0.2650
   11MOL    C69 3289   5.607   6.254   1.843 -0.5910  0.6517 -0.4226
   11MOL    C70 3290   5.528   6.170   1.945 -0.6704  0.8539  0.8797
   11MOL    C71 3291   5.305   6.500   1.644  0.3256 -0.1090 -0.2038
   11MOL    H72 3292   5.408   6.606   1.800 -0.6249  0.9137  1.5948
   11MOL    H73 3293   5.597   6.454   1.756  0.5144 -0.7460 -0.0758
   11MOL    H74 3294   5.570   6.438   1.934 -1.6711 -1.0977  0.4215
   11MOL    H75 3295   5.713   6.260   1.868 -0.6122  0.6854 -0.3420
   11MOL    H76 3296   5.592   6.210   1.744  2.1677  1.3210 -1.2028
   11MOL    H77 3297   5.569   6.069   1.949 -0.0661  1.0688  0.2375
   11MOL    H78 3298   5.434   6.134   1.903 -0.0853 -1.4904  1.5072
   11MOL    H79 3299   5.513   6.207   2.047  0.7899 -2.7724  2.5259
   11MOL    H80 3300   5.408   6.485   1.609  0.9070 -1.5953  2.0454
   11MOL    H81 3301   5.243   6.411   1.635  1.3056 -0.9369  1.0568
   11MOL    C82 3302   5.254   6.618   1.557  0.1435 -0.0214 -0.2662
   11MOL    O83 3303   5.124   6.675   1.589 -0.2390  0.7216 -0.0145
   11MOL    C84 3304   5.023   6.592   1.553 -0.4200  0.7710  0.1288
   11MOL    C85 3305   4.880   6.649   1.577  0.2599 -0.0910 -0.6393
   11MOL    C86 3306   4.861   6.668   1.722 -0.5219 -0.2477 -0.5156
   11MOL    C87 3307   5.348   6.742   1.543 -0.1522  0.5160  0.2194
   11MOL    H88 3308   5.252   6.579   1.455  2.0054 -2.5460  0.6298
   11MOL    H89 3309   5.031   6.557   1.450  0.8015 -1.7584  1.0183
   11MOL    H90 3310   5.031   6.504   1.617  2.4564 -1.1896 -2.7760
   11MOL    H91 3311   4.800   6.581   1.548  0.4979 -1.3944  1.5891
   11MOL    H92 3312   4.866   6.738   1.516 -0.6122  0.3204  0.1622
   11MOL    H93 3313   4.952   6.712   1.761 -0.0180 -1.4909 -0.2668
   11MOL    H94 3314   4.839   6.578   1.779  2.5437 -0.2929  0.6787
   11MOL    H95 3315   4.789   6.745   1.749  0.3104  0.2111  0.4476
   11MOL    H96 3316   5.355   6.774   1.647 -1.2760  0.3732  0.3393
   11MOL    H97 3317   5.442   6.698   1.508 -1.4670 -1.9046 -0.4531
   11MOL    C98 3318   5.287   6.847   1.446 -0.2496  0.3184  0.0550
   11MOL    O99 3319   5.387   6.953   1.417  0.4222  0.4189  0.1727
   11MOL   C100 3320   5.419   7.046   1.526  0.1029  0.1039  0.0763
   11MOL   C101 3321   5.338   7.176   1.548  0.0315  0.3333 -0.2120
   11MOL   C102 3322   5.367   7.254   1.420 -0.3767 -0.1386 -0.0286
   11MOL   C103 3323   5.246   6.808   1.302  0.1423 -0.4347  0.0824
   11MOL   H104 3324   5.201   6.894   1.494 -0.5401 -1.8040  1.6389
   11MOL   H105 3325   5.417   6.994   1.622 -2.3226  2.5631  1.4369
   11MOL   H106 3326   5.520   7.080   1.505  0.5734 -0.8675  0.7550
   11MOL   H107 3327   5.357   7.225   1.643 -1.2557  0.1849  0.1267
   11MOL   H108 3328   5.230   7.161   1.546  0.0248  0.4364 -0.5718
   11MOL   H109 3329   5.308   7.346   1.416 -0.3593 -0.1797 -1.6456
   11MOL   H110 3330   5.329   7.187   1.342 -1.9818  0.9004 -0.1652
   11MOL   H111 3331   5.472   7.277   1.405 -0.1131 -0.4383  1.3137
   11MOL   H112 3332   5.336   6.790   1.242  0.9179 -1.7518  1.5800
   11MOL   H113 3333   5.203   6.708   1.310  0.1028 -0.3468  0.9991
   11MOL   C114 3334   5.147   6.904   1.232 -0.3251  0.4776 -0.0358
   11MOL   O115 3335   5.172   6.899   1.090  0.3439  0.1438 -0.0777
   11MOL   C116 3336   5.281   6.965   1.035  0.1799 -0.2605  0.3097
   11MOL   C117 3337   5.241   6.994   0.893  0.3221 -0.0218  0.6715
   11MOL   C118 3338   5.366   7.039   0.812  0.0676  0.0179  0.1634
   11MOL   C119 3339   4.994   6.871   1.254 -0.4055  0.1802  0.4760
   11MOL   H120 3340   5.168   7.009   1.255 -0.8508  0.3072  1.2834
   11MOL   H121 3341   5.304   7.058   1.087  1.2401  0.4347 -1.3856
   11MOL   H122 3342   5.375   6.912   1.026  0.7465  0.8434 -0.4201
   11MOL   H123 3343   5.162   7.069   0.893  0.2144 -0.1354  1.5576
   11MOL   H124 3344   5.201   6.902   0.849 -1.8799  2.2585 -2.3026
   11MOL   H125 3345   5.406   7.134   0.848  0.3362 -0.2332  0.5317
   11MOL   H126 3346   5.336   7.053   0.709 -1.3157 -1.8149  0.2853
   11MOL   H127 3347   5.447   6.967   0.816 -0.1825 -0.5074 -3.3361
   11MOL   H128 3348   4.969   6.781   1.197  2.3828 -1.2173  1.3623
   11MOL   H129 3349   4.984   6.836   1.357 -0.0435 -0.0637  0.4292
   11MOL   C130 3350   4.904   6.996   1.235  0.1330 -0.0354 -0.1892
   11MOL   O131 3351   4.768   6.949   1.225  0.0116 -0.6742 -0.0599
   11MOL   C132 3352   4.727   6.925   1.093 -0.2731 -1.0258 -0.5692
   11MOL   C133 3353   4.585   6.870   1.094 -0.7125  0.1966 -0.2964
   11MOL   C134 3354   4.485   6.981   1.121 -0.0415 -0.2787  0.0774
   11MOL   C135 3355   4.921   7.106   1.346 -0.0031 -0.1799 -0.3577
   11MOL   H136 3356   4.932   7.033   1.137  0.2614  0.6562  0.1046
   11MOL   H137 3357   4.727   7.018   1.037 -0.7182 -1.3687 -1.1442
   11MOL   H138 3358   4.801   6.863   1.042  2.1454 -0.8136  2.4780
   11MOL   H139 3359   4.554   6.798   1.169  1.5914  0.3963  0.8867
   11MOL   H140 3360   4.568   6.822   0.998 -1.0903 -0.2663 -0.0011
   11MOL   H141 3361   4.472   7.013   1.224 -1.7666 -0.6916  0.0046
   11MOL   H142 3362   4.392   6.940   1.080  0.3132 -1.2299  0.2012
   11MOL   H143 3363   4.501   7.068   1.058 -0.8016 -1.3374 -1.6109
   11MOL   H144 3364   5.026   7.094   1.373 -0.9179  0.8050  3.9973
   11MOL   H145 3365   4.917   7.204   1.298 -2.5816 -1.1825 -2.3269
   11MOL   C146 3366   4.831   7.093   1.469  0.0629  0.3697  0.8239
   11MOL   O147 3367   4.898   7.146   1.581 -0.0112 -0.2837  0.1095
   11MOL   C148 3368   4.923   7.062   1.688  0.1178 -0.5716 -0.0190
   11MOL   C149 3369   4.992   7.153   1.787  0.0857  0.2715  0.2466
   11MOL   C150 3370   5.023   7.082   1.919  0.7161 -0.3471 -0.3077
   11MOL   C151 3371   4.688   7.153   1.459 -1.2440  0.3123  0.1673
   11MOL   H152 3372   4.806   6.989   1.490  0.4509  0.1128  0.0571
   11MOL   H153 3373   4.832   7.012   1.721 -0.7980  1.7019  0.9363
   11MOL   H154 3374   4.999   6.989   1.660  0.5484 -0.1930  0.1629
   11MOL   H155 3375   4.931   7.241   1.811 -0.0025  0.6021 -1.1613
   11MOL   H156 3376   5.087   7.201   1.761  0.1371 -0.1048 -0.2544
   11MOL   H157 3377   4.935   7.029   1.953  0.1164  0.3288 -0.7726
   11MOL   H158 3378   5.047   7.167   1.984  0.0845  0.7211 -1.4450
   11MOL   H159 3379   5.112   7.020   1.915  1.4313  0.7321 -2.0162
   11MOL   H160 3380   4.696   7.260   1.473  3.2205  0.0112  0.6173
   11MOL   H161 3381   4.658   7.143   1.355 -0.1308 -0.2855 -0.1153
   11MOL   C162 3382   4.581   7.089   1.552  0.5676  0.0911 -0.1792
   11MOL   O163 3383   4.461   7.167   1.531  0.1619  0.4068 -0.5595
   11MOL   C164 3384   4.447   7.267   1.630 -0.1219 -0.0253  0.6451
   11MOL   C165 3385   4.326   7.363   1.603  0.8021 -0.0643 -0.0179
   11MOL   C166 3386   4.196   7.293   1.575 -0.0771  0.0114 -0.0500
   11MOL   C167 3387   4.545   6.949   1.511 -0.3784  0.5077  0.1360
   11MOL   H168 3388   4.614   7.084   1.656  1.7494 -1.1588 -0.5853
   11MOL   H169 3389   4.435   7.213   1.723 -1.1242 -0.4710  0.2679
   11MOL   H170 3390   4.541   7.321   1.637  0.1263 -0.2381 -0.8477
   11MOL   H171 3391   4.349   7.426   1.517  2.0281 -1.3367 -0.6613
   11MOL   H172 3392   4.313   7.433   1.685 -2.7637  1.0808 -1.4896
   11MOL   H173 3393   4.207   7.215   1.500  1.7454  2.0487 -1.9588
   11MOL   H174 3394   4.118   7.363   1.543  0.3302  1.4501  2.0541
   11MOL   H175 3395   4.155   7.248   1.666  5.4867 -0.1630  2.5911
   11MOL   H176 3396   4.507   6.959   1.410  0.2712  1.0896 -0.0504
   11MOL   H177 3397   4.631   6.881   1.509  0.1203  1.1234  0.6006
   11MOL   C178 3398   4.430   6.884   1.607 -0.1045  0.0752 -0.1805
   11MOL   O179 3399   4.328   6.811   1.545  0.4527 -0.1944  1.0324
   11MOL   C180 3400   4.225   6.881   1.481  0.2608  0.1243 -0.5952
   11MOL   C181 3401   4.131   6.789   1.409  0.5047  0.3186 -0.7433
   11MOL   C182 3402   4.055   6.691   1.501 -0.1961  0.0837  0.1928
   11MOL   C183 3403   4.497   6.795   1.713  0.2634  0.3893 -0.6760
   11MOL   H184 3404   4.384   6.969   1.658 -0.6581 -0.8446  0.8700
   11MOL   H185 3405   4.172   6.956   1.540 -0.1742 -0.0441 -0.7694
   11MOL   H186 3406   4.279   6.936   1.403 -1.1210  2.0859 -0.2128
   11MOL   H187 3407   4.183   6.724   1.338 -0.2572 -1.1710  0.0465
   11MOL   H188 3408   4.063   6.844   1.344 -0.9937 -0.4119  0.1872
   11MOL   H189 3409   4.123   6.622   1.551  1.4258  0.0766 -1.9635
   11MOL   H190 3410   3.980   6.631   1.449  0.5831  0.5350 -1.4913
   11MOL   H191 3411   3.991   6.745   1.571 -0.6025  0.1067 -0.1905
   11MOL   H192 3412   4.562   6.723   1.664  0.5626 -0.5864  1.1235
   11MOL   H193 3413   4.570   6.853   1.769  0.9890 -0.7733 -0.4132
   11MOL   C194 3414   4.399   6.722   1.810 -1.1341  0.0270 -0.1670
   11MOL   O195 3415   4.473   6.605   1.865  0.7161 -0.2381  0.1016
   11MOL   C196 3416   4.473   6.491   1.779 -0.2154  0.0467 -0.5616
   11MOL   C197 3417   4.558   6.381   1.842  0.8935 -0.1747 -0.5160
   11MOL   C198 3418   4.521   6.343   1.986 -0.2847 -0.7362 -0.1911
   11MOL   C199 3419   4.340   6.818   1.916 -0.0745 -0.4613  0.4140
   11MOL   H200 3420   4.316   6.683   1.751 -0.3118 -1.8627 -0.1067
   11MOL   H201 3421   4.373   6.456   1.756 -0.5131  0.1618  0.5586
   11MOL   H202 3422   4.496   6.507   1.673  2.4274 -1.5528 -0.2745
   11MOL   H203 3423   4.661   6.413   1.825  0.1187  1.9048 -1.5191
   11MOL   H204 3424   4.530   6.294   1.782 -1.2721 -0.3747  0.7664
   11MOL   H205 3425   4.575   6.259   2.030  1.9450  0.0055 -1.4319
   11MOL   H206 3426   4.418   6.306   1.985 -0.0646 -1.3876  0.5980
   11MOL   H207 3427   4.527   6.424   2.058 -0.3174  0.1192 -1.1340
   11MOL   H208 3428   4.413   6.866   1.982 -0.0674  0.0927  0.0123
   11MOL   H209 3429   4.286   6.900   1.869  1.9765 -0.5156 -2.1870
   11MOL   C210 3430   4.244   6.748   2.013  0.7889  0.0283 -0.5908
   11MOL   O211 3431   4.212   6.834   2.120  0.4870  0.5323  0.1235
   11MOL   C212 3432   4.310   6.842   2.226  0.1034  0.0290 -0.2690
   11MOL   C213 3433   4.257   6.929   2.342 -0.1876 -0.4840  0.7937
   11MOL   C214 3434   4.146   6.866   2.420  0.8768 -1.3406  0.1106
   11MOL   C215 3435   4.111   6.703   1.939 -0.6424  0.0085 -0.1711
   11MOL   H216 3436   4.287   6.659   2.057 -1.4983 -1.1385 -0.6128
   11MOL   H217 3437   4.336   6.746   2.271 -0.2074  0.3637  0.6490
   11MOL   H218 3438   4.402   6.887   2.189  0.6856  0.4130  1.5901
   11MOL   H219 3439   4.225   7.027   2.309 -0.0588 -0.3609  1.0347
   11MOL   H220 3440   4.336   6.963   2.409 -0.0985  0.1912  0.3513
   11MOL   H221 3441   4.078   6.801   2.364 -0.5905 -0.1475  0.4840
   11MOL   H222 3442   4.087   6.938   2.477 -1.3997 -2.3335 -0.8956
   11MOL   H223 3443   4.193   6.800   2.493  1.6615  1.9331  2.6467
   11MOL   H224 3444   4.071   6.786   1.880 -0.7682  0.1685  0.1364
   11MOL   H225 3445   4.130   6.628   1.862  1.0948  1.2761 -1.0189
   11MOL   C226 3446   4.000   6.651   2.026 -0.3313  0.0984 -0.1317
   11MOL   O227 3447   3.896   6.589   1.939 -0.5175  0.6535  0.4438
   11MOL   C228 3448   3.812   6.678   1.869 -0.3977  0.3325 -0.2243
   11MOL   C229 3449   3.751   6.606   1.755 -0.1316 -0.4368 -0.5840
   11MOL   C230 3450   3.656   6.693   1.673 -0.0013  0.0537 -0.6659
   11MOL   C231 3451   4.042   6.538   2.133  0.5680 -0.0761 -0.0541
   11MOL   H232 3452   3.959   6.738   2.077  0.5455 -0.0038  0.7693
   11MOL   H233 3453   3.740   6.719   1.940  1.2793 -1.0852  2.3299
   11MOL   H234 3454   3.869   6.765   1.835 -0.5705  0.5452  0.0359
   11MOL   H235 3455   3.690   6.518   1.776  1.2117 -1.4179 -0.7549
   11MOL   H236 3456   3.828   6.561   1.693  1.6723 -1.4063  2.2730
   11MOL   H237 3457   3.564   6.716   1.726  2.1475 -0.3975  3.5339
   11MOL   H238 3458   3.625   6.637   1.585  2.1347 -0.3934 -1.1649
   11MOL   H239 3459   3.694   6.793   1.650  0.5652  0.6104  2.3658
   11MOL   H240 3460   4.114   6.476   2.080  0.3576  0.6893 -1.2514
   11MOL   H241 3461   4.105   6.583   2.210  0.8890  0.3877 -0.5843
   11MOL   C242 3462   3.938   6.447   2.205 -0.0531  0.5415  0.4052
   11MOL   O243 3463   4.007   6.350   2.284  0.5440  0.5538 -0.0039
   11MOL   C244 3464   4.095   6.264   2.218  0.0241  0.3569 -0.1409
   11MOL   C245 3465   4.123   6.155   2.325 -0.2986  0.1977 -0.2041
   11MOL   C246 3466   4.018   6.047   2.328  0.4433 -0.0062 -0.1160
   11MOL   C247 3467   3.845   6.528   2.300 -0.0119 -0.2964  0.5755
   11MOL   H248 3468   3.881   6.398   2.126 -1.4990  0.4632  1.4612
   11MOL   H249 3469   4.049   6.213   2.134  0.7575  0.8453 -0.8433
   11MOL   H250 3470   4.192   6.301   2.185  0.9436  0.1138  2.1887
   11MOL   H251 3471   4.139   6.212   2.416  4.6576  0.3742 -1.0179
   11MOL   H252 3472   4.220   6.107   2.312 -0.8304 -0.9574  0.0380
   11MOL   H253 3473   4.049   5.970   2.399  0.5035  2.0235  2.1087
   11MOL   H254 3474   4.003   6.001   2.230  0.7470 -0.8569  0.2288
   11MOL   H255 3475   3.924   6.092   2.359  1.8058  2.9412 -0.0895
   11MOL   H256 3476   3.903   6.593   2.365 -0.5117 -0.3735  1.1012
   11MOL   H257 3477   3.781   6.588   2.234  1.2859  1.1624  0.6066
   11MOL   C258 3478   3.750   6.445   2.388  0.3506  0.5097  0.5859
   11MOL   O259 3479   3.830   6.415   2.497  0.0064  0.1774  0.1748
   11MOL   C260 3480   3.789   6.294   2.559  0.2022 -0.9046  0.1399
   11MOL   C261 3481   3.900   6.237   2.641  0.2650  0.2542 -0.2915
   11MOL   C262 3482   3.954   6.323   2.755  0.5169 -0.0201 -0.4124
   11MOL   C263 3483   3.628   6.531   2.440  0.0752  0.6646 -0.0632
   11MOL   H264 3484   3.700   6.367   2.331  0.2389  0.6554  0.4823
   11MOL   H265 3485   3.700   6.302   2.621  0.3701 -1.0488  0.3970
   11MOL   H266 3486   3.758   6.212   2.494 -1.8550 -0.5953  0.6802
   11MOL   H267 3487   3.981   6.222   2.570  0.5501  1.4117 -0.2273
   11MOL   H268 3488   3.860   6.141   2.672 -1.3785  0.4595 -1.7163
   11MOL   H269 3489   3.902   6.309   2.849  0.0275 -0.3959 -0.7392
   11MOL   H270 3490   3.955   6.429   2.732 -2.2876  0.1272  0.0367
   11MOL   H271 3491   4.059   6.299   2.773  0.1911 -0.7107  0.5987
   11MOL   H272 3492   3.570   6.479   2.516 -1.5101  0.6414 -1.2533
   11MOL   H273 3493   3.676   6.606   2.502  0.3462 -0.3320  0.9419
   11MOL   C274 3494   3.522   6.585   2.342  0.1891  0.0829 -0.1425
   11MOL   O275 3495   3.453   6.479   2.282 -0.3522  0.3713  0.3780
   11MOL   C276 3496   3.416   6.503   2.144  0.5821 -0.1696  0.6877
   11MOL   C277 3497   3.460   6.381   2.057 -0.6976 -0.7378  0.1265
   11MOL   C278 3498   3.416   6.413   1.912 -0.3347 -0.2795 -0.5082
   11MOL   C279 3499   3.420   6.678   2.417  0.2761  0.5214  0.2347
   11MOL   H280 3500   3.576   6.643   2.267 -0.1400  1.0174  0.3316
   11MOL   H281 3501   3.311   6.534   2.145  0.7338  0.3536  3.1869
   11MOL   H282 3502   3.465   6.593   2.107 -1.1210  0.7945  0.7308
   11MOL   H283 3503   3.411   6.294   2.102  3.2504 -3.1450  0.0376
   11MOL   H284 3504   3.564   6.348   2.056 -0.5938 -0.4218  0.5562
   11MOL   H285 3505   3.322   6.468   1.911 -0.2764 -0.1844 -2.1437
   11MOL   H286 3506   3.397   6.324   1.852 -1.7794 -0.1469 -0.2652
   11MOL   H287 3507   3.481   6.477   1.852 -0.9952  0.5587 -0.3281
   11MOL   H288 3508   3.333   6.710   2.360 -1.4214 -1.6341  1.5678
   11MOL   H289 3509   3.381   6.634   2.508 -1.7938 -0.9596 -1.3360
   11MOL   C290 3510   3.480   6.812   2.458  0.4041  0.1015  0.0206
   11MOL   O291 3511   3.491   6.879   2.337  0.1939 -0.3041  0.0146
   11MOL   C292 3512   3.592   6.973   2.329 -1.1449 -0.6932  0.8175
   11MOL   C293 3513   3.729   6.913   2.297 -0.0580 -0.5568 -0.6375
   11MOL   C294 3514   3.836   7.014   2.263 -0.3937  0.0121  0.2819
   11MOL   C295 3515   3.381   6.884   2.557  0.8755 -0.4703 -0.3898
   11MOL   H296 3516   3.574   6.791   2.509  0.6937 -1.3359 -1.0713
   11MOL   H297 3517   3.571   7.030   2.238  2.8440 -0.2515  0.0841
   11MOL   H298 3518   3.599   7.043   2.412  1.0517  0.7168 -0.4822
   11MOL   H299 3519   3.702   6.842   2.219 -0.6140 -0.0985 -0.8671
   11MOL   H300 3520   3.758   6.860   2.388 -0.8597 -0.8790 -0.5708
   11MOL   H301 3521   3.889   6.999   2.169  0.1808  1.7659  0.3131
   11MOL   H302 3522   3.915   7.009   2.339 -0.2256  1.0172  0.1768
   11MOL   H303 3523   3.803   7.117   2.275 -0.1981  0.3065 -1.6559
   11MOL   H304 3524   3.416   6.987   2.566 -0.7499  0.3678 -3.0283
   11MOL   H305 3525   3.289   6.908   2.504  0.9763 -1.3095 -0.9558
   11MOL   C306 3526   3.365   6.821   2.692  0.2805  0.4780  0.2349
   11MOL   O307 3527   3.488   6.802   2.753  0.6874  0.1306  0.3736
   11MOL   C308 3528   3.511   6.688   2.828 -0.3568  0.3618  0.2914
   11MOL   C309 3529   3.642   6.697   2.897 -0.0409  0.3970 -0.7179
   11MOL   C310 3530   3.748   6.689   2.790  0.1261 -0.6001  0.1284
   11MOL   C311 3531   3.277   6.908   2.781  0.3270  0.1666  0.7628
   11MOL   H312 3532   3.312   6.727   2.678  0.5651  0.2931  0.4056
   11MOL   H313 3533   3.431   6.688   2.903 -1.4554  0.2493 -0.8668
   11MOL   H314 3534   3.492   6.599   2.769 -0.5028  2.6918 -3.3238
   11MOL   H315 3535   3.647   6.611   2.964 -1.6064  1.7593  1.2399
   11MOL   H316 3536   3.639   6.788   2.957  0.0310  0.0006 -0.1019
   11MOL   H317 3537   3.846   6.687   2.837 -0.2381 -1.4489  0.8628
   11MOL   H318 3538   3.749   6.771   2.718  1.6533 -0.2092  0.5768
   11MOL   H319 3539   3.740   6.599   2.730  1.7528 -0.2013 -0.7241
   11MOL   H320 3540   3.173   6.907   2.747  0.6335  0.6899 -0.2240
   11MOL   H321 3541   3.277   6.865   2.881 -0.4709  2.4388  1.7921
   11MOL   H322 3542   3.316   7.010   2.790  1.0609 -0.0239 -0.1756
   12MOL     C1 3543   2.044   4.194   3.882 -0.8425 -0.4951  0.2460
   12MOL     O2 3544   1.965   4.171   3.999  0.2364  0.3597 -0.4249
   12MOL     C3 3545   1.894   4.043   4.015  0.0895 -0.3795  0.1995
   12MOL     C4 3546   1.733   4.069   4.013 -0.1902  0.0127 -0.6672
   12MOL     C5 3547   1.664   3.943   4.063 -0.2794 -0.5684 -0.6539
   12MOL     C6 3548   2.115   4.333   3.879 -0.1143 -0.7924  0.3095
   12MOL     H7 3549   1.987   4.198   3.789 -2.0553  1.4522  1.0382
   12MOL     H8 3550   1.907   3.960   3.946 -1.1636  0.5276 -1.1600
   12MOL     H9 3551   1.921   3.992   4.107 -0.1244  1.2463  1.1967
   12MOL    H10 3552   1.708   4.104   3.913 -2.7648 -1.9509 -0.7635
   12MOL    H11 3553   1.712   4.156   4.076  0.2762 -0.2922 -0.0837
   12MOL    H12 3554   1.674   3.934   4.171 -1.7294 -0.4645 -0.4934
   12MOL    H13 3555   1.703   3.855   4.012 -0.8879  0.1915 -2.4535
   12MOL    H14 3556   1.557   3.945   4.043 -0.2532 -0.6358 -0.7993
   12MOL    H15 3557   2.040   4.411   3.864  0.9432  0.3357  0.8986
   12MOL    H16 3558   2.159   4.352   3.977  1.4932  1.4892 -0.8199
   12MOL    H17 3559   2.121   4.117   3.885 -0.6235 -0.2609  0.6174
   12MOL    C18 3560   2.233   4.337   3.778  0.5944 -0.0486  0.1691
   12MOL    O19 3561   2.189   4.310   3.646  0.1574  0.3404 -0.3925
   12MOL    C20 3562   2.086   4.396   3.596 -0.1873  0.0074  0.3075
   12MOL    C21 3563   2.112   4.427   3.445  0.0187 -0.1906  0.4887
   12MOL    C22 3564   2.005   4.522   3.401  0.5856 -0.5809  0.2545
   12MOL    C23 3565   2.311   4.464   3.776 -0.4202  0.0180  0.0877
   12MOL    H24 3566   2.296   4.252   3.804  0.9700  0.0381 -0.4452
   12MOL    H25 3567   1.996   4.338   3.616 -0.0488 -0.5256 -0.5584
   12MOL    H26 3568   2.076   4.493   3.644 -2.8144  0.2075 -0.5988
   12MOL    H27 3569   2.102   4.340   3.380  0.3031  0.0731  0.0874
   12MOL    H28 3570   2.211   4.473   3.439 -0.0544 -0.1619 -0.7939
   12MOL    H29 3571   1.913   4.477   3.437 -0.0630 -0.1498 -0.8448
   12MOL    H30 3572   1.985   4.526   3.294 -0.9531 -1.4000  0.4909
   12MOL    H31 3573   2.014   4.626   3.435  2.7086 -1.0078  1.0700
   12MOL    H32 3574   2.245   4.549   3.759 -0.7893 -0.4299 -0.7530
   12MOL    H33 3575   2.336   4.473   3.881  3.5385 -1.0773 -0.6800
   12MOL    C34 3576   2.443   4.469   3.691  0.1193 -0.3631  0.5760
   12MOL    O35 3577   2.494   4.606   3.709  0.5802  0.0403  0.0772
   12MOL    C36 3578   2.482   4.685   3.595 -0.2815  0.2993 -0.0589
   12MOL    C37 3579   2.565   4.820   3.592 -0.4229  0.4874 -0.7673
   12MOL    C38 3580   2.718   4.808   3.621  0.3924  0.2238  0.6228
   12MOL    C39 3581   2.554   4.383   3.750 -0.0982 -0.3587 -0.2697
   12MOL    H40 3582   2.434   4.442   3.586 -1.1208  2.5758 -0.1076
   12MOL    H41 3583   2.522   4.630   3.510 -0.1995  0.5611 -0.1875
   12MOL    H42 3584   2.376   4.697   3.575 -0.2716  2.6087  1.1382
   12MOL    H43 3585   2.518   4.885   3.665  0.5260  0.7486 -0.3912
   12MOL    H44 3586   2.553   4.874   3.498 -0.0692 -0.1146 -1.1689
   12MOL    H45 3587   2.767   4.905   3.611 -0.9947  0.8844  0.1688
   12MOL    H46 3588   2.787   4.747   3.563  2.3665 -0.4009  3.5064
   12MOL    H47 3589   2.731   4.783   3.727  0.7772  0.6029  0.6660
   12MOL    H48 3590   2.551   4.396   3.858 -1.2739  2.4316 -0.5877
   12MOL    H49 3591   2.527   4.278   3.737 -1.2703  0.1084 -1.9134
   12MOL    C50 3592   2.696   4.406   3.690  0.0842  0.0656 -0.0399
   12MOL    O51 3593   2.800   4.331   3.759  0.1602  0.4726  0.6272
   12MOL    C52 3594   2.839   4.375   3.884  0.1107  0.5377  0.1450
   12MOL    C53 3595   2.942   4.279   3.937 -0.5653  0.4949 -1.1192
   12MOL    C54 3596   2.958   4.285   4.092  0.1012  0.2862 -0.0917
   12MOL    C55 3597   2.718   4.375   3.543  0.0059 -0.0520  0.8983
   12MOL    H56 3598   2.719   4.512   3.698  1.3789 -0.2967  1.5271
   12MOL    H57 3599   2.875   4.478   3.885  3.3808 -0.4671 -1.7441
   12MOL    H58 3600   2.762   4.358   3.958  1.0362  1.8288  1.4334
   12MOL    H59 3601   3.038   4.296   3.889  1.6952 -3.2022  1.8003
   12MOL    H60 3602   2.916   4.179   3.902 -0.2320  0.5728 -1.5880
   12MOL    H61 3603   2.861   4.276   4.142 -0.5186 -1.4675 -1.5619
   12MOL    H62 3604   3.013   4.372   4.127  1.2233 -1.2762  2.0961
   12MOL    H63 3605   3.016   4.201   4.129 -0.1518  0.1312 -0.0423
   12MOL    H64 3606   2.710   4.270   3.515 -0.8343 -0.2067  1.7139
   12MOL    H65 3607   2.631   4.418   3.493 -0.0535 -0.5844  0.5368
   12MOL    C66 3608   2.851   4.411   3.467  0.5214 -0.3071 -0.8543
   12MOL    O67 3609   2.948   4.320   3.513  0.1458 -0.0489  0.3217
   12MOL    C68 3610   3.057   4.369   3.592  0.0451 -0.1992 -0.4436
   12MOL    C69 3611   3.162   4.445   3.502  0.1743  0.0820 -0.0166
   12MOL    C70 3612   3.273   4.515   3.585  0.0899  0.0607  0.2756
   12MOL    C71 3613   2.846   4.392   3.312 -0.2083  0.3219  0.9127
   12MOL    H72 3614   2.885   4.512   3.489  1.1050 -0.7140  0.1781
   12MOL    H73 3615   3.026   4.420   3.683  3.0566 -0.4603  0.7927
   12MOL    H74 3616   3.104   4.283   3.640  0.5386  0.3461  0.0588
   12MOL    H75 3617   3.113   4.519   3.439  1.0401  0.8220  0.1716
   12MOL    H76 3618   3.202   4.380   3.423 -1.8623 -0.3354 -0.7345
   12MOL    H77 3619   3.342   4.576   3.525  0.9233  0.1046  1.2629
   12MOL    H78 3620   3.331   4.438   3.636  1.7218  0.0915 -1.4407
   12MOL    H79 3621   3.222   4.574   3.661  1.6512 -0.5867  1.8543
   12MOL    H80 3622   2.942   4.410   3.264 -1.0288 -1.6580 -1.5723
   12MOL    H81 3623   2.845   4.286   3.289  1.2691  0.6343 -0.6926
   12MOL    C82 3624   2.739   4.483   3.249  0.3385  0.0473  0.3614
   12MOL    O83 3625   2.751   4.614   3.298  0.1475 -0.0305  0.9123
   12MOL    C84 3626   2.859   4.696   3.253  0.1971 -0.3383  0.0136
   12MOL    C85 3627   2.796   4.812   3.181 -0.3959 -0.1299 -0.2523
   12MOL    C86 3628   2.899   4.881   3.086 -0.5559  0.1288  0.2393
   12MOL    C87 3629   2.721   4.471   3.093 -0.2417 -0.2007 -0.4496
   12MOL    H88 3630   2.647   4.434   3.281  0.0400  1.7654  2.2407
   12MOL    H89 3631   2.917   4.732   3.338 -0.4823 -0.8278  0.6913
   12MOL    H90 3632   2.928   4.651   3.181 -1.9614 -1.8723 -1.1361
   12MOL    H91 3633   2.760   4.883   3.256  0.9166  0.8042 -0.4906
   12MOL    H92 3634   2.709   4.771   3.130 -1.2248  0.2013  0.8871
   12MOL    H93 3635   2.947   4.812   3.017 -1.4922  1.9911 -2.3507
   12MOL    H94 3636   2.986   4.928   3.132 -0.9431  1.6045 -0.4913
   12MOL    H95 3637   2.846   4.952   3.022 -1.5728 -3.4586 -3.0708
   12MOL    H96 3638   2.627   4.522   3.071  1.2208  2.1652 -1.4543
   12MOL    H97 3639   2.788   4.542   3.044  1.4420 -1.0522  0.5731
   12MOL    C98 3640   2.724   4.327   3.028 -0.2955  0.3889  0.7633
   12MOL    O99 3641   2.635   4.246   3.099  0.7730 -0.5717  0.0225
   12MOL   C100 3642   2.668   4.111   3.115  0.0217 -0.1797 -0.6397
   12MOL   C101 3643   2.567   4.046   3.201  0.1923 -0.0697  0.6047
   12MOL   C102 3644   2.563   4.109   3.354 -0.6536 -0.5029  0.2421
   12MOL   C103 3645   2.650   4.332   2.891  0.6119  0.1522  0.3661
   12MOL   H104 3646   2.826   4.289   3.033 -0.3466  0.3114  1.1774
   12MOL   H105 3647   2.666   4.050   3.025 -1.9527 -1.6463  0.3424
   12MOL   H106 3648   2.759   4.111   3.174  0.1490 -0.8030 -0.8326
   12MOL   H107 3649   2.579   3.938   3.206  0.6016  0.0159  1.5701
   12MOL   H108 3650   2.472   4.064   3.152 -0.2202 -0.2599  1.3314
   12MOL   H109 3651   2.479   4.065   3.407 -0.1895 -1.2868  0.3317
   12MOL   H110 3652   2.543   4.216   3.342 -1.7834 -0.7965 -0.6121
   12MOL   H111 3653   2.657   4.078   3.399  0.1713  2.0102  0.3249
   12MOL   H112 3654   2.656   4.231   2.849 -0.7820  0.7612 -1.3846
   12MOL   H113 3655   2.546   4.365   2.891  0.6963  0.4534 -0.6861
   12MOL   C114 3656   2.723   4.433   2.795 -0.6617  0.3037  0.1371
   12MOL   O115 3657   2.859   4.381   2.776 -0.3499  0.7670  0.1496
   12MOL   C116 3658   2.951   4.472   2.723 -0.3538  0.0912  0.1016
   12MOL   C117 3659   3.072   4.401   2.665  0.0772 -0.3647 -0.1231
   12MOL   C118 3660   3.041   4.335   2.523 -1.0782 -0.0258 -0.4441
   12MOL   C119 3661   2.647   4.434   2.656 -0.2280  0.1422  0.2643
   12MOL   H120 3662   2.740   4.532   2.837  0.5963  0.5827 -1.0036
   12MOL   H121 3663   2.910   4.527   2.638  1.2205 -0.0956 -0.7916
   12MOL   H122 3664   2.978   4.547   2.798  1.7880 -1.7586  1.2184
   12MOL   H123 3665   3.121   4.343   2.743 -1.2710 -1.8043 -0.3025
   12MOL   H124 3666   3.150   4.476   2.655  0.7748 -0.7940  1.8573
   12MOL   H125 3667   2.965   4.260   2.546 -2.7670  1.5946 -0.5630
   12MOL   H126 3668   3.125   4.297   2.465  1.2278  1.2761  1.9551
   12MOL   H127 3669   2.988   4.410   2.464 -1.5266 -0.9312 -1.2214
   12MOL   H128 3670   2.717   4.454   2.575 -0.9953  0.5115 -0.3108
   12MOL   H129 3671   2.612   4.336   2.622  0.6969  0.4084 -1.5576
   12MOL   C130 3672   2.525   4.528   2.641  0.1467 -0.4489 -0.7417
   12MOL   O131 3673   2.569   4.667   2.658  0.1596  0.1979  0.8994
   12MOL   C132 3674   2.477   4.757   2.732 -0.2601  0.0007 -0.1238
   12MOL   C133 3675   2.542   4.890   2.756  0.2875  0.3805  0.1768
   12MOL   C134 3676   2.653   4.874   2.863  0.2267  0.1599 -0.4127
   12MOL   C135 3677   2.451   4.522   2.506  0.3457 -1.2479  0.1072
   12MOL   H136 3678   2.447   4.507   2.714 -0.0674  1.6629 -0.3358
   12MOL   H137 3679   2.392   4.774   2.666 -0.1800 -0.3148 -0.3091
   12MOL   H138 3680   2.450   4.698   2.820  1.5510 -2.7305 -1.3294
   12MOL   H139 3681   2.463   4.958   2.787  0.4328  0.2866  0.7701
   12MOL   H140 3682   2.596   4.925   2.668  0.6801 -3.7099 -1.2911
   12MOL   H141 3683   2.621   4.861   2.966 -0.3686  0.0046 -0.6152
   12MOL   H142 3684   2.712   4.965   2.875 -1.6445  1.3517  0.0365
   12MOL   H143 3685   2.729   4.806   2.825 -0.1570  0.6410 -2.1047
   12MOL   H144 3686   2.399   4.616   2.489  0.8691 -1.1899 -1.2177
   12MOL   H145 3687   2.524   4.515   2.425  0.4077 -0.9287  0.1372
   12MOL   C146 3688   2.346   4.413   2.484  0.1141 -0.1574 -0.5174
   12MOL   O147 3689   2.403   4.303   2.426  0.3678 -0.0693  0.8344
   12MOL   C148 3690   2.318   4.193   2.381 -0.0674 -1.0678 -0.3832
   12MOL   C149 3691   2.384   4.109   2.276 -0.4236 -0.2022 -0.6395
   12MOL   C150 3692   2.313   3.982   2.224  0.9786 -0.9914 -0.1320
   12MOL   C151 3693   2.263   4.378   2.611 -0.1479 -0.1076  0.7269
   12MOL   H152 3694   2.279   4.465   2.416 -1.5336 -0.3057  0.9554
   12MOL   H153 3695   2.289   4.124   2.461 -3.3221  0.9895  0.2638
   12MOL   H154 3696   2.218   4.227   2.357  0.1296 -1.8117 -2.3364
   12MOL   H155 3697   2.482   4.081   2.315 -0.4395 -0.2535 -0.6373
   12MOL   H156 3698   2.404   4.175   2.192 -1.4965 -0.5384 -1.1710
   12MOL   H157 3699   2.356   3.930   2.138 -0.3860  0.4547 -1.7318
   12MOL   H158 3700   2.213   4.015   2.195  0.7537  0.0562  1.7469
   12MOL   H159 3701   2.291   3.917   2.309  2.7962 -2.3233 -0.6446
   12MOL   H160 3702   2.198   4.299   2.573  2.0553 -1.1885 -0.9338
   12MOL   H161 3703   2.331   4.340   2.687  2.0089  2.7271  0.3034
   12MOL   C162 3704   2.168   4.485   2.677 -0.9352 -0.4366  0.5883
   12MOL   O163 3705   2.067   4.516   2.592  0.1320  0.1502 -0.0757
   12MOL   C164 3706   2.079   4.652   2.540 -0.5269  0.8111  0.3888
   12MOL   C165 3707   1.971   4.679   2.441 -0.1728  0.1073  0.2594
   12MOL   C166 3708   1.966   4.819   2.386  0.3146  0.2772 -0.5208
   12MOL   C167 3709   2.097   4.431   2.801 -0.1765 -0.2332 -0.3101
   12MOL   H168 3710   2.224   4.575   2.701 -1.4470 -0.0249  0.2518
   12MOL   H169 3711   2.079   4.727   2.619 -1.0019  1.3021 -0.0762
   12MOL   H170 3712   2.176   4.656   2.491  0.2113  1.9347  1.8906
   12MOL   H171 3713   1.873   4.650   2.478 -1.0533  0.5408 -1.6523
   12MOL   H172 3714   1.991   4.620   2.351  1.0794  0.4951  0.2761
   12MOL   H173 3715   1.918   4.841   2.291 -1.1497  2.0884  0.5991
   12MOL   H174 3716   2.067   4.852   2.363  1.3565 -0.6596  2.4936
   12MOL   H175 3717   1.917   4.895   2.447 -1.6714 -0.2039 -1.5054
   12MOL   H176 3718   2.011   4.494   2.824  1.6200  1.6191  1.5339
   12MOL   H177 3719   2.064   4.328   2.787 -1.2302  0.2893 -1.8566
   12MOL   C178 3720   2.188   4.423   2.921 -0.5497  0.5911  0.5767
   12MOL   O179 3721   2.222   4.552   2.958 -0.2399  0.0517 -0.2855
   12MOL   C180 3722   2.329   4.563   3.048 -0.0805 -0.0351 -0.1504
   12MOL   C181 3723   2.317   4.705   3.110  0.3078  0.5389  0.3156
   12MOL   C182 3724   2.414   4.700   3.232  0.0610  0.2943  0.3315
   12MOL   C183 3725   2.108   4.359   3.035  0.2032 -0.0599 -0.4458
   12MOL   H184 3726   2.276   4.361   2.904 -1.3606 -0.3708 -0.1398
   12MOL   H185 3727   2.320   4.481   3.120 -2.2767 -0.3614 -0.7518
   12MOL   H186 3728   2.427   4.558   3.000  0.7009  2.0983  1.1352
   12MOL   H187 3729   2.214   4.727   3.138  0.6733 -0.4023  2.4960
   12MOL   H188 3730   2.335   4.778   3.031 -0.5620 -0.6037 -0.9657
   12MOL   H189 3731   2.392   4.787   3.294  0.9271  0.8335 -0.1049
   12MOL   H190 3732   2.520   4.696   3.208 -0.1408  0.1435 -0.5342
   12MOL   H191 3733   2.401   4.617   3.301  1.0783 -0.2691 -0.1502
   12MOL   H192 3734   2.160   4.359   3.130  0.0083 -3.4460 -0.2818
   12MOL   H193 3735   2.017   4.419   3.039 -0.6830 -1.4409  0.5658
   12MOL   C194 3736   2.051   4.217   3.007 -0.7109 -0.0391 -0.7534
   12MOL   O195 3737   2.172   4.143   2.980 -0.3614  0.2252 -0.3550
   12MOL   C196 3738   2.175   4.053   2.880 -0.5541 -0.7568  0.2166
   12MOL   C197 3739   2.301   3.969   2.892  0.0385 -0.4582 -0.3286
   12MOL   C198 3740   2.419   4.053   2.860 -0.2459  0.4275  0.3435
   12MOL   C199 3741   1.974   4.153   3.129  0.0909  0.7074 -0.0312
   12MOL   H200 3742   1.984   4.209   2.922 -2.4594 -0.5555  0.6211
   12MOL   H201 3743   2.089   3.987   2.871 -0.2397 -0.9529 -1.5206
   12MOL   H202 3744   2.173   4.109   2.786 -0.9767  0.3908  0.9078
   12MOL   H203 3745   2.294   3.889   2.818  0.1608 -1.3825  0.6582
   12MOL   H204 3746   2.303   3.911   2.984 -0.8317  2.3294  1.5250
   12MOL   H205 3747   2.506   3.991   2.840  1.1011  2.3707  0.0264
   12MOL   H206 3748   2.448   4.123   2.938 -0.2859  0.6236  0.1856
   12MOL   H207 3749   2.386   4.119   2.779 -1.4049 -0.0635  0.4086
   12MOL   H208 3750   1.974   4.045   3.111 -1.6514  0.9595 -1.6882
   12MOL   H209 3751   2.046   4.160   3.211  2.1983  0.1242 -1.7591
   12MOL   C210 3752   1.825   4.185   3.158  0.0028  0.5416  0.1356
   12MOL   O211 3753   1.819   4.320   3.127  0.5858  0.3743 -0.2644
   12MOL   C212 3754   1.705   4.395   3.183 -0.6723 -0.0714 -0.2693
   12MOL   C213 3755   1.700   4.541   3.136  0.2376  0.2439 -0.2153
   12MOL   C214 3756   1.706   4.554   2.980 -0.1984 -0.3280 -0.0596
   12MOL   C215 3757   1.727   4.107   3.073  0.3989  0.0635 -0.4717
   12MOL   H216 3758   1.791   4.164   3.260 -0.7543  1.3546  0.0544
   12MOL   H217 3759   1.611   4.346   3.158 -1.0942  0.0396  1.0362
   12MOL   H218 3760   1.705   4.380   3.291  0.2493 -0.0545 -0.2627
   12MOL   H219 3761   1.788   4.593   3.173  0.3776  0.3762 -0.7245
   12MOL   H220 3762   1.606   4.584   3.171 -1.3173 -2.2777 -1.1900
   12MOL   H221 3763   1.623   4.496   2.941  0.1140 -0.3493 -0.7060
   12MOL   H222 3764   1.797   4.509   2.940 -0.0386 -0.1256  0.0694
   12MOL   H223 3765   1.698   4.654   2.935 -1.3885 -0.3488  0.0996
   12MOL   H224 3766   1.661   4.179   3.026 -0.7752  0.0871  1.1581
   12MOL   H225 3767   1.777   4.063   2.987 -0.3705  0.9027 -1.3610
   12MOL   C226 3768   1.661   3.991   3.151 -0.6372 -0.1076  0.3039
   12MOL   O227 3769   1.565   3.932   3.063 -0.3997  0.5820  0.2305
   12MOL   C228 3770   1.435   3.994   3.056 -0.3761 -0.0666 -0.0153
   12MOL   C229 3771   1.361   3.938   2.933 -0.2051  0.7903 -0.3555
   12MOL   C230 3772   1.426   3.964   2.799  0.4895 -0.4294 -0.0304
   12MOL   C231 3773   1.750   3.874   3.204  1.2026 -0.5276 -0.3725
   12MOL   H232 3774   1.603   4.035   3.232 -0.1939 -0.7131  0.9559
   12MOL   H233 3775   1.381   3.987   3.150  0.4431  0.4823  0.5053
   12MOL   H234 3776   1.447   4.100   3.035 -2.4328  0.2903  0.5161
   12MOL   H235 3777   1.260   3.979   2.938 -0.3143  0.4187  0.5400
   12MOL   H236 3778   1.348   3.831   2.952 -0.0112  0.5727 -1.4121
   12MOL   H237 3779   1.439   4.066   2.762 -0.7226  0.4433  1.9070
   12MOL   H238 3780   1.377   3.911   2.718 -1.1732  0.6308  0.2601
   12MOL   H239 3781   1.530   3.931   2.807  1.0727  1.1743 -0.7732
   12MOL   H240 3782   1.773   3.808   3.120 -1.0019 -0.7651 -0.8407
   12MOL   H241 3783   1.842   3.924   3.233  0.5154  1.6894 -1.9150
   12MOL   C242 3784   1.689   3.800   3.326  0.1302 -0.2043 -0.6071
   12MOL   O243 3785   1.692   3.884   3.439 -0.6356  0.5183  0.1941
   12MOL   C244 3786   1.809   3.879   3.520 -0.1994 -0.3915  0.3900
   12MOL   C245 3787   1.792   3.971   3.637  0.0160 -0.2943  0.2107
   12MOL   C246 3788   1.773   4.116   3.605 -0.2952  0.5556  0.0871
   12MOL   C247 3789   1.548   3.750   3.306 -0.5268  0.6090 -1.1716
   12MOL   H248 3790   1.757   3.719   3.351 -0.9267 -0.7426  0.5232
   12MOL   H249 3791   1.829   3.774   3.541  0.4747 -0.5179 -0.7984
   12MOL   H250 3792   1.900   3.907   3.466  1.4571 -2.7635  1.8316
   12MOL   H251 3793   1.881   3.959   3.699  0.4618 -1.7617 -0.7021
   12MOL   H252 3794   1.698   3.944   3.686 -0.3506  1.3769  0.4659
   12MOL   H253 3795   1.853   4.157   3.543 -1.3970 -0.1707 -1.8581
   12MOL   H254 3796   1.765   4.175   3.696 -1.7960  0.2969  0.1444
   12MOL   H255 3797   1.682   4.139   3.549  0.8071  0.3419 -1.8278
   12MOL   H256 3798   1.490   3.838   3.278 -1.6897  0.0779 -0.4897
   12MOL   H257 3799   1.534   3.684   3.220  1.4336  0.9968 -1.8011
   12MOL   C258 3800   1.473   3.684   3.422 -0.4303  0.3340  0.0814
   12MOL   O259 3801   1.343   3.643   3.374 -0.0645 -0.1423  0.0451
   12MOL   C260 3802   1.242   3.747   3.380  0.2793  0.3080  0.0740
   12MOL   C261 3803   1.132   3.721   3.280 -0.4844  0.1356 -0.2019
   12MOL   C262 3804   1.057   3.590   3.291  0.2537  0.0345  0.6864
   12MOL   C263 3805   1.549   3.561   3.475  0.5978 -0.0663 -0.4854
   12MOL   H264 3806   1.454   3.765   3.492  0.1870 -0.1042  0.7646
   12MOL   H265 3807   1.206   3.744   3.483 -0.1442  2.1630  0.0017
   12MOL   H266 3808   1.287   3.844   3.359  1.3348 -0.0642  0.6105
   12MOL   H267 3809   1.185   3.728   3.185  0.6743 -1.0405  0.3274
   12MOL   H268 3810   1.064   3.806   3.274 -1.4651 -0.3778  2.6406
   12MOL   H269 3811   1.122   3.502   3.285  2.8180  1.7771  2.1224
   12MOL   H270 3812   0.975   3.581   3.220 -0.3699  2.0250  1.1415
   12MOL   H271 3813   1.008   3.588   3.389  0.4271  1.9952  0.8193
   12MOL   H272 3814   1.574   3.489   3.398 -0.6184 -0.2446 -0.7229
   12MOL   H273 3815   1.650   3.583   3.508  1.3117 -1.3281 -1.7557
   12MOL   C274 3816   1.473   3.488   3.578  0.4477 -0.6051 -0.4821
   12MOL   O275 3817   1.566   3.392   3.627  0.1474 -0.0767 -0.0296
   12MOL   C276 3818   1.543   3.263   3.571 -0.2640  0.4018  0.4850
   12MOL   C277 3819   1.639   3.167   3.641  0.3321 -0.3823  0.0552
   12MOL   C278 3820   1.618   3.022   3.595 -0.8224  0.5105  0.1441
   12MOL   C279 3821   1.425   3.570   3.705  0.2137 -0.3662  0.2918
   12MOL   H280 3822   1.385   3.445   3.530 -0.1173  0.1767 -0.1532
   12MOL   H281 3823   1.438   3.235   3.580 -0.8572  1.7609 -1.6866
   12MOL   H282 3824   1.549   3.255   3.462 -3.0627 -2.5457  0.4854
   12MOL   H283 3825   1.635   3.165   3.750 -1.4076 -1.2477  0.0053
   12MOL   H284 3826   1.735   3.197   3.600 -0.7836  1.7604 -1.0675
   12MOL   H285 3827   1.605   3.009   3.487 -3.1956  1.3005  0.3176
   12MOL   H286 3828   1.525   2.997   3.646 -0.6085  0.2965  0.4317
   12MOL   H287 3829   1.691   2.948   3.628 -1.0861  0.0832 -0.2207
   12MOL   H288 3830   1.508   3.612   3.762 -0.1899  1.4312 -0.4002
   12MOL   H289 3831   1.364   3.654   3.669 -0.8771 -1.4880 -0.5241
   12MOL   C290 3832   1.341   3.485   3.811  0.0768 -0.1827 -0.4967
   12MOL   O291 3833   1.325   3.576   3.922  0.1188  0.4514 -0.0376
   12MOL   C292 3834   1.435   3.581   4.015  0.1760 -0.0353 -0.0005
   12MOL   C293 3835   1.411   3.686   4.126  0.3246  0.7747  0.9103
   12MOL   C294 3836   1.300   3.622   4.213  0.0243  0.0075 -0.2543
   12MOL   C295 3837   1.198   3.451   3.762 -0.0113 -0.0702  0.5724
   12MOL   H296 3838   1.386   3.391   3.841  1.3000  0.2857 -0.8545
   12MOL   H297 3839   1.472   3.491   4.064  0.8961  1.7442  2.8137
   12MOL   H298 3840   1.527   3.606   3.963  0.3820  0.3468  0.5424
   12MOL   H299 3841   1.387   3.785   4.087 -1.3938 -0.4583 -1.3071
   12MOL   H300 3842   1.508   3.701   4.172  0.7004  3.1740 -0.5623
   12MOL   H301 3843   1.207   3.597   4.163  1.6865 -0.5549 -3.1822
   12MOL   H302 3844   1.278   3.694   4.292  0.0812 -1.7704  1.4099
   12MOL   H303 3845   1.341   3.534   4.262  0.4393  1.4971  2.1536
   12MOL   H304 3846   1.160   3.543   3.717  2.0248  0.2572 -0.5731
   12MOL   H305 3847   1.211   3.388   3.674 -1.3147 -1.2012  1.1834
   12MOL   C306 3848   1.107   3.381   3.865  1.1050 -0.1659  0.4115
   12MOL   O307 3849   0.975   3.412   3.843 -0.6069  0.0766 -0.1775
   12MOL   C308 3850   0.925   3.536   3.896  0.8242  0.4372 -0.5692
   12MOL   C309 3851   0.786   3.566   3.839 -0.6532 -0.2515  0.3755
   12MOL   C310 3852   0.793   3.631   3.698 -0.1731  0.0971  0.1218
   12MOL   C311 3853   1.132   3.236   3.878  0.2973  0.2903 -0.2372
   12MOL   H312 3854   1.128   3.425   3.963 -2.4014 -0.5735  1.4235
   12MOL   H313 3855   0.925   3.530   4.005 -0.8051  1.0704 -0.5115
   12MOL   H314 3856   1.000   3.613   3.874 -1.2711  2.2139 -1.7426
   12MOL   H315 3857   0.733   3.626   3.913 -2.8800 -0.6289 -0.8646
   12MOL   H316 3858   0.712   3.486   3.833  0.9238 -1.7985  1.1446
   12MOL   H317 3859   0.856   3.720   3.700 -0.6340  0.4238  0.2376
   12MOL   H318 3860   0.691   3.644   3.660  0.2303 -0.0340 -1.0237
   12MOL   H319 3861   0.827   3.557   3.626 -1.3069  0.0439 -0.3727
   12MOL   H320 3862   1.102   3.190   3.784  1.3990 -0.3504 -0.2813
   12MOL   H321 3863   1.239   3.228   3.898  0.2006 -2.0534 -0.5112
   12MOL   H322 3864   1.088   3.179   3.960  1.0457 -0.1239 -0.1146
   13MOL     C1 3865   2.528   5.178   6.284  0.7286 -0.3897 -0.2425
   13MOL     O2 3866   2.558   5.053   6.245  0.1522 -0.2741  0.1646
   13MOL     C3 3867   2.694   5.030   6.212  0.0630 -0.5621  0.0141
   13MOL     C4 3868   2.719   4.908   6.127  0.5584  0.0451  0.1163
   13MOL     C5 3869   2.624   4.904   6.009  0.1366  0.4287 -0.0557
   13MOL     C6 3870   2.371   5.188   6.308  0.2614 -0.4825  0.4535
   13MOL     H7 3871   2.563   5.246   6.206 -0.1638  0.1511 -0.1819
   13MOL     H8 3872   2.723   5.121   6.159  2.1230 -1.0833  0.2095
   13MOL     H9 3873   2.760   5.030   6.299 -1.8223  0.6547  1.4947
   13MOL    H10 3874   2.695   4.822   6.190 -1.1536 -0.2784 -0.9394
   13MOL    H11 3875   2.822   4.914   6.093  0.4626  0.5487 -0.0826
   13MOL    H12 3876   2.633   4.992   5.945  2.1841 -0.3116 -0.8371
   13MOL    H13 3877   2.525   4.885   6.050  0.3519 -0.0685  0.2410
   13MOL    H14 3878   2.663   4.834   5.935 -1.6179  0.9330 -1.5106
   13MOL    H15 3879   2.352   5.104   6.375  2.6057 -1.9320 -0.6279
   13MOL    H16 3880   2.355   5.281   6.362  1.2301 -0.0974  0.0858
   13MOL    H17 3881   2.569   5.210   6.379 -1.6217  2.4214 -0.1106
   13MOL    C18 3882   2.281   5.183   6.179  0.3072 -0.0465 -0.6493
   13MOL    O19 3883   2.147   5.175   6.220 -0.2904 -0.8050 -0.2846
   13MOL    C20 3884   2.106   5.036   6.229  0.1151  0.4110 -0.3816
   13MOL    C21 3885   1.964   5.029   6.286 -0.4504  0.1260 -0.3749
   13MOL    C22 3886   1.966   5.056   6.442 -0.2133 -0.1097 -0.0803
   13MOL    C23 3887   2.296   5.311   6.092  0.3090 -0.2293 -0.0511
   13MOL    H24 3888   2.301   5.088   6.128 -3.0819 -0.2940 -1.6046
   13MOL    H25 3889   2.105   4.993   6.129 -1.2719 -0.4244 -0.0218
   13MOL    H26 3890   2.172   4.971   6.286  0.8464  1.6792  0.2558
   13MOL    H27 3891   1.924   4.929   6.275 -0.8846  0.4466 -1.8502
   13MOL    H28 3892   1.897   5.101   6.239 -0.3132  0.1551 -0.5281
   13MOL    H29 3893   2.033   5.140   6.461  0.9148 -1.4277  1.9411
   13MOL    H30 3894   2.001   4.970   6.499  0.0974  0.5684  0.7610
   13MOL    H31 3895   1.866   5.077   6.480 -0.3211  0.9174 -0.9195
   13MOL    H32 3896   2.227   5.388   6.126  0.9653 -0.0265  0.8293
   13MOL    H33 3897   2.400   5.345   6.091  0.4594 -0.6237 -2.4154
   13MOL    C34 3898   2.255   5.275   5.945 -0.0046  0.1589  0.8774
   13MOL    O35 3899   2.255   5.392   5.864  0.2315  0.3392  0.0433
   13MOL    C36 3900   2.128   5.448   5.850 -0.1230 -0.4728  0.0535
   13MOL    C37 3901   2.139   5.572   5.761  0.2383  0.4163  0.2331
   13MOL    C38 3902   2.207   5.543   5.623 -0.5642 -0.1308  0.0562
   13MOL    C39 3903   2.377   5.191   5.876 -0.3373  0.1799  0.4376
   13MOL    H40 3904   2.156   5.230   5.942 -1.0909  2.5347  0.0784
   13MOL    H41 3905   2.057   5.379   5.806  0.4014 -0.9848 -0.0009
   13MOL    H42 3906   2.085   5.474   5.947 -1.4860  1.2108 -0.9792
   13MOL    H43 3907   2.186   5.656   5.811  0.2513  0.6743 -0.2153
   13MOL    H44 3908   2.035   5.596   5.739  0.2815  0.0995 -0.3301
   13MOL    H45 3909   2.174   5.451   5.577 -0.2090  0.9172 -2.3591
   13MOL    H46 3910   2.315   5.534   5.634 -0.9724 -1.8388  3.3378
   13MOL    H47 3911   2.186   5.630   5.561 -3.0486 -0.6645  0.1089
   13MOL    H48 3912   2.459   5.260   5.854 -0.1665  0.7281  2.6994
   13MOL    H49 3913   2.416   5.116   5.944 -1.8066 -1.0508 -0.0356
   13MOL    C50 3914   2.335   5.105   5.758  0.7217 -0.4215 -0.1777
   13MOL    O51 3915   2.449   5.057   5.685  0.2722  0.9388 -0.0759
   13MOL    C52 3916   2.493   5.154   5.599 -0.0342 -0.0227  0.0146
   13MOL    C53 3917   2.575   5.070   5.500  0.4651  0.0089 -0.4506
   13MOL    C54 3918   2.703   5.022   5.564 -0.5207  0.1176 -0.5930
   13MOL    C55 3919   2.251   4.985   5.798  0.0685  0.1500  0.5719
   13MOL    H56 3920   2.258   5.159   5.703  0.8618  1.7683  1.6968
   13MOL    H57 3921   2.412   5.212   5.554 -1.3668  0.0179  2.3973
   13MOL    H58 3922   2.555   5.225   5.652  0.3495  0.1573 -0.6778
   13MOL    H59 3923   2.603   5.129   5.413  1.1068  1.0051  0.4295
   13MOL    H60 3924   2.505   4.990   5.472 -1.0844  1.4225 -0.6926
   13MOL    H61 3925   2.688   4.972   5.659  0.3025 -0.4232 -0.7390
   13MOL    H62 3926   2.765   5.110   5.582  0.1426 -0.4044 -0.2629
   13MOL    H63 3927   2.760   4.961   5.494 -0.9221  1.7561 -2.3985
   13MOL    H64 3928   2.314   4.925   5.864  1.4165  0.3531 -0.5122
   13MOL    H65 3929   2.162   5.019   5.850 -0.4575 -0.6323  0.1904
   13MOL    C66 3930   2.220   4.882   5.685  0.4315  0.0724 -0.4486
   13MOL    O67 3931   2.148   4.762   5.721 -0.9487 -0.4858 -0.0447
   13MOL    C68 3932   2.233   4.657   5.774 -0.1293  0.0042  0.0398
   13MOL    C69 3933   2.155   4.534   5.826  0.5225  0.1637  0.2735
   13MOL    C70 3934   2.039   4.588   5.906  0.2531 -0.1681  0.2386
   13MOL    C71 3935   2.131   4.947   5.576 -0.5510 -0.5639 -0.4208
   13MOL    H72 3936   2.314   4.861   5.634 -0.6988  1.1829 -3.0848
   13MOL    H73 3937   2.298   4.616   5.697 -1.4993 -1.1276 -0.5357
   13MOL    H74 3938   2.289   4.699   5.858  0.7285  0.9098 -0.9803
   13MOL    H75 3939   2.223   4.467   5.877 -0.5561 -2.0956 -1.1429
   13MOL    H76 3940   2.117   4.472   5.745  0.4189 -0.1738  0.5801
   13MOL    H77 3941   2.064   4.673   5.971 -1.7009  0.6330 -0.0308
   13MOL    H78 3942   1.994   4.515   5.972 -2.9967 -0.4756 -2.1919
   13MOL    H79 3943   1.968   4.619   5.829  2.0867  0.7867 -1.1067
   13MOL    H80 3944   2.033   4.975   5.613 -0.3151  1.1586 -1.0313
   13MOL    H81 3945   2.180   5.041   5.552 -1.9606  0.4075  0.4573
   13MOL    C82 3946   2.093   4.855   5.453  0.2636 -0.0370 -0.3369
   13MOL    O83 3947   1.972   4.915   5.413 -0.1316 -0.3686 -0.3287
   13MOL    C84 3948   1.897   4.825   5.335 -0.5654  0.4477  0.7510
   13MOL    C85 3949   1.764   4.902   5.322  0.0675 -0.0471 -0.2943
   13MOL    C86 3950   1.655   4.813   5.246  0.6146 -0.1986  0.0522
   13MOL    C87 3951   2.188   4.882   5.341 -0.4242  0.1041  0.0457
   13MOL    H88 3952   2.077   4.753   5.488  2.2568 -0.1125  0.4151
   13MOL    H89 3953   1.942   4.823   5.236  0.8630  1.5317  1.3629
   13MOL    H90 3954   1.893   4.724   5.374  1.4629  0.1427  0.2343
   13MOL    H91 3955   1.773   4.999   5.273  1.5655  0.4856  0.9886
   13MOL    H92 3956   1.731   4.922   5.424 -0.4109  0.6547 -0.5846
   13MOL    H93 3957   1.697   4.795   5.147  0.7568 -0.6032  0.1863
   13MOL    H94 3958   1.558   4.861   5.241  1.2451  1.1559  0.4443
   13MOL    H95 3959   1.643   4.721   5.303  1.0293  0.2865  0.9337
   13MOL    H96 3960   2.142   4.842   5.250 -0.0571 -1.8737  0.6907
   13MOL    H97 3961   2.205   4.987   5.317  1.7508 -0.1744  0.3019
   13MOL    C98 3962   2.320   4.803   5.336  0.5260  0.0861 -0.5050
   13MOL    O99 3963   2.308   4.660   5.327  0.6079  0.6408 -0.2743
   13MOL   C100 3964   2.430   4.597   5.370  0.4357  0.2708 -0.6271
   13MOL   C101 3965   2.405   4.443   5.375 -0.7607  0.0172  0.0746
   13MOL   C102 3966   2.318   4.407   5.499 -0.0474 -0.0475 -0.2653
   13MOL   C103 3967   2.415   4.873   5.241 -0.1378  0.2183  0.8889
   13MOL   H104 3968   2.358   4.816   5.437  0.1156 -2.0790 -0.0469
   13MOL   H105 3969   2.505   4.614   5.293  1.3647 -0.1526  0.1687
   13MOL   H106 3970   2.471   4.631   5.465 -0.7546 -1.9086  0.7002
   13MOL   H107 3971   2.504   4.398   5.381  0.2782  2.3768  0.9167
   13MOL   H108 3972   2.350   4.404   5.289 -1.8883  1.2910  0.2023
   13MOL   H109 3973   2.233   4.475   5.500 -0.3354 -0.3941 -1.1186
   13MOL   H110 3974   2.368   4.428   5.594 -0.1324 -2.3847  0.3100
   13MOL   H111 3975   2.299   4.300   5.499  0.1224 -0.0824  0.4536
   13MOL   H112 3976   2.403   4.981   5.249 -0.2007  0.2630  0.2174
   13MOL   H113 3977   2.514   4.849   5.282  0.7402  1.4392 -0.4678
   13MOL   C114 3978   2.414   4.832   5.084 -0.0639 -0.1032  0.0862
   13MOL   O115 3979   2.295   4.896   5.037  0.2988 -0.3419 -0.6412
   13MOL   C116 3980   2.208   4.813   4.965  0.5939  0.2026  0.0259
   13MOL   C117 3981   2.083   4.889   4.943 -0.1534 -0.7127  0.1961
   13MOL   C118 3982   1.979   4.825   4.841 -0.6022  0.1468  0.5426
   13MOL   C119 3983   2.528   4.907   5.009  0.3652 -0.0906 -0.0826
   13MOL   H120 3984   2.417   4.725   5.066  0.6559  0.2412 -2.0791
   13MOL   H121 3985   2.264   4.800   4.872  1.5766 -0.0525  0.6544
   13MOL   H122 3986   2.188   4.719   5.015  1.3838  0.6003  1.1025
   13MOL   H123 3987   2.095   4.995   4.924  2.3679 -0.9338  0.4262
   13MOL   H124 3988   2.028   4.893   5.038 -1.7370 -0.3958 -0.7094
   13MOL   H125 3989   1.943   4.738   4.896  0.5873 -0.1257  0.8935
   13MOL   H126 3990   2.017   4.782   4.748 -1.4340 -0.0796  0.3008
   13MOL   H127 3991   1.902   4.896   4.813 -0.5024 -0.5649 -1.6186
   13MOL   H128 3992   2.485   4.923   4.911  0.1246 -1.1775 -0.1561
   13MOL   H129 3993   2.554   5.005   5.050  0.2225  0.0229 -0.2701
   13MOL   C130 3994   2.659   4.822   4.984  0.7080  0.0166  0.2296
   13MOL   O131 3995   2.730   4.876   4.880 -0.3060 -0.7686 -0.1406
   13MOL   C132 3996   2.695   4.828   4.754 -0.3078 -0.0424  0.0685
   13MOL   C133 3997   2.750   4.927   4.650  0.3271  0.2192  0.3977
   13MOL   C134 3998   2.729   4.892   4.507  0.0334  0.8691  0.0799
   13MOL   C135 3999   2.751   4.813   5.118 -0.3632  0.5700 -0.2755
   13MOL   H136 4000   2.629   4.722   4.954 -1.1967  1.5369 -3.1761
   13MOL   H137 4001   2.738   4.730   4.734 -2.1015 -1.1732  1.5514
   13MOL   H138 4002   2.588   4.811   4.739 -0.2282  0.9291 -1.7176
   13MOL   H139 4003   2.858   4.938   4.652  0.2888  1.0664 -1.3455
   13MOL   H140 4004   2.699   5.022   4.665 -0.3824  0.0614 -0.9174
   13MOL   H141 4005   2.775   4.798   4.475 -1.4512 -0.0954  0.6931
   13MOL   H142 4006   2.774   4.968   4.444 -0.0084  1.0533  0.2746
   13MOL   H143 4007   2.623   4.883   4.482 -0.0664  2.1383  0.0248
   13MOL   H144 4008   2.759   4.902   5.180 -1.2134  0.5007 -0.0571
   13MOL   H145 4009   2.708   4.743   5.190  0.8859 -0.2050 -0.2638
   13MOL   C146 4010   2.893   4.768   5.078  0.3466 -0.0665  0.4605
   13MOL   O147 4011   2.962   4.749   5.207 -0.4018 -0.7949 -0.4888
   13MOL   C148 4012   3.039   4.859   5.242  0.8046 -0.2739  0.8186
   13MOL   C149 4013   3.084   4.831   5.384  0.1178 -0.3869 -0.6345
   13MOL   C150 4014   3.143   4.949   5.461 -0.0158 -0.1649 -0.2561
   13MOL   C151 4015   2.900   4.631   5.009 -0.3829 -0.0562  0.0696
   13MOL   H152 4016   2.939   4.848   5.021  1.1641 -0.2931  0.8066
   13MOL   H153 4017   3.127   4.857   5.177  0.1587 -2.8938 -0.0082
   13MOL   H154 4018   2.981   4.950   5.229  1.1257 -0.3853 -1.6495
   13MOL   H155 4019   3.148   4.743   5.378  0.2416 -0.4469  1.2662
   13MOL   H156 4020   3.002   4.786   5.439  1.9969 -4.2560 -0.8610
   13MOL   H157 4021   3.077   5.036   5.454 -1.2931 -1.0448  0.6336
   13MOL   H158 4022   3.239   4.969   5.415 -0.6941 -3.0367 -3.0795
   13MOL   H159 4023   3.154   4.925   5.567 -1.0878 -0.1760 -0.1421
   13MOL   H160 4024   2.847   4.558   5.070 -1.7164  0.8243 -0.0012
   13MOL   H161 4025   2.850   4.624   4.912  0.7778  0.1720 -0.5581
   13MOL   C162 4026   3.045   4.573   4.990 -0.8268 -0.1982 -0.6059
   13MOL   O163 4027   3.044   4.441   4.934  0.1512 -0.4214 -0.1885
   13MOL   C164 4028   3.049   4.335   5.029 -0.7152  0.1063 -0.5053
   13MOL   C165 4029   3.015   4.199   4.963  0.0304  0.4197 -0.1125
   13MOL   C166 4030   3.127   4.141   4.878 -1.1155 -0.4595  0.7667
   13MOL   C167 4031   3.150   4.652   4.909 -0.2213 -0.1003  0.1057
   13MOL   H168 4032   3.081   4.564   5.092  1.0794  0.0959 -1.2350
   13MOL   H169 4033   3.151   4.340   5.068 -0.4010 -0.9860 -1.1606
   13MOL   H170 4034   2.983   4.355   5.113  1.6606 -1.8836  1.9622
   13MOL   H171 4035   2.920   4.211   4.911 -0.2686  1.9054  0.7465
   13MOL   H172 4036   2.998   4.135   5.050  1.0446  2.8191  1.9348
   13MOL   H173 4037   3.213   4.120   4.941  0.4897  1.5431 -0.6556
   13MOL   H174 4038   3.159   4.221   4.810  1.0944 -2.3206 -0.4406
   13MOL   H175 4039   3.105   4.052   4.820  0.1388  0.2739 -0.9123
   13MOL   H176 4040   3.166   4.743   4.967  0.8357  0.0749 -0.4705
   13MOL   H177 4041   3.245   4.601   4.892 -1.3777 -2.0522 -0.6913
   13MOL   C178 4042   3.099   4.714   4.777 -0.1303  0.2679 -0.8129
   13MOL   O179 4043   3.198   4.801   4.720 -0.8213  0.1978 -0.5838
   13MOL   C180 4044   3.207   4.930   4.767 -0.0023  0.3262 -0.3222
   13MOL   C181 4045   3.316   5.000   4.701 -0.1287  0.2908  0.5130
   13MOL   C182 4046   3.330   5.142   4.744  0.1754  0.6794  0.1556
   13MOL   C183 4047   3.052   4.613   4.669  0.4544 -0.2725  0.2217
   13MOL   H184 4048   3.013   4.776   4.802 -0.8887 -1.8397  2.0709
   13MOL   H185 4049   3.118   4.988   4.741  0.9358  0.8157 -2.5416
   13MOL   H186 4050   3.217   4.923   4.876  2.0906  3.4018 -0.2499
   13MOL   H187 4051   3.306   4.998   4.592  2.0610 -0.4357  0.2896
   13MOL   H188 4052   3.398   4.933   4.729 -1.0643 -1.2486 -0.3560
   13MOL   H189 4053   3.239   5.201   4.735  1.7845  3.2842  0.4174
   13MOL   H190 4054   3.409   5.194   4.690 -0.8283  1.0659 -0.9688
   13MOL   H191 4055   3.358   5.146   4.849 -0.3092  0.2635  0.3032
   13MOL   H192 4056   2.957   4.588   4.715  0.4737  0.2436  0.5496
   13MOL   H193 4057   3.014   4.670   4.584  1.6454  0.3624  0.0948
   13MOL   C194 4058   3.138   4.492   4.626  0.0947  0.6034 -0.2598
   13MOL   O195 4059   3.056   4.419   4.534 -0.0510 -0.6083 -0.3585
   13MOL   C196 4060   2.992   4.305   4.590  0.3339  0.3332 -0.1853
   13MOL   C197 4061   2.886   4.257   4.496  0.1281  0.8016  0.0416
   13MOL   C198 4062   2.819   4.128   4.550  0.6925  0.3116 -0.5462
   13MOL   C199 4063   3.269   4.539   4.555 -0.0314 -0.2194 -0.6729
   13MOL   H200 4064   3.162   4.439   4.719  0.9572  0.0247 -0.8059
   13MOL   H201 4065   3.068   4.233   4.621 -1.3816  0.2943  4.2746
   13MOL   H202 4066   2.939   4.325   4.683  0.6568  0.3710 -0.0068
   13MOL   H203 4067   2.932   4.227   4.402 -0.7825 -3.9106  0.9420
   13MOL   H204 4068   2.806   4.328   4.476  1.6504  2.3308 -0.7229
   13MOL   H205 4069   2.768   4.151   4.644  1.6997  1.2154 -0.2032
   13MOL   H206 4070   2.889   4.049   4.578 -0.6928 -0.7125  0.1031
   13MOL   H207 4071   2.748   4.087   4.478  0.8444 -3.1800  1.1571
   13MOL   H208 4072   3.233   4.566   4.456 -0.8829  1.6803  0.1404
   13MOL   H209 4073   3.319   4.629   4.590  0.3310 -0.8083  0.3721
   13MOL   C210 4074   3.387   4.437   4.540 -0.5107 -0.2357  0.4299
   13MOL   O211 4075   3.463   4.459   4.423  0.4962 -0.9580  0.4463
   13MOL   C212 4076   3.403   4.399   4.312  0.8561 -0.3613 -1.2389
   13MOL   C213 4077   3.482   4.442   4.192 -0.9247  0.4844  0.3576
   13MOL   C214 4078   3.500   4.594   4.173  0.1353  0.3949 -0.4280
   13MOL   C215 4079   3.485   4.437   4.656  0.1248 -0.0297 -0.7170
   13MOL   H216 4080   3.352   4.334   4.533  1.3953 -0.9342  0.9053
   13MOL   H217 4081   3.386   4.292   4.323  0.6457 -0.1627  0.4898
   13MOL   H218 4082   3.304   4.442   4.299 -1.0559 -3.0858  3.2068
   13MOL   H219 4083   3.430   4.394   4.110 -1.2898 -0.7134  1.2684
   13MOL   H220 4084   3.581   4.397   4.201 -0.1478  1.7038 -1.8232
   13MOL   H221 4085   3.446   4.611   4.080 -1.8658  0.2183  0.6780
   13MOL   H222 4086   3.603   4.630   4.166  0.0609  0.4992 -1.0757
   13MOL   H223 4087   3.465   4.643   4.264  0.8333  0.0110  0.0517
   13MOL   H224 4088   3.558   4.518   4.657 -0.1013  0.1700  0.6856
   13MOL   H225 4089   3.440   4.454   4.754 -1.4202  1.6285 -1.7008
   13MOL   C226 4090   3.569   4.304   4.666 -0.4718 -0.4859 -0.1865
   13MOL   O227 4091   3.674   4.336   4.756 -0.1400 -0.1787  0.7502
   13MOL   C228 4092   3.795   4.379   4.701 -0.5076 -0.7866  0.1899
   13MOL   C229 4093   3.871   4.455   4.812  0.4746  0.5338  1.0754
   13MOL   C230 4094   3.808   4.596   4.828  0.6312 -0.7645 -0.0537
   13MOL   C231 4095   3.485   4.186   4.722  0.1692 -0.8090 -0.2351
   13MOL   H232 4096   3.601   4.280   4.564  2.5199 -2.1820  1.0952
   13MOL   H233 4097   3.859   4.293   4.679  0.6529  0.8850 -3.3812
   13MOL   H234 4098   3.787   4.441   4.611 -1.6981  0.2340  0.9975
   13MOL   H235 4099   3.975   4.463   4.781 -0.5969  1.5598 -2.4327
   13MOL   H236 4100   3.873   4.418   4.915 -0.6434  0.0576  0.9251
   13MOL   H237 4101   3.872   4.669   4.877 -0.2256 -0.3937  0.5169
   13MOL   H238 4102   3.708   4.590   4.871  0.1506 -2.4458 -1.3022
   13MOL   H239 4103   3.800   4.640   4.728  1.6604  0.2125  0.2936
   13MOL   H240 4104   3.466   4.208   4.827 -2.4539 -0.6751 -0.6847
   13MOL   H241 4105   3.383   4.193   4.684  1.4583  0.2570 -3.7592
   13MOL   C242 4106   3.550   4.053   4.699 -0.0245 -1.2157 -0.1845
   13MOL   O243 4107   3.561   4.033   4.559 -0.3110 -0.0431 -0.1492
   13MOL   C244 4108   3.438   4.012   4.492  0.6470 -0.1886 -0.1783
   13MOL   C245 4109   3.473   3.961   4.347 -0.6730 -0.0633  0.1343
   13MOL   C246 4110   3.526   3.823   4.337 -0.3243  0.2908 -0.6505
   13MOL   C247 4111   3.679   4.027   4.778  0.4216  0.1495  0.0414
   13MOL   H248 4112   3.484   3.970   4.722 -0.1497 -0.7626  1.1726
   13MOL   H249 4113   3.387   3.931   4.545  0.1711  0.1066 -0.1777
   13MOL   H250 4114   3.377   4.103   4.495  2.5826  1.1358 -0.3501
   13MOL   H251 4115   3.536   4.035   4.297 -0.3442  0.6390  1.5705
   13MOL   H252 4116   3.377   3.973   4.298  0.0279  1.4006 -0.9287
   13MOL   H253 4117   3.459   3.755   4.390  0.8069 -1.3963 -1.3405
   13MOL   H254 4118   3.621   3.804   4.388 -0.6608 -0.3642 -0.2628
   13MOL   H255 4119   3.536   3.781   4.237  0.1508  1.4193 -1.0783
   13MOL   H256 4120   3.746   4.108   4.750  1.1970 -0.1383  1.0389
   13MOL   H257 4121   3.656   4.037   4.883 -1.2855 -3.8423  0.1631
   13MOL   C258 4122   3.738   3.885   4.746 -0.4059  0.0994  0.2401
   13MOL   O259 4123   3.871   3.863   4.785  0.3024  0.4276 -0.5350
   13MOL   C260 4124   3.977   3.943   4.741  0.0372 -0.2053 -0.0072
   13MOL   C261 4125   4.006   3.944   4.588  0.4020  0.2999 -0.6295
   13MOL   C262 4126   4.098   4.063   4.552 -0.3779  0.1327 -0.4936
   13MOL   C263 4127   3.648   3.776   4.802  0.1008  0.3000  0.1405
   13MOL   H264 4128   3.728   3.874   4.638  0.8725  1.2037 -0.0010
   13MOL   H265 4129   3.953   4.045   4.771  0.3547 -0.1311 -0.0066
   13MOL   H266 4130   4.070   3.931   4.796 -1.6355  1.2849  3.3354
   13MOL   H267 4131   3.911   3.948   4.535  0.0334 -1.9912 -0.2040
   13MOL   H268 4132   4.055   3.850   4.561 -0.2196 -0.8852  2.2258
   13MOL   H269 4133   4.157   4.102   4.634 -0.7318 -0.0753 -0.1424
   13MOL   H270 4134   4.031   4.142   4.519  0.1298 -0.0977 -2.1266
   13MOL   H271 4135   4.167   4.034   4.472  0.6123 -0.3763  0.5373
   13MOL   H272 4136   3.642   3.787   4.910  0.1788  1.6554  0.0128
   13MOL   H273 4137   3.547   3.783   4.761  0.5355 -0.2277 -1.0570
   13MOL   C274 4138   3.691   3.626   4.775  0.2765 -0.2222  0.0221
   13MOL   O275 4139   3.567   3.558   4.791 -0.3637  0.3017 -0.0575
   13MOL   C276 4140   3.533   3.519   4.916  0.1221 -0.1772 -0.3625
   13MOL   C277 4141   3.406   3.422   4.924 -0.8891 -0.2573  0.3140
   13MOL   C278 4142   3.420   3.303   4.831 -0.1257 -0.1182  0.6809
   13MOL   C279 4143   3.744   3.598   4.629 -0.2988 -0.0572 -0.3511
   13MOL   H280 4144   3.764   3.600   4.852 -0.1224  1.2646  0.9101
   13MOL   H281 4145   3.614   3.464   4.963 -1.2341 -1.4916  0.4931
   13MOL   H282 4146   3.518   3.606   4.980  0.1296 -1.1992  1.0523
   13MOL   H283 4147   3.315   3.474   4.893 -0.6914  0.5876  1.1431
   13MOL   H284 4148   3.388   3.384   5.024  3.2861 -0.2141  1.1482
   13MOL   H285 4149   3.342   3.307   4.756  1.5197  1.2101 -0.9924
   13MOL   H286 4150   3.427   3.206   4.881  1.4526 -0.9323 -1.0927
   13MOL   H287 4151   3.510   3.311   4.771  0.1550 -0.6573  1.0249
   13MOL   H288 4152   3.677   3.628   4.548 -0.0486  2.4101  0.3046
   13MOL   H289 4153   3.837   3.653   4.613  1.2278 -2.1088  1.3036
   13MOL   C290 4154   3.781   3.457   4.621 -0.9833  0.6986 -0.3342
   13MOL   O291 4155   3.807   3.436   4.484  1.0310  0.2808 -0.2351
   13MOL   C292 4156   3.688   3.403   4.410  0.2755  0.4408 -0.0861
   13MOL   C293 4157   3.744   3.358   4.276  1.2107 -0.2661  0.2575
   13MOL   C294 4158   3.815   3.472   4.189  0.1692 -0.0138  0.4983
   13MOL   C295 4159   3.908   3.409   4.696 -0.0151  0.5630 -0.3542
   13MOL   H296 4160   3.706   3.388   4.658  0.0856 -0.6579 -0.6539
   13MOL   H297 4161   3.650   3.320   4.469  0.4867  0.4027 -0.0048
   13MOL   H298 4162   3.615   3.484   4.412 -1.3934 -0.9754 -1.5421
   13MOL   H299 4163   3.665   3.315   4.214  1.5751  0.7892 -0.9792
   13MOL   H300 4164   3.815   3.276   4.289  1.3569 -0.4716 -1.6553
   13MOL   H301 4165   3.888   3.521   4.253 -0.9935 -1.2609  2.8855
   13MOL   H302 4166   3.740   3.542   4.152 -0.2966  0.6144  2.5456
   13MOL   H303 4167   3.854   3.431   4.096  1.0542 -0.1653  0.9349
   13MOL   H304 4168   3.985   3.471   4.650  0.8754 -1.3472 -1.4799
   13MOL   H305 4169   3.910   3.434   4.802  0.0151 -0.8388 -0.0091
   13MOL   C306 4170   3.942   3.261   4.673 -1.2808  0.1560  0.0648
   13MOL   O307 4171   4.083   3.243   4.695 -0.1034  0.1404 -0.6631
   13MOL   C308 4172   4.150   3.123   4.655  0.1283  0.0175 -0.1686
   13MOL   C309 4173   4.253   3.086   4.762  0.3111  0.0812  0.1390
   13MOL   C310 4174   4.176   3.062   4.896  0.1880  0.3761  0.4958
   13MOL   C311 4175   3.855   3.163   4.759 -0.0055  0.4855  0.0409
   13MOL   H312 4176   3.938   3.226   4.570 -1.6954  2.4518 -0.7467
   13MOL   H313 4177   4.077   3.047   4.628 -0.3255  0.4780 -0.2389
   13MOL   H314 4178   4.204   3.149   4.565  0.7160 -1.2330 -0.1844
   13MOL   H315 4179   4.333   3.160   4.772  0.8504 -0.6818  1.7092
   13MOL   H316 4180   4.306   2.994   4.736  0.6214  0.6947 -1.4356
   13MOL   H317 4181   4.128   3.152   4.933  1.8241  2.1931 -1.6159
   13MOL   H318 4182   4.242   3.021   4.973  0.1707 -1.9158 -0.6562
   13MOL   H319 4183   4.101   2.986   4.874 -0.3734  1.0159  0.1736
   13MOL   H320 4184   3.749   3.176   4.734 -0.1088  0.5232  0.4985
   13MOL   H321 4185   3.875   3.059   4.734 -1.0292  0.3051 -0.0819
   13MOL   H322 4186   3.868   3.183   4.865  0.5719 -3.5650  0.8313
   14MOL     C1 4187   2.918   2.051   5.068 -0.1310  0.0211 -0.3212
   14MOL     O2 4188   2.798   2.092   5.130  0.4734  0.8295  0.0691
   14MOL     C3 4189   2.813   2.116   5.269  0.8843 -0.0081 -0.0691
   14MOL     C4 4190   2.679   2.150   5.339  0.4055 -0.4489  0.5833
   14MOL     C5 4191   2.576   2.041   5.313  0.1271  0.2812  0.4534
   14MOL     C6 4192   2.895   2.043   4.911  0.5110  0.0251  0.1999
   14MOL     H7 4193   2.972   1.969   5.115  1.8875  0.5202 -1.7055
   14MOL     H8 4194   2.843   2.023   5.317 -0.0018  0.0219  0.5485
   14MOL     H9 4195   2.891   2.190   5.287  1.5715 -0.5886 -0.6504
   14MOL    H10 4196   2.642   2.246   5.303  2.9644  1.1590  2.1135
   14MOL    H11 4197   2.691   2.170   5.445 -2.3922  0.3000  0.8054
   14MOL    H12 4198   2.624   1.951   5.350 -0.2187  0.1502  0.5893
   14MOL    H13 4199   2.551   2.026   5.208 -0.3666 -1.4332  0.7980
   14MOL    H14 4200   2.487   2.050   5.376 -0.7268  0.7126 -0.7820
   14MOL    H15 4201   2.820   1.966   4.890  0.5963  0.3104 -1.1438
   14MOL    H16 4202   2.858   2.135   4.866  1.3377  0.0481 -0.4336
   14MOL    H17 4203   2.987   2.135   5.062  1.1387 -0.6099  3.9137
   14MOL    C18 4204   3.014   2.005   4.825 -0.5150 -0.0241  0.2711
   14MOL    O19 4205   2.973   1.996   4.687 -0.1721 -0.9635 -0.0883
   14MOL    C20 4206   2.925   1.867   4.650  0.6931 -0.6273 -0.4370
   14MOL    C21 4207   2.855   1.877   4.515 -0.0266 -0.0842  0.6513
   14MOL    C22 4208   2.946   1.916   4.403 -0.6604  0.0961 -0.3028
   14MOL    C23 4209   3.129   2.110   4.828  0.7309 -0.5806  0.5761
   14MOL    H24 4210   3.053   1.908   4.854 -3.3138 -0.8907  1.3310
   14MOL    H25 4211   3.011   1.800   4.647 -0.6537 -2.3842 -0.1375
   14MOL    H26 4212   2.860   1.831   4.729  1.6165 -0.2461  0.5126
   14MOL    H27 4213   2.777   1.950   4.537  0.6376  0.7873  0.1210
   14MOL    H28 4214   2.812   1.778   4.500  0.0103 -0.0304  0.1762
   14MOL    H29 4215   2.902   1.870   4.314 -1.0104 -0.7974  0.3251
   14MOL    H30 4216   3.045   1.878   4.428 -0.1439  2.1975  0.9411
   14MOL    H31 4217   2.944   2.025   4.406  1.4761  0.1709 -1.2537
   14MOL    H32 4218   3.083   2.204   4.796  1.4108 -0.5311 -0.2757
   14MOL    H33 4219   3.165   2.116   4.931  2.6357  0.2908 -0.1213
   14MOL    C34 4220   3.243   2.066   4.731  0.0303 -0.2146  0.6958
   14MOL    O35 4221   3.337   2.172   4.729  0.3871  0.5974 -0.4294
   14MOL    C36 4222   3.304   2.285   4.649 -0.0123 -0.5062 -0.6406
   14MOL    C37 4223   3.375   2.412   4.694  0.0379  0.0555 -0.0916
   14MOL    C38 4224   3.377   2.531   4.594  0.2678  0.2805 -0.0028
   14MOL    C39 4225   3.323   1.934   4.770  0.2785  0.0712  0.1341
   14MOL    H40 4226   3.196   2.054   4.633 -0.6788 -0.2914  1.0375
   14MOL    H41 4227   3.314   2.262   4.543 -0.2341  1.1165 -1.0257
   14MOL    H42 4228   3.196   2.303   4.655 -0.2287 -0.9703 -2.7007
   14MOL    H43 4229   3.476   2.393   4.731  0.5201 -1.1182 -1.9402
   14MOL    H44 4230   3.333   2.451   4.787  0.5375 -1.2320  0.6820
   14MOL    H45 4231   3.413   2.622   4.642 -3.1580  0.9271  1.5043
   14MOL    H46 4232   3.277   2.555   4.558  0.1106 -0.5086 -0.1176
   14MOL    H47 4233   3.438   2.500   4.509  0.2425  0.4374 -0.0773
   14MOL    H48 4234   3.370   1.946   4.868  0.0158 -3.0543  0.6874
   14MOL    H49 4235   3.257   1.848   4.776 -0.2205  0.5357  1.5475
   14MOL    C50 4236   3.444   1.902   4.679  0.0558 -0.4368  0.6981
   14MOL    O51 4237   3.507   1.782   4.723 -0.2168  0.0810 -0.1438
   14MOL    C52 4238   3.612   1.816   4.808 -0.0735 -0.3350  0.0709
   14MOL    C53 4239   3.677   1.690   4.851  0.2403 -0.4457 -0.9612
   14MOL    C54 4240   3.794   1.711   4.940 -0.7668 -0.1650  0.1247
   14MOL    C55 4241   3.402   1.870   4.535 -0.5864 -0.4617 -0.0307
   14MOL    H56 4242   3.512   1.987   4.681  1.0626 -1.2015 -0.4865
   14MOL    H57 4243   3.680   1.885   4.759 -0.6796  0.6109  0.5366
   14MOL    H58 4244   3.586   1.876   4.895 -0.5438  0.1859 -0.4264
   14MOL    H59 4245   3.713   1.639   4.761 -1.6638 -2.0909 -0.8293
   14MOL    H60 4246   3.602   1.627   4.898  0.2706  0.3165  0.1057
   14MOL    H61 4247   3.863   1.630   4.961 -0.3981  0.4408  1.3422
   14MOL    H62 4248   3.756   1.733   5.040 -1.1174  0.8568 -0.2181
   14MOL    H63 4249   3.849   1.803   4.916  0.4440 -0.9626 -0.2259
   14MOL    H64 4250   3.456   1.783   4.497  0.7503 -0.8438  2.6669
   14MOL    H65 4251   3.298   1.837   4.542 -0.1247 -2.0800 -0.5381
   14MOL    C66 4252   3.410   1.992   4.437  0.2103 -0.4250  0.3865
   14MOL    O67 4253   3.552   2.023   4.409 -0.0537  0.2372 -0.0742
   14MOL    C68 4254   3.583   2.163   4.432  0.4357  0.1128 -0.1413
   14MOL    C69 4255   3.732   2.170   4.413  0.0341 -0.4714 -0.3335
   14MOL    C70 4256   3.754   2.140   4.260 -0.1517  0.1350  0.1284
   14MOL    C71 4257   3.343   1.948   4.305 -1.1194  0.0404 -0.1074
   14MOL    H72 4258   3.362   2.080   4.481  1.5063  0.7193 -0.4349
   14MOL    H73 4259   3.545   2.246   4.373  1.0166  0.1199 -0.4994
   14MOL    H74 4260   3.557   2.201   4.531  0.8232  0.2869 -0.1067
   14MOL    H75 4261   3.794   2.103   4.472 -0.8985 -0.2978  0.8710
   14MOL    H76 4262   3.761   2.274   4.426 -1.4063  0.0428 -1.1086
   14MOL    H77 4263   3.695   2.059   4.218  0.4572 -2.1193  3.4055
   14MOL    H78 4264   3.860   2.116   4.251 -0.3842 -0.7955 -0.2585
   14MOL    H79 4265   3.737   2.226   4.196 -0.6647 -0.6560 -0.8170
   14MOL    H80 4266   3.402   1.869   4.259  1.0680  1.7504 -0.3251
   14MOL    H81 4267   3.240   1.917   4.320 -0.7222 -2.2395 -1.8313
   14MOL    C82 4268   3.329   2.059   4.197  0.3899 -0.5373 -0.4624
   14MOL    O83 4269   3.312   1.996   4.069  0.2386  0.1702  0.1611
   14MOL    C84 4270   3.421   2.030   3.987 -0.2406  0.4354  0.1737
   14MOL    C85 4271   3.385   2.000   3.843  0.1549 -0.1660 -0.1761
   14MOL    C86 4272   3.263   2.083   3.793  0.3228 -0.1837 -0.1205
   14MOL    C87 4273   3.206   2.151   4.227  0.0609  0.3379  0.0578
   14MOL    H88 4274   3.420   2.120   4.199 -0.4751  0.7725 -0.5226
   14MOL    H89 4275   3.448   2.134   4.007 -1.5916  0.5500  1.4995
   14MOL    H90 4276   3.508   1.973   4.020 -1.9023 -1.5758  1.1368
   14MOL    H91 4277   3.354   1.896   3.835 -0.5476 -0.1492  2.1331
   14MOL    H92 4278   3.465   2.003   3.769 -2.5904  0.6704 -3.2720
   14MOL    H93 4279   3.178   2.080   3.861 -0.0656 -0.8675 -0.6398
   14MOL    H94 4280   3.238   2.024   3.705  1.6925 -2.1039  0.7376
   14MOL    H95 4281   3.295   2.179   3.751  1.1841 -0.8512 -1.0225
   14MOL    H96 4282   3.117   2.090   4.213  1.2261 -1.2259 -0.6658
   14MOL    H97 4283   3.218   2.171   4.333  1.7490 -0.3933  0.0311
   14MOL    C98 4284   3.192   2.269   4.127 -0.4486 -0.4968  0.7224
   14MOL    O99 4285   3.066   2.342   4.149  0.2546 -0.2073  0.4030
   14MOL   C100 4286   2.948   2.285   4.099  0.3961  0.6148 -0.1013
   14MOL   C101 4287   2.864   2.406   4.051 -0.5433  0.4868 -0.5330
   14MOL   C102 4288   2.798   2.498   4.157 -0.5762  0.3227  0.0447
   14MOL   C103 4289   3.298   2.384   4.158 -0.0197 -0.4600 -0.3177
   14MOL   H104 4290   3.205   2.240   4.023  1.0615 -1.1175  1.0818
   14MOL   H105 4291   2.966   2.218   4.015  1.2514  0.7284 -0.0154
   14MOL   H106 4292   2.884   2.233   4.171  1.2009 -0.7193 -0.3254
   14MOL   H107 4293   2.789   2.358   3.988 -2.2454 -0.5534  2.1559
   14MOL   H108 4294   2.917   2.472   3.982  1.4167 -0.3146  0.1832
   14MOL   H109 4295   2.861   2.507   4.246  0.7102 -0.6365 -0.7533
   14MOL   H110 4296   2.711   2.442   4.191 -0.5568  1.2745  1.7104
   14MOL   H111 4297   2.781   2.595   4.111 -1.5816 -0.0491 -0.3638
   14MOL   H112 4298   3.278   2.424   4.257  0.0833  1.2399 -0.9714
   14MOL   H113 4299   3.401   2.350   4.154 -0.7861 -3.1685  1.5140
   14MOL   C114 4300   3.281   2.508   4.068  0.5759 -0.1333 -0.2494
   14MOL   O115 4301   3.383   2.592   4.114  0.0433  0.7245  0.0716
   14MOL   C116 4302   3.359   2.671   4.233  0.7406 -0.2964  0.5049
   14MOL   C117 4303   3.361   2.813   4.180  0.5274 -0.4350  0.4365
   14MOL   C118 4304   3.498   2.852   4.114 -0.5023  0.1215 -0.5263
   14MOL   C119 4305   3.310   2.486   3.921 -0.3733  0.2725 -0.1831
   14MOL   H120 4306   3.180   2.547   4.084  0.3856 -0.9336  0.5754
   14MOL   H121 4307   3.267   2.637   4.279  1.3429 -2.0247  0.4661
   14MOL   H122 4308   3.440   2.665   4.306  1.0168 -0.1493  0.2137
   14MOL   H123 4309   3.335   2.876   4.265 -0.7913 -2.6400  1.7043
   14MOL   H124 4310   3.280   2.824   4.109 -0.1559 -0.1711  1.2517
   14MOL   H125 4311   3.530   2.763   4.061  0.7488  1.0883 -1.4287
   14MOL   H126 4312   3.574   2.866   4.191 -0.0399  2.4462 -1.3602
   14MOL   H127 4313   3.488   2.948   4.063  1.5835  1.0570  0.7727
   14MOL   H128 4314   3.405   2.434   3.916  0.3348  1.5447 -0.2614
   14MOL   H129 4315   3.232   2.422   3.881  0.7442  0.4748 -2.7657
   14MOL   C130 4316   3.311   2.605   3.826  0.1302 -0.1145  0.5508
   14MOL   O131 4317   3.317   2.556   3.691 -0.1325 -0.4396  0.8685
   14MOL   C132 4318   3.457   2.538   3.648  0.2321 -0.5824  0.0126
   14MOL   C133 4319   3.457   2.474   3.504 -0.3325  0.1954  0.1270
   14MOL   C134 4320   3.378   2.338   3.506  0.1032 -0.1660 -0.1037
   14MOL   C135 4321   3.185   2.686   3.830 -0.3756  0.0139  0.1546
   14MOL   H136 4322   3.397   2.666   3.855 -1.4686  0.5452  4.1722
   14MOL   H137 4323   3.522   2.625   3.649 -0.4780 -0.0395  2.1938
   14MOL   H138 4324   3.486   2.460   3.719 -0.0047 -1.2587 -0.6227
   14MOL   H139 4325   3.560   2.457   3.474 -0.0904 -0.0691  1.0732
   14MOL   H140 4326   3.402   2.544   3.441  0.2623  0.4903 -0.0662
   14MOL   H141 4327   3.446   2.255   3.527  1.0723  0.9927  1.4341
   14MOL   H142 4328   3.330   2.313   3.411  0.6234  2.0824 -0.9765
   14MOL   H143 4329   3.294   2.346   3.574  0.6348  2.1927  0.3217
   14MOL   H144 4330   3.102   2.622   3.802  0.8151 -2.5692  2.2439
   14MOL   H145 4331   3.158   2.723   3.929 -3.0443  2.6232 -1.4562
   14MOL   C146 4332   3.183   2.833   3.766  0.4635 -0.5910  0.2686
   14MOL   O147 4333   3.059   2.890   3.788  0.0596 -0.2823  0.1180
   14MOL   C148 4334   2.975   2.857   3.680  0.2735  1.0484  1.3309
   14MOL   C149 4335   2.863   2.962   3.678  0.9013 -0.0006 -0.3968
   14MOL   C150 4336   2.777   2.960   3.806  0.5235 -0.3578  0.2146
   14MOL   C151 4337   3.274   2.939   3.835 -0.3134 -0.1959 -0.0052
   14MOL   H152 4338   3.221   2.833   3.664 -0.3966  0.7466 -0.0749
   14MOL   H153 4339   3.017   2.875   3.581  1.2429 -0.2848  1.4888
   14MOL   H154 4340   2.942   2.753   3.675 -1.2909  1.5691  0.2907
   14MOL   H155 4341   2.792   2.931   3.601 -0.8179  0.9617  0.7853
   14MOL   H156 4342   2.902   3.060   3.651 -0.1213  0.5067 -0.0393
   14MOL   H157 4343   2.735   2.860   3.822  0.0349 -0.7832 -3.3484
   14MOL   H158 4344   2.699   3.036   3.799  1.3356  0.4706  0.0716
   14MOL   H159 4345   2.836   2.981   3.895  1.7510 -1.0175 -0.4256
   14MOL   H160 4346   3.251   2.948   3.941  0.7617 -2.3661  0.4410
   14MOL   H161 4347   3.373   2.893   3.836  0.6011  1.7572  1.1303
   14MOL   C162 4348   3.287   3.081   3.760  0.4151 -0.1780 -0.0129
   14MOL   O163 4349   3.362   3.169   3.843 -0.4618  0.2028 -0.6103
   14MOL   C164 4350   3.281   3.231   3.946 -0.2726  0.1288 -0.2059
   14MOL   C165 4351   3.374   3.343   3.992 -0.4178 -0.2496 -0.4565
   14MOL   C166 4352   3.333   3.414   4.124  0.5278  0.6576  0.1050
   14MOL   C167 4353   3.337   3.079   3.612 -0.4489  0.3422 -0.6322
   14MOL   H168 4354   3.185   3.110   3.738  1.3562  4.1274  0.8881
   14MOL   H169 4355   3.184   3.274   3.920 -0.0617  1.2806  0.8404
   14MOL   H170 4356   3.261   3.157   4.024  1.1872 -1.1389 -1.0150
   14MOL   H171 4357   3.374   3.429   3.924 -0.0722  1.3710  1.5340
   14MOL   H172 4358   3.470   3.292   3.995 -0.6880 -1.1455 -4.3135
   14MOL   H173 4359   3.238   3.468   4.118  0.6558  0.8700 -0.0219
   14MOL   H174 4360   3.402   3.494   4.151  1.5886 -0.7283  1.5721
   14MOL   H175 4361   3.330   3.353   4.214  0.2227  3.0109  1.7487
   14MOL   H176 4362   3.441   3.105   3.628 -0.1785 -1.7356  1.4235
   14MOL   H177 4363   3.344   2.978   3.570  0.1713  0.1106  0.0096
   14MOL   C178 4364   3.269   3.178   3.515  0.8098  0.4989 -0.5869
   14MOL   O179 4365   3.270   3.303   3.586  0.1686 -0.0842  0.1632
   14MOL   C180 4366   3.177   3.410   3.548 -0.5648 -0.0474 -0.4931
   14MOL   C181 4367   3.099   3.458   3.674 -0.2956 -0.4483  0.0403
   14MOL   C182 4368   3.009   3.578   3.629 -0.3960 -0.6660 -0.4758
   14MOL   C183 4369   3.332   3.194   3.378  0.4498  0.2977 -0.1478
   14MOL   H184 4370   3.168   3.140   3.501  2.0774 -1.6106 -4.5992
   14MOL   H185 4371   3.238   3.493   3.514 -0.1142 -0.7903 -1.5268
   14MOL   H186 4372   3.120   3.389   3.458  0.0762  0.7238 -1.0779
   14MOL   H187 4373   3.164   3.473   3.760  0.9833  2.0193 -1.3172
   14MOL   H188 4374   3.034   3.375   3.703 -0.4191 -0.7100 -0.9713
   14MOL   H189 4375   3.061   3.670   3.604 -2.3830  1.1066  1.6143
   14MOL   H190 4376   2.945   3.603   3.714  1.0633  1.0733  0.1413
   14MOL   H191 4377   2.937   3.557   3.550  0.0701  2.3126 -1.7608
   14MOL   H192 4378   3.316   3.295   3.338  0.6327  0.7066  0.7990
   14MOL   H193 4379   3.440   3.189   3.396 -0.0293  0.6218  3.1458
   14MOL   C194 4380   3.281   3.099   3.275  0.5258 -0.2180 -0.4373
   14MOL   O195 4381   3.139   3.122   3.256 -0.4338  0.7019 -0.1072
   14MOL   C196 4382   3.060   3.007   3.220  0.3690 -0.0428 -0.0541
   14MOL   C197 4383   2.913   3.049   3.220 -0.4534 -0.0075  0.4857
   14MOL   C198 4384   2.897   3.161   3.126 -0.0980  0.1179 -0.3828
   14MOL   C199 4385   3.354   3.126   3.138 -0.5591  0.4654 -0.4934
   14MOL   H200 4386   3.302   2.998   3.309 -0.0119 -0.4516 -0.8029
   14MOL   H201 4387   3.104   2.958   3.133  1.9105 -0.1216  0.7536
   14MOL   H202 4388   3.065   2.941   3.307  1.7667  1.4989  1.0514
   14MOL   H203 4389   2.874   3.088   3.314 -1.8254 -0.7070  0.2154
   14MOL   H204 4390   2.841   2.971   3.198  2.0334 -3.5632  4.1973
   14MOL   H205 4391   2.960   3.243   3.160  0.5823  0.2653 -1.9719
   14MOL   H206 4392   2.791   3.187   3.118 -0.4742 -1.2563 -0.0382
   14MOL   H207 4393   2.934   3.144   3.025 -0.7097  0.4778 -0.6741
   14MOL   H208 4394   3.307   3.062   3.062 -0.3559  0.0026 -0.2350
   14MOL   H209 4395   3.328   3.230   3.119 -1.9338  0.4661  1.2933
   14MOL   C210 4396   3.501   3.086   3.135  0.2186  0.0049  0.0224
   14MOL   O211 4397   3.500   2.942   3.147 -0.8351 -0.0267  0.8356
   14MOL   C212 4398   3.591   2.899   3.247 -0.3197 -0.4638 -0.2046
   14MOL   C213 4399   3.596   2.749   3.258 -0.2837  0.1203  0.3260
   14MOL   C214 4400   3.646   2.667   3.143 -0.4267 -0.1437  0.3931
   14MOL   C215 4401   3.578   3.112   3.006 -0.2058  0.0706 -0.1390
   14MOL   H216 4402   3.549   3.144   3.214 -2.8899  0.6715  1.5160
   14MOL   H217 4403   3.687   2.943   3.220 -0.9595  0.7495 -0.5097
   14MOL   H218 4404   3.566   2.934   3.347 -0.9262 -1.2341 -0.0891
   14MOL   H219 4405   3.498   2.717   3.292 -0.6103 -0.2213 -0.9024
   14MOL   H220 4406   3.660   2.719   3.340  0.4952 -0.8352 -0.6125
   14MOL   H221 4407   3.681   2.567   3.169 -0.8123 -0.0610  1.2284
   14MOL   H222 4408   3.736   2.715   3.103  0.1912 -0.0247  1.9137
   14MOL   H223 4409   3.571   2.657   3.064  0.6922  0.1412 -0.7241
   14MOL   H224 4410   3.675   3.063   3.019 -0.1208 -0.1819 -1.6543
   14MOL   H225 4411   3.546   3.058   2.917 -1.1711  1.2465 -0.5161
   14MOL   C226 4412   3.600   3.254   2.983 -0.1023  0.3400  0.5608
   14MOL   O227 4413   3.687   3.300   3.078 -0.2665  0.3899  0.4369
   14MOL   C228 4414   3.657   3.430   3.124 -0.7904  1.2426  0.7491
   14MOL   C229 4415   3.746   3.462   3.233 -0.1226 -1.1266 -0.2538
   14MOL   C230 4416   3.736   3.377   3.358  0.5888  0.0218  0.6926
   14MOL   C231 4417   3.643   3.295   2.839  0.0104 -0.1659 -0.6888
   14MOL   H232 4418   3.503   3.299   3.000 -0.8212 -1.3912  1.2148
   14MOL   H233 4419   3.671   3.510   3.051  0.2564  0.1622 -0.2544
   14MOL   H234 4420   3.554   3.427   3.159 -0.1591  1.0343  2.6262
   14MOL   H235 4421   3.756   3.567   3.260 -1.3023 -1.3222  1.0126
   14MOL   H236 4422   3.850   3.447   3.204 -0.1218 -0.0366 -0.7994
   14MOL   H237 4423   3.717   3.275   3.324 -1.3441  0.9380 -1.0369
   14MOL   H238 4424   3.661   3.421   3.423 -0.3407  0.3774 -0.6185
   14MOL   H239 4425   3.830   3.371   3.413  1.3176  3.9369  0.0167
   14MOL   H240 4426   3.561   3.282   2.769 -0.3845  0.5428 -0.3655
   14MOL   H241 4427   3.649   3.404   2.839  1.0269 -0.2170 -0.2964
   14MOL   C242 4428   3.765   3.222   2.775 -0.1847  0.1811 -0.0313
   14MOL   O243 4429   3.751   3.229   2.631  0.1278  0.7781  0.5519
   14MOL   C244 4430   3.809   3.131   2.548 -0.2799  0.5550  0.0747
   14MOL   C245 4431   3.788   3.171   2.406  0.0165 -0.6217  0.1032
   14MOL   C246 4432   3.875   3.076   2.315 -0.4777  0.1618  0.0663
   14MOL   C247 4433   3.906   3.271   2.816 -0.2508 -0.5482  0.7309
   14MOL   H248 4434   3.765   3.116   2.801  3.9447  0.0885 -0.0709
   14MOL   H249 4435   3.913   3.110   2.571 -1.0482 -2.2572  1.2544
   14MOL   H250 4436   3.764   3.032   2.565  2.4931 -0.8614 -0.6161
   14MOL   H251 4437   3.811   3.275   2.384 -1.7410  0.3602  2.7092
   14MOL   H252 4438   3.683   3.169   2.378  0.0623 -2.4240 -0.0328
   14MOL   H253 4439   3.823   3.041   2.225  1.5079  0.2569 -1.1466
   14MOL   H254 4440   3.916   2.989   2.366 -0.2515  1.0664  1.4515
   14MOL   H255 4441   3.965   3.132   2.289 -0.9256  1.6630  1.7096
   14MOL   H256 4442   3.971   3.255   2.730  1.0344  0.8173  1.4291
   14MOL   H257 4443   3.891   3.377   2.837  0.7805 -0.8901  3.3541
   14MOL   C258 4444   3.976   3.197   2.932  0.0632 -0.2373 -0.8211
   14MOL   O259 4445   3.967   3.055   2.936  0.2612 -0.4911  0.5802
   14MOL   C260 4446   3.999   3.000   3.058 -0.6093  0.2189 -0.8010
   14MOL   C261 4447   4.003   2.849   3.040  0.4408 -0.2930 -0.7474
   14MOL   C262 4448   4.006   2.790   3.178  0.2975  0.1236  0.1585
   14MOL   C263 4449   4.123   3.260   2.952 -0.6981  0.2922  0.2526
   14MOL   H264 4450   3.914   3.209   3.021 -0.9411 -5.0801 -0.7463
   14MOL   H265 4451   4.100   3.030   3.085 -0.9912 -0.6774  1.7939
   14MOL   H266 4452   3.929   3.031   3.135  0.6942 -1.4292  1.0888
   14MOL   H267 4453   4.084   2.823   2.973  0.9293  1.1896 -0.7475
   14MOL   H268 4454   3.913   2.815   2.988  0.6624 -1.9692 -0.0848
   14MOL   H269 4455   4.083   2.843   3.234 -1.1959  1.6644  0.7819
   14MOL   H270 4456   4.021   2.682   3.180  0.1317  0.0818 -0.7983
   14MOL   H271 4457   3.911   2.800   3.230  0.5263 -1.0540  0.8257
   14MOL   H272 4458   4.205   3.195   2.981  1.7127  2.1891 -2.0223
   14MOL   H273 4459   4.154   3.305   2.857 -0.3900  0.2377  0.3275
   14MOL   C274 4460   4.137   3.373   3.055 -0.0733 -0.3915 -0.6476
   14MOL   O275 4461   4.197   3.311   3.170  0.3167 -0.1848  0.0409
   14MOL   C276 4462   4.166   3.383   3.290  0.7740 -0.2331 -0.2151
   14MOL   C277 4463   4.200   3.278   3.405  0.2713 -0.3939 -0.9298
   14MOL   C278 4464   4.115   3.157   3.401 -0.1055  0.1838  0.3348
   14MOL   C279 4465   4.238   3.483   3.013 -0.3015 -0.7060 -0.2324
   14MOL   H280 4466   4.048   3.433   3.074 -0.7469 -2.5847  3.7780
   14MOL   H281 4467   4.236   3.466   3.295  1.2683 -0.6775  0.3629
   14MOL   H282 4468   4.066   3.425   3.294  1.3597  1.5001 -2.3858
   14MOL   H283 4469   4.172   3.338   3.491 -1.0719 -2.2308 -0.0429
   14MOL   H284 4470   4.307   3.261   3.406  0.5577  1.2793 -1.3691
   14MOL   H285 4471   4.014   3.190   3.424 -2.2177 -3.6141 -2.8513
   14MOL   H286 4472   4.145   3.092   3.484 -0.0054  1.1671  1.0792
   14MOL   H287 4473   4.111   3.091   3.314 -0.3830 -0.6277  0.9543
   14MOL   H288 4474   4.309   3.524   3.085  1.3043  0.9662 -2.6642
   14MOL   H289 4475   4.319   3.436   2.957 -0.2493  0.6633 -1.3392
   14MOL   C290 4476   4.172   3.598   2.930  0.0427  0.3705  0.3937
   14MOL   O291 4477   4.088   3.672   3.019 -0.2850  0.0399  0.5179
   14MOL   C292 4478   3.955   3.690   2.966 -0.1148  0.7179  0.1942
   14MOL   C293 4479   3.886   3.795   3.049 -0.8586 -0.0415  0.0160
   14MOL   C294 4480   3.979   3.915   3.081  0.0332 -0.2112  0.6053
   14MOL   C295 4481   4.265   3.696   2.855 -0.2912  0.1824 -0.3329
   14MOL   H296 4482   4.111   3.552   2.852  1.0769  2.0200 -1.4189
   14MOL   H297 4483   3.955   3.722   2.862 -1.0293  1.3145  0.3695
   14MOL   H298 4484   3.903   3.594   2.962  1.6578 -0.4329  3.4372
   14MOL   H299 4485   3.859   3.753   3.145 -1.9956  0.9288  0.1376
   14MOL   H300 4486   3.800   3.828   2.990  0.8132  2.2282 -1.2896
   14MOL   H301 4487   4.048   3.891   3.162  0.7080 -1.7184 -0.3924
   14MOL   H302 4488   3.935   4.005   3.124 -0.4350 -0.6433  1.0500
   14MOL   H303 4489   4.051   3.943   3.004  0.2259 -1.5971  0.2612
   14MOL   H304 4490   4.251   3.795   2.898 -0.7953 -0.2671  0.5420
   14MOL   H305 4491   4.370   3.678   2.880 -0.9392 -0.7344  1.8328
   14MOL   C306 4492   4.244   3.715   2.705  0.5731  0.1472 -0.0938
   14MOL   O307 4493   4.119   3.767   2.670  0.1773 -0.2538 -0.0347
   14MOL   C308 4494   4.096   3.776   2.529 -0.5634  0.4261  0.8896
   14MOL   C309 4495   3.969   3.699   2.498  0.2050 -0.0545 -0.4544
   14MOL   C310 4496   3.957   3.564   2.570 -0.2279  0.5586  0.0137
   14MOL   C311 4497   4.365   3.801   2.656  0.0838  0.2101  0.5510
   14MOL   H312 4498   4.251   3.621   2.649  2.3827 -0.6586  1.4652
   14MOL   H313 4499   4.108   3.880   2.501 -1.0006 -0.1080 -1.4254
   14MOL   H314 4500   4.174   3.721   2.476 -2.0449  0.1616 -1.0959
   14MOL   H315 4501   3.953   3.691   2.391  1.1082  0.6268 -0.6405
   14MOL   H316 4502   3.889   3.769   2.523  1.4261  1.5968 -1.1109
   14MOL   H317 4503   4.042   3.496   2.558 -0.3234  0.5843 -0.8592
   14MOL   H318 4504   3.864   3.514   2.543  1.4628 -2.0659 -1.1582
   14MOL   H319 4505   3.956   3.589   2.676  1.7590  0.8056 -0.0031
   14MOL   H320 4506   4.454   3.740   2.671 -1.9233 -3.0987 -0.4557
   14MOL   H321 4507   4.361   3.840   2.555 -0.9977 -0.2037  0.4312
   14MOL   H322 4508   4.373   3.887   2.723  3.0177  0.1822  0.2995
   15MOL     C1 4509   3.295   7.315   5.047  0.4153 -0.3691 -0.0614
   15MOL     O2 4510   3.346   7.379   5.166  0.0498 -0.0522 -0.2873
   15MOL     C3 4511   3.335   7.299   5.280  0.3498  0.3717  0.9789
   15MOL     C4 4512   3.404   7.367   5.398 -0.3493 -0.5556  0.8940
   15MOL     C5 4513   3.552   7.334   5.405 -0.4558  0.8324 -0.9388
   15MOL     C6 4514   3.296   7.423   4.946  0.3055 -0.3748  0.3216
   15MOL     H7 4515   3.198   7.268   5.060 -0.5616  1.4393 -0.6334
   15MOL     H8 4516   3.231   7.277   5.307  0.2013  0.0261  0.1596
   15MOL     H9 4517   3.366   7.196   5.262  0.9097  0.7615 -0.3539
   15MOL    H10 4518   3.361   7.340   5.495  2.0519  0.1349  2.1756
   15MOL    H11 4519   3.402   7.476   5.401  2.1844 -0.4833  1.0216
   15MOL    H12 4520   3.614   7.422   5.386  0.3808 -0.1111 -2.7497
   15MOL    H13 4521   3.585   7.262   5.330 -2.0665  0.5200 -1.3601
   15MOL    H14 4522   3.573   7.296   5.505 -2.3249 -0.2529 -0.9350
   15MOL    H15 4523   3.222   7.502   4.960 -0.8972 -0.9881 -2.2495
   15MOL    H16 4524   3.389   7.479   4.959 -0.6997  1.4081  0.0686
   15MOL    H17 4525   3.369   7.240   5.018 -1.0524 -1.0616 -2.1283
   15MOL    C18 4526   3.277   7.381   4.800  0.6627  0.0281 -0.0774
   15MOL    O19 4527   3.141   7.371   4.757  0.2499  0.3146 -0.2261
   15MOL    C20 4528   3.124   7.291   4.643 -0.3038 -0.4754  0.3262
   15MOL    C21 4529   3.052   7.369   4.532 -0.1924 -0.1265 -0.7483
   15MOL    C22 4530   2.910   7.436   4.569  0.2213  0.2190 -0.1769
   15MOL    C23 4531   3.362   7.481   4.711 -0.0220 -0.0609  0.2716
   15MOL    H24 4532   3.319   7.281   4.785 -0.0287 -0.3684  0.5522
   15MOL    H25 4533   3.218   7.250   4.604 -0.5066 -1.4611  0.8510
   15MOL    H26 4534   3.066   7.207   4.681  0.6345 -1.9211 -1.3518
   15MOL    H27 4535   3.018   7.292   4.462  0.9510 -0.4928 -0.9023
   15MOL    H28 4536   3.119   7.435   4.478  0.5612 -0.4731 -0.2503
   15MOL    H29 4537   2.871   7.498   4.488  0.1092  0.7160  0.2512
   15MOL    H30 4538   2.925   7.508   4.649 -0.2745  0.0369  0.0818
   15MOL    H31 4539   2.823   7.376   4.596  1.6575 -0.8952  2.0295
   15MOL    H32 4540   3.313   7.527   4.625 -2.0971  1.5557  2.2613
   15MOL    H33 4541   3.383   7.570   4.769  0.2300  0.6657 -0.9190
   15MOL    C34 4542   3.495   7.416   4.661 -0.3253 -0.5461 -0.5106
   15MOL    O35 4543   3.461   7.321   4.556  0.7126 -0.0496 -0.2958
   15MOL    C36 4544   3.550   7.217   4.529  0.5333  0.1345  0.4225
   15MOL    C37 4545   3.511   7.150   4.394  0.2643 -0.7170  0.4958
   15MOL    C38 4546   3.592   7.033   4.352 -0.2899  0.2936 -0.3093
   15MOL    C39 4547   3.599   7.520   4.617  0.1537  0.3126 -0.0573
   15MOL    H40 4548   3.536   7.359   4.745  0.2022 -0.2328 -0.5554
   15MOL    H41 4549   3.646   7.263   4.507  1.0624 -0.4578  1.4940
   15MOL    H42 4550   3.563   7.147   4.612  0.5758  0.0500  0.3438
   15MOL    H43 4551   3.510   7.220   4.310 -0.8692 -4.0140 -2.3731
   15MOL    H44 4552   3.407   7.121   4.403  0.6910 -1.5862  3.0151
   15MOL    H45 4553   3.697   7.052   4.373  0.0887 -2.3300  0.4064
   15MOL    H46 4554   3.578   6.992   4.252  1.2473  0.9005 -0.7916
   15MOL    H47 4555   3.564   6.941   4.404 -2.7017  0.9111 -0.4360
   15MOL    H48 4556   3.689   7.471   4.579 -0.4708 -0.0577 -1.0856
   15MOL    H49 4557   3.556   7.573   4.532 -0.4000  0.8715  0.5594
   15MOL    C50 4558   3.646   7.610   4.735 -0.2667  0.2927  0.6323
   15MOL    O51 4559   3.698   7.525   4.838  0.5368  0.2858  0.3498
   15MOL    C52 4560   3.700   7.586   4.969 -0.2646 -0.5640  0.6460
   15MOL    C53 4561   3.739   7.479   5.079  0.1337 -0.6117  0.3769
   15MOL    C54 4562   3.667   7.346   5.063 -0.6845 -0.4710 -0.1041
   15MOL    C55 4563   3.752   7.714   4.703 -0.2587 -0.7537 -0.3525
   15MOL    H56 4564   3.564   7.671   4.772 -1.5430 -0.0792 -1.5257
   15MOL    H57 4565   3.768   7.672   4.973 -0.5962 -0.2162 -0.6910
   15MOL    H58 4566   3.595   7.612   4.983  0.0719  1.6040 -0.6032
   15MOL    H59 4567   3.714   7.512   5.180 -1.0642 -1.6841  0.4462
   15MOL    H60 4568   3.846   7.458   5.075  0.3166  0.3356  0.1027
   15MOL    H61 4569   3.561   7.346   5.088 -0.0954  0.7623  2.5102
   15MOL    H62 4570   3.712   7.275   5.132  1.4054  1.3548  0.4517
   15MOL    H63 4571   3.670   7.281   4.976  1.2253 -0.7475  0.1506
   15MOL    H64 4572   3.760   7.776   4.792  3.5371  0.0870 -1.1793
   15MOL    H65 4573   3.842   7.653   4.691  0.2736  0.1870 -1.2970
   15MOL    C66 4574   3.741   7.821   4.588 -0.0946  0.3562 -0.1315
   15MOL    O67 4575   3.767   7.746   4.466  0.2260 -0.0581  0.3570
   15MOL    C68 4576   3.904   7.738   4.426 -0.1504 -0.4576 -0.0218
   15MOL    C69 4577   3.927   7.647   4.311 -0.0121  0.0184  0.2888
   15MOL    C70 4578   3.882   7.502   4.327 -0.3175 -0.0518 -0.5303
   15MOL    C71 4579   3.609   0.074   4.576 -0.3417  0.4772  0.1489
   15MOL    H72 4580   3.819   0.066   4.609 -1.7308  2.3643 -0.8481
   15MOL    H73 4581   3.950   0.006   4.405 -1.0289 -0.0532 -0.1250
   15MOL    H74 4582   3.963   7.697   4.508  0.8876  0.3103 -0.3795
   15MOL    H75 4583   4.031   7.647   4.279  0.7675  1.5446  2.6486
   15MOL    H76 4584   3.866   7.700   4.237  2.4075  0.1144 -1.6783
   15MOL    H77 4585   3.773   7.509   4.329 -0.2211  1.8427 -1.2008
   15MOL    H78 4586   3.913   7.457   4.421 -0.1287 -0.4075 -0.7601
   15MOL    H79 4587   3.915   7.436   4.246  0.6218  0.3342 -0.4649
   15MOL    H80 4588   3.619   0.118   4.477 -1.0243 -1.6901 -0.9189
   15MOL    H81 4589   3.530   0.000   4.562  0.2829  0.0558 -1.2905
   15MOL    C82 4590   3.573   0.185   4.691  0.1766  0.7622 -0.7124
   15MOL    O83 4591   3.589   0.115   4.814 -0.3486  0.1194  0.0252
   15MOL    C84 4592   3.493   0.169   4.913 -0.4425 -0.0753  0.2756
   15MOL    C85 4593   3.482   0.078   5.039  0.2511 -0.1678 -0.2114
   15MOL    C86 4594   3.418   0.142   5.170  0.2587 -0.2822  1.0227
   15MOL    C87 4595   3.674   0.301   4.693 -0.1550 -0.4027  0.1746
   15MOL    H88 4596   3.468   0.207   4.674  0.0212 -0.3948 -1.2961
   15MOL    H89 4597   3.499   0.269   4.955 -0.0457 -0.5767  1.4227
   15MOL    H90 4598   3.392   0.169   4.870 -0.3649  0.7852  0.0929
   15MOL    H91 4599   3.582   0.051   5.073 -0.8403 -1.2293  2.2405
   15MOL    H92 4600   3.448   7.804   5.024 -0.8723  0.1206  0.3449
   15MOL    H93 4601   3.324   0.191   5.142  1.7768  2.4784  0.5043
   15MOL    H94 4602   3.483   0.214   5.220 -0.4676  0.1669  1.3319
   15MOL    H95 4603   3.389   0.069   5.244  2.7472 -1.4411  0.8860
   15MOL    H96 4604   3.658   0.360   4.784 -1.1286  1.1632 -0.9798
   15MOL    H97 4605   3.777   0.270   4.704  0.1295  0.9116  1.4520
   15MOL    C98 4606   3.657   0.396   4.576  0.4380 -0.0584  0.1269
   15MOL    O99 4607   3.521   0.436   4.587  0.2242  0.3546  0.1793
   15MOL   C100 4608   3.471   0.503   4.478 -0.1022 -0.5384 -0.4862
   15MOL   C101 4609   3.319   0.488   4.484  0.9960 -0.3470  0.2094
   15MOL   C102 4610   3.248   0.534   4.349  0.3377  0.6559 -0.6579
   15MOL   C103 4611   3.759   0.512   4.584 -0.6357 -0.0947  0.1305
   15MOL   H104 4612   3.672   0.341   4.483  0.8607  0.3108 -0.0287
   15MOL   H105 4613   3.488   0.611   4.486 -1.6962 -0.1107 -2.3092
   15MOL   H106 4614   3.495   0.459   4.381  0.8459  0.8017 -0.8855
   15MOL   H107 4615   3.284   0.533   4.577 -1.0430 -1.4955  0.0186
   15MOL   H108 4616   3.292   0.387   4.513 -1.7284  0.2225 -0.1602
   15MOL   H109 4617   3.142   0.513   4.368  0.5634  1.2251  1.2857
   15MOL   H110 4618   3.273   0.480   4.258 -0.4437  1.3236 -1.2805
   15MOL   H111 4619   3.268   0.639   4.326  0.4296  1.3010  2.2000
   15MOL   H112 4620   3.728   0.592   4.517 -2.5770 -1.5311 -0.7316
   15MOL   H113 4621   3.754   0.549   4.687  1.3731  0.9503 -0.1048
   15MOL   C114 4622   3.906   0.479   4.540 -0.9756  0.1763 -0.4632
   15MOL   O115 4623   3.895   0.433   4.405  0.4506  0.0909 -0.1678
   15MOL   C116 4624   3.975   0.317   4.377 -0.1274  0.0283 -0.4978
   15MOL   C117 4625   4.121   0.315   4.425 -0.0131 -0.8159 -0.0755
   15MOL   C118 4626   4.184   0.176   4.458  0.2231 -0.5052  0.1472
   15MOL   C119 4627   4.013   0.595   4.538  0.1548  0.5059  0.7404
   15MOL   H120 4628   3.941   0.399   4.605  0.9679  1.1119 -0.3382
   15MOL   H121 4629   3.925   0.243   4.440  2.4200 -0.7889  0.6246
   15MOL   H122 4630   3.961   0.296   4.271  0.1385 -0.0980 -0.5076
   15MOL   H123 4631   4.139   0.363   4.522  1.7064 -1.0037 -0.2811
   15MOL   H124 4632   4.182   0.362   4.348 -0.6734 -1.2514 -0.8721
   15MOL   H125 4633   4.124   0.130   4.537 -0.1439  1.9686  1.3512
   15MOL   H126 4634   4.287   0.174   4.493  0.1497 -0.2521  0.3717
   15MOL   H127 4635   4.182   0.108   4.373 -0.5329  0.4093 -0.5759
   15MOL   H128 4636   4.093   0.569   4.469  1.6720 -0.9108  2.9888
   15MOL   H129 4637   3.970   0.685   4.494 -3.1245 -1.8913 -1.1588
   15MOL   C130 4638   4.072   0.625   4.680 -0.0192 -0.5631 -0.0181
   15MOL   O131 4639   4.144   0.510   4.722 -0.3749  0.1780  0.4578
   15MOL   C132 4640   4.173   0.496   4.860 -0.1011 -0.2152 -0.1516
   15MOL   C133 4641   4.313   0.425   4.878 -0.2192 -0.0580  0.1675
   15MOL   C134 4642   4.323   0.294   4.799  0.3071 -0.4388  0.2713
   15MOL   C135 4643   4.166   0.748   4.673 -0.0340  0.0490 -0.0249
   15MOL   H136 4644   3.989   0.639   4.749 -0.4403  1.3372 -0.8822
   15MOL   H137 4645   4.178   0.596   4.904  1.2774  0.3074 -1.4692
   15MOL   H138 4646   4.091   0.437   4.900 -0.9339  1.5665  0.8317
   15MOL   H139 4647   4.323   0.405   4.984 -0.7150 -2.3829 -0.1992
   15MOL   H140 4648   4.394   0.489   4.842 -0.2307 -0.1214  0.0249
   15MOL   H141 4649   4.225   0.249   4.784  0.4250  0.1182 -2.5739
   15MOL   H142 4650   4.392   0.222   4.842 -1.3693 -2.0656  0.2920
   15MOL   H143 4651   4.360   0.314   4.698 -0.1042  1.9981  0.5568
   15MOL   H144 4652   4.217   0.755   4.769 -0.3225  1.5051  0.0237
   15MOL   H145 4653   4.241   0.732   4.595  0.3403  2.9777 -0.3302
   15MOL   C146 4654   4.090   0.881   4.659  0.3843  0.6972  0.1735
   15MOL   O147 4655   3.969   0.902   4.741  0.8300 -0.1233  0.0967
   15MOL   C148 4656   3.853   0.950   4.676 -0.0374  0.7151  0.2419
   15MOL   C149 4657   3.741   0.971   4.775 -0.1090  0.0623  0.3893
   15MOL   C150 4658   3.667   0.847   4.801 -0.4184  0.4282 -0.4218
   15MOL   C151 4659   4.177   1.004   4.668 -0.0438  0.5691 -0.4317
   15MOL   H152 4660   4.051   0.888   4.557 -0.4524  1.6842  0.5555
   15MOL   H153 4661   3.878   1.040   4.620  2.3762 -1.2329 -1.9909
   15MOL   H154 4662   3.821   0.887   4.593  0.9529  0.5067  0.0061
   15MOL   H155 4663   3.673   1.050   4.743  0.4125 -0.4548 -2.0604
   15MOL   H156 4664   3.792   1.005   4.866  0.6624 -0.3969  0.1290
   15MOL   H157 4665   3.594   0.874   4.877  2.3237  1.4147  1.9832
   15MOL   H158 4666   3.733   0.762   4.815 -0.1589  0.6834 -0.0837
   15MOL   H159 4667   3.601   0.822   4.718  0.2796 -1.0104 -0.5596
   15MOL   H160 4668   4.111   1.089   4.687 -0.9161 -0.2658  0.2876
   15MOL   H161 4669   4.242   0.987   4.753  1.3561 -0.8421 -1.7497
   15MOL   C162 4670   4.256   1.036   4.533  0.8333 -0.1643 -0.8317
   15MOL   O163 4671   4.161   1.092   4.438 -0.6063 -0.1226 -0.3131
   15MOL   C164 4672   4.204   1.093   4.304 -0.1221 -0.0656  0.2723
   15MOL   C165 4673   4.077   1.125   4.216 -1.0353 -0.5313 -0.0158
   15MOL   C166 4674   3.972   1.014   4.220  0.8885  0.0163 -0.3164
   15MOL   C167 4675   4.352   1.152   4.558  0.2123 -0.6433  0.6793
   15MOL   H168 4676   4.304   0.947   4.493  2.1660  0.5704 -0.8784
   15MOL   H169 4677   4.267   1.179   4.283  0.2543 -0.5419 -0.5519
   15MOL   H170 4678   4.246   0.997   4.274  1.8724  1.0482 -0.6150
   15MOL   H171 4679   4.103   1.145   4.112 -1.9650  0.9209  0.0206
   15MOL   H172 4680   4.050   1.220   4.262 -0.9600 -0.5042 -0.0273
   15MOL   H173 4681   3.983   0.919   4.169 -3.5934 -1.1607  0.6447
   15MOL   H174 4682   3.878   1.040   4.172  0.9846  2.6138  0.7921
   15MOL   H175 4683   3.951   0.989   4.324  1.3784 -0.2291 -0.2774
   15MOL   H176 4684   4.399   1.180   4.464  2.3942  0.0752  1.9358
   15MOL   H177 4685   4.306   1.246   4.589  2.0443  0.7296 -0.6754
   15MOL   C178 4686   4.488   1.115   4.643  0.2936 -0.1126 -0.0949
   15MOL   O179 4687   4.512   0.976   4.629 -0.3784 -0.0112  0.6398
   15MOL   C180 4688   4.600   0.919   4.726  0.1056 -0.1669 -1.2614
   15MOL   C181 4689   4.582   0.767   4.731 -0.3341  0.3637  0.6914
   15MOL   C182 4690   4.609   0.707   4.592  0.2366 -0.2904  0.4328
   15MOL   C183 4691   4.610   1.208   4.613  0.6559  0.6248  0.1740
   15MOL   H184 4692   4.454   1.130   4.745 -1.2089 -2.0015 -0.2915
   15MOL   H185 4693   4.705   0.950   4.729  0.1620 -0.4527  0.2670
   15MOL   H186 4694   4.563   0.960   4.820 -1.0125 -0.6736 -1.4801
   15MOL   H187 4695   4.484   0.740   4.768 -0.6396 -1.0977 -1.1038
   15MOL   H188 4696   4.639   0.726   4.815 -0.1581 -0.4901  0.1637
   15MOL   H189 4697   4.593   0.600   4.589  2.5087 -0.6206 -2.0769
   15MOL   H190 4698   4.716   0.722   4.574  0.1441 -0.9097 -0.6795
   15MOL   H191 4699   4.549   0.752   4.512 -2.6361 -0.8507  2.2102
   15MOL   H192 4700   4.697   1.144   4.598  2.1530  2.1432  2.0104
   15MOL   H193 4701   4.598   1.249   4.513 -1.0930  0.3580  0.2550
   15MOL   C194 4702   4.649   1.309   4.725 -0.0115 -0.0941  0.5442
   15MOL   O195 4703   4.677   1.237   4.842 -0.2525 -0.1844 -0.4655
   15MOL   C196 4704   4.665   1.310   4.960 -0.5620 -0.4514 -0.3056
   15MOL   C197 4705   4.753   1.240   5.063 -0.3195  0.0820 -0.3504
   15MOL   C198 4706   4.904   1.288   5.055  1.0811 -0.2666 -1.1804
   15MOL   C199 4707   4.766   1.398   4.675 -0.2023 -0.2777 -0.6793
   15MOL   H200 4708   4.567   1.377   4.748 -0.1248  1.3081 -3.5513
   15MOL   H201 4709   4.696   1.413   4.946  0.9426 -0.5025  2.3348
   15MOL   H202 4710   4.564   1.327   4.999 -0.3352 -0.0279  0.1044
   15MOL   H203 4711   4.749   1.134   5.040  1.5840  0.2642 -1.6218
   15MOL   H204 4712   4.720   1.233   5.166  2.2470 -0.4004  0.4607
   15MOL   H205 4713   4.939   1.267   4.954  1.3778 -3.5724 -0.4357
   15MOL   H206 4714   4.971   1.230   5.118  0.8784  1.9034  1.1296
   15MOL   H207 4715   4.913   1.394   5.078 -4.6650 -0.0508  0.7802
   15MOL   H208 4716   4.834   1.435   4.752  0.8160 -1.5422 -0.9416
   15MOL   H209 4717   4.832   1.323   4.629  0.1332 -0.8651  0.7405
   15MOL   C210 4718   4.728   1.520   4.579  0.5707  0.3357 -0.6656
   15MOL   O211 4719   4.636   1.600   4.649 -0.1572 -0.5090 -0.0869
   15MOL   C212 4720   4.515   1.609   4.577 -0.1149  0.2798  0.2558
   15MOL   C213 4721   4.510   1.726   4.480 -0.2342 -0.0878 -0.2372
   15MOL   C214 4722   4.399   1.725   4.370 -0.3369 -0.1483  0.1842
   15MOL   C215 4723   4.854   1.600   4.539 -0.0765  0.7435 -0.1677
   15MOL   H216 4724   4.686   1.467   4.493  1.4310 -2.1132  0.3916
   15MOL   H217 4725   4.503   1.526   4.507 -0.0032 -0.2666  0.8873
   15MOL   H218 4726   4.430   1.611   4.644  0.6179  0.8917  1.1735
   15MOL   H219 4727   4.599   1.727   4.418  0.8617  1.4274  1.3153
   15MOL   H220 4728   4.519   1.819   4.536  0.5797  0.9105 -2.0168
   15MOL   H221 4729   4.304   1.754   4.415 -1.5693 -2.2144 -0.9902
   15MOL   H222 4730   4.377   1.623   4.339 -0.9395 -0.0198  0.1839
   15MOL   H223 4731   4.426   1.792   4.288 -1.6197  1.1588  0.8139
   15MOL   H224 4732   4.836   1.699   4.498 -0.7908 -0.3723 -2.6863
   15MOL   H225 4733   4.915   1.617   4.627  0.4533  0.2963 -0.4412
   15MOL   C226 4734   4.941   1.519   4.440  0.1414 -0.1298 -0.0180
   15MOL   O227 4735   4.876   1.505   4.319 -0.4330 -0.3095 -0.0532
   15MOL   C228 4736   4.912   1.399   4.234 -0.3643  0.5931  0.2571
   15MOL   C229 4737   4.802   1.405   4.130 -0.2011  0.2898 -0.4467
   15MOL   C230 4738   4.831   1.306   4.012 -0.3802 -0.2228 -0.1549
   15MOL   C231 4739   5.087   1.568   4.413 -0.4215  0.2763  0.1727
   15MOL   H232 4740   4.955   1.426   4.495  1.0931 -0.5339 -0.9352
   15MOL   H233 4741   5.012   1.414   4.193  0.1104 -2.8711  0.0421
   15MOL   H234 4742   4.922   1.302   4.281 -0.8022  1.4443  2.1753
   15MOL   H235 4743   4.809   1.509   4.101  4.0208  0.1724 -0.1786
   15MOL   H236 4744   4.704   1.393   4.177 -1.0900 -0.0866 -2.3479
   15MOL   H237 4745   4.884   1.214   4.040 -0.7017 -0.5935 -0.7521
   15MOL   H238 4746   4.915   1.346   3.955  0.3566 -1.7143 -0.1444
   15MOL   H239 4747   4.737   1.273   3.968 -1.6294  0.5444  1.8994
   15MOL   H240 4748   5.135   1.554   4.510  0.2691 -1.8035 -0.4362
   15MOL   H241 4749   5.142   1.505   4.345 -0.8255  0.2099 -0.0956
   15MOL   C242 4750   5.104   1.718   4.356 -0.0155 -0.1553 -0.3978
   15MOL   O243 4751   5.236   1.765   4.394  0.8575 -0.1693 -0.3876
   15MOL   C244 4752   5.249   1.850   4.510  0.5706 -0.5365  0.2742
   15MOL   C245 4753   5.393   1.886   4.548  0.0086 -0.0171  0.2627
   15MOL   C246 4754   5.389   1.961   4.683  1.2212  0.5260  0.3155
   15MOL   C247 4755   5.080   1.729   4.202  0.2557  0.9041 -0.0473
   15MOL   H248 4756   5.041   1.780   4.420 -0.9880 -1.6798  0.1337
   15MOL   H249 4757   5.214   1.945   4.471  3.3028  0.0732 -0.8028
   15MOL   H250 4758   5.194   1.808   4.594  2.1617 -0.2089  1.5044
   15MOL   H251 4759   5.443   1.955   4.480 -0.1610 -0.1993 -0.0456
   15MOL   H252 4760   5.453   1.796   4.561  0.6222  0.5771  1.7441
   15MOL   H253 4761   5.492   1.970   4.718  2.1240 -0.8641 -1.8524
   15MOL   H254 4762   5.333   1.912   4.762  0.5671  0.8688  0.0632
   15MOL   H255 4763   5.340   2.056   4.665 -1.2943 -0.8100 -0.0444
   15MOL   H256 4764   5.134   1.650   4.149 -0.1114  0.0849  0.7843
   15MOL   H257 4765   4.973   1.731   4.179  0.7924 -1.0577 -3.0642
   15MOL   C258 4766   5.140   1.855   4.140  0.9864  0.3317  0.3725
   15MOL   O259 4767   5.138   1.861   3.998 -0.3873  0.2300 -0.1798
   15MOL   C260 4768   5.237   1.783   3.932  0.1012 -0.5769  0.1558
   15MOL   C261 4769   5.275   1.847   3.799  0.3995  0.1672 -0.5412
   15MOL   C262 4770   5.345   1.975   3.818  0.4888  0.4362 -0.4722
   15MOL   C263 4771   5.056   1.970   4.182 -0.2539  0.1058 -0.5142
   15MOL   H264 4772   5.243   1.870   4.172  0.9826  1.5244 -0.1658
   15MOL   H265 4773   5.319   1.783   4.005 -1.2887 -0.4330  1.7411
   15MOL   H266 4774   5.194   1.684   3.916 -0.8633  0.3029 -2.9360
   15MOL   H267 4775   5.186   1.858   3.736  0.9724  1.2930 -1.1838
   15MOL   H268 4776   5.334   1.780   3.737  0.3300  0.9350 -1.4544
   15MOL   H269 4777   5.438   1.956   3.872  0.9478 -1.8259 -1.9763
   15MOL   H270 4778   5.272   2.039   3.867  0.9102  1.5948 -1.3255
   15MOL   H271 4779   5.372   2.025   3.725 -0.2043 -0.3174 -1.0936
   15MOL   H272 4780   4.958   1.942   4.145  0.2927 -1.3144 -0.9046
   15MOL   H273 4781   5.049   1.985   4.290  2.8723  0.8575 -0.3516
   15MOL   C274 4782   5.093   2.107   4.116 -0.0145  1.0235 -0.2238
   15MOL   O275 4783   4.980   2.183   4.130 -0.1186 -0.0870 -0.5532
   15MOL   C276 4784   4.888   2.189   4.020  0.7468  0.4182  0.0269
   15MOL   C277 4785   4.928   2.318   3.937 -0.2271 -0.2659 -0.3596
   15MOL   C278 4786   4.830   2.355   3.819  0.1655 -0.0195 -0.1520
   15MOL   C279 4787   5.213   2.174   4.200  0.1255 -0.0213 -0.5107
   15MOL   H280 4788   5.109   2.103   4.008 -1.9596  2.0806 -0.5788
   15MOL   H281 4789   4.889   2.099   3.959  0.2294  0.0715  0.5152
   15MOL   H282 4790   4.784   2.204   4.050  1.0922  0.9244  0.9902
   15MOL   H283 4791   5.032   2.308   3.906  0.6788  2.1325  1.7044
   15MOL   H284 4792   4.922   2.400   4.008  2.5236 -0.4402  0.1089
   15MOL   H285 4793   4.871   2.425   3.746  1.5057  0.2855  0.8679
   15MOL   H286 4794   4.741   2.398   3.864  0.2394  0.7337 -0.7158
   15MOL   H287 4795   4.796   2.264   3.770  3.0011 -1.1662 -0.1012
   15MOL   H288 4796   5.184   2.187   4.305  2.0236  1.5999 -0.1560
   15MOL   H289 4797   5.280   2.089   4.213 -0.4045 -0.4076 -0.2562
   15MOL   C290 4798   5.273   2.305   4.149 -0.0550 -0.5376 -0.0941
   15MOL   O291 4799   5.337   2.366   4.262 -0.6317 -0.5178 -0.7368
   15MOL   C292 4800   5.258   2.438   4.350  0.1345 -0.1669  0.2633
   15MOL   C293 4801   5.334   2.486   4.478 -0.1124  0.1202  0.3027
   15MOL   C294 4802   5.363   2.370   4.569 -0.1558  0.0357  0.0891
   15MOL   C295 4803   5.382   2.281   4.040  0.7839 -0.3813 -0.2719
   15MOL   H296 4804   5.198   2.371   4.105  1.1781  0.9283 -0.0214
   15MOL   H297 4805   5.206   2.516   4.294  1.4187  0.5518  0.0469
   15MOL   H298 4806   5.177   2.373   4.384  0.0048 -0.4773 -0.6195
   15MOL   H299 4807   5.272   2.551   4.539 -0.3337 -2.9017  3.4542
   15MOL   H300 4808   5.422   2.542   4.447  0.0377 -0.0907  0.3434
   15MOL   H301 4809   5.402   2.389   4.669  3.5606 -1.4698 -0.9865
   15MOL   H302 4810   5.419   2.289   4.523 -1.2399 -0.7740  0.1776
   15MOL   H303 4811   5.265   2.325   4.588 -1.0333  1.3020 -1.3283
   15MOL   H304 4812   5.345   2.218   3.959  2.5051  0.3276 -1.6341
   15MOL   H305 4813   5.395   2.385   4.009 -1.6137 -0.2661 -0.9416
   15MOL   C306 4814   5.516   2.229   4.087 -0.3869  0.0893 -0.1056
   15MOL   O307 4815   5.512   2.088   4.115 -0.1972 -0.2458  0.3548
   15MOL   C308 4816   5.603   2.040   4.215 -0.4467 -0.5446  0.1298
   15MOL   C309 4817   5.608   1.884   4.207 -0.2522 -0.4127  0.7002
   15MOL   C310 4818   5.640   1.838   4.067 -0.4733  0.3796  0.0379
   15MOL   C311 4819   5.619   2.247   3.976  0.0314 -0.5578 -0.1092
   15MOL   H312 4820   5.546   2.285   4.175 -2.0758 -0.9284  1.1346
   15MOL   H313 4821   5.700   2.087   4.198 -0.4182  0.6127  3.1845
   15MOL   H314 4822   5.562   2.066   4.312 -0.9047  0.9373 -0.4485
   15MOL   H315 4823   5.507   1.848   4.228  0.3955 -1.3973  2.2059
   15MOL   H316 4824   5.685   1.833   4.266 -0.6479 -2.2434 -0.3143
   15MOL   H317 4825   5.690   1.916   4.010 -3.3784  2.3234  0.0973
   15MOL   H318 4826   5.554   1.802   4.011  1.2162 -0.2894 -2.2189
   15MOL   H319 4827   5.708   1.752   4.071  1.3163  1.7236 -0.9862
   15MOL   H320 4828   5.611   2.171   3.899 -0.9197 -2.8809  2.2260
   15MOL   H321 4829   5.607   2.352   3.947 -1.8749 -0.6755  0.1793
   15MOL   H322 4830   5.717   2.222   4.017 -0.8331 -0.4519  2.0705
   16MOL     C1 4831   7.206   6.634   1.088  0.1137 -0.2815 -0.7224
   16MOL     O2 4832   7.189   6.655   1.225  0.2662 -0.0517  0.1872
   16MOL     C3 4833   7.278   6.752   1.284 -0.2046 -0.5536 -0.9285
   16MOL     C4 4834   7.237   6.753   1.433  0.1317  0.4817 -0.0017
   16MOL     C5 4835   7.092   6.791   1.444 -0.2366 -0.8938 -0.2301
   16MOL     C6 4836   7.158   6.494   1.054 -0.1193 -0.1935  0.3561
   16MOL     H7 4837   7.311   6.638   1.059  0.3692  1.1505  0.3681
   16MOL     H8 4838   7.379   6.713   1.269  0.3705  0.9583 -1.0557
   16MOL     H9 4839   7.267   6.853   1.245  0.7941  0.4653  1.2647
   16MOL    H10 4840   7.297   6.826   1.488 -0.4457  0.9836 -0.0253
   16MOL    H11 4841   7.256   6.651   1.467 -1.9214 -0.4990 -1.6573
   16MOL    H12 4842   7.062   6.765   1.545  0.5209  0.2958  0.3081
   16MOL    H13 4843   7.035   6.734   1.370  0.1809  0.1354 -1.3691
   16MOL    H14 4844   7.074   6.896   1.421  0.0743 -0.9029 -0.5221
   16MOL    H15 4845   7.193   6.416   1.122 -0.9118 -1.3100 -0.5017
   16MOL    H16 4846   7.050   6.486   1.057 -0.2132  0.7597 -0.2765
   16MOL    H17 4847   7.153   6.712   1.034  1.0655  0.5715 -0.4284
   16MOL    C18 4848   7.198   6.456   0.909  0.0229 -0.1703 -0.0309
   16MOL    O19 4849   7.322   6.390   0.928  0.3737 -0.3765 -0.0660
   16MOL    C20 4850   7.404   6.377   0.805 -0.1959 -0.0011 -0.3779
   16MOL    C21 4851   7.533   6.314   0.834 -0.4470 -0.0527 -0.3513
   16MOL    C22 4852   7.620   6.381   0.941 -0.1635  0.1625 -0.1782
   16MOL    C23 4853   7.094   6.362   0.830 -0.5572  0.6660 -0.6605
   16MOL    H24 4854   7.218   6.542   0.845 -1.5036 -0.9947 -1.6382
   16MOL    H25 4855   7.350   6.318   0.731 -4.3312  1.5645  1.2361
   16MOL    H26 4856   7.424   6.474   0.759 -0.0618  0.9873  1.7098
   16MOL    H27 4857   7.591   6.316   0.742  0.4864 -1.9656  0.1754
   16MOL    H28 4858   7.521   6.208   0.859 -1.4055  0.4245  1.2920
   16MOL    H29 4859   7.718   6.337   0.958 -0.6352  0.0255  2.2421
   16MOL    H30 4860   7.571   6.392   1.037  0.3497  0.1091  0.0905
   16MOL    H31 4861   7.651   6.476   0.897 -1.9803 -0.1535 -2.2079
   16MOL    H32 4862   7.129   6.336   0.730  0.4340 -0.3339 -0.0611
   16MOL    H33 4863   7.095   6.265   0.879 -2.5821  0.7204 -0.4594
   16MOL    C34 4864   6.953   6.421   0.802  0.4475  0.7559  0.0681
   16MOL    O35 4865   6.978   6.538   0.727  0.1408  0.2082  0.3496
   16MOL    C36 4866   6.936   6.650   0.794 -0.2898  0.0863 -0.0944
   16MOL    C37 4867   6.941   6.762   0.684  0.5478 -0.3319 -0.3126
   16MOL    C38 4868   6.854   6.887   0.710 -0.1548  0.5099  0.2835
   16MOL    C39 4869   6.873   6.325   0.707  0.2150 -0.0063 -0.5825
   16MOL    H40 4870   6.894   6.440   0.891 -0.0893 -0.8651  0.0636
   16MOL    H41 4871   6.831   6.637   0.821  0.1584 -0.0046  1.6757
   16MOL    H42 4872   6.994   6.678   0.882  0.9897  1.4834 -1.3287
   16MOL    H43 4873   6.903   6.729   0.588  1.7619  1.0258 -1.2721
   16MOL    H44 4874   7.042   6.801   0.669  0.9093 -0.8724  0.6781
   16MOL    H45 4875   6.753   6.846   0.705 -0.2150  0.7757 -0.8622
   16MOL    H46 4876   6.880   6.969   0.643 -2.7231  1.8698  0.8947
   16MOL    H47 4877   6.881   6.920   0.810 -0.1913  2.9173 -0.4642
   16MOL    H48 4878   6.917   6.330   0.607 -0.5599 -1.4513 -1.0053
   16MOL    H49 4879   6.873   6.223   0.745 -0.9456  0.2593  0.1419
   16MOL    C50 4880   6.727   6.365   0.688  0.6906  0.1708  0.3269
   16MOL    O51 4881   6.678   6.275   0.589 -0.2851  0.6001  0.0405
   16MOL    C52 4882   6.642   6.348   0.471 -0.4467 -0.0867 -0.4741
   16MOL    C53 4883   6.607   6.247   0.365 -0.6880  0.2346  0.6098
   16MOL    C54 4884   6.468   6.191   0.377  0.1710 -0.1514 -0.2115
   16MOL    C55 4885   6.638   6.360   0.813  0.0889 -0.3979  0.2381
   16MOL    H56 4886   6.729   6.471   0.662 -1.7513  0.1550 -0.0642
   16MOL    H57 4887   6.562   6.421   0.484  1.8655  2.6823 -1.1835
   16MOL    H58 4888   6.725   6.414   0.445  0.3775 -0.7619  0.4217
   16MOL    H59 4889   6.682   6.168   0.372  0.1981  1.0689  0.5642
   16MOL    H60 4890   6.613   6.287   0.264 -0.1230 -3.5495 -0.9321
   16MOL    H61 4891   6.448   6.126   0.292  1.2343  0.8901 -1.2636
   16MOL    H62 4892   6.400   6.276   0.387 -1.1129 -0.9711 -1.6862
   16MOL    H63 4893   6.463   6.126   0.465  2.2874 -1.6906 -1.1986
   16MOL    H64 4894   6.661   6.259   0.849 -1.3899 -0.6072  0.6301
   16MOL    H65 4895   6.666   6.436   0.886 -0.9914  0.2913 -0.0468
   16MOL    C66 4896   6.484   6.388   0.794 -0.0483 -0.2916  0.0486
   16MOL    O67 4897   6.419   6.380   0.921 -0.2027 -0.3295  0.3114
   16MOL    C68 4898   6.415   6.245   0.976  0.5769 -1.2816  0.5782
   16MOL    C69 4899   6.386   6.250   1.125  0.4522  0.4499  0.3548
   16MOL    C70 4900   6.511   6.265   1.212 -0.3558  0.3703 -0.3594
   16MOL    C71 4901   6.445   6.525   0.737  0.0067  0.8677 -0.0399
   16MOL    H72 4902   6.436   6.314   0.730 -0.6604  1.0089 -1.0303
   16MOL    H73 4903   6.331   6.193   0.931 -1.6586  1.6448  1.2389
   16MOL    H74 4904   6.507   6.189   0.957  1.9394  1.7676 -2.3703
   16MOL    H75 4905   6.325   6.164   1.153 -0.3464 -1.5137 -6.4063
   16MOL    H76 4906   6.323   6.334   1.156 -3.5054 -1.8268 -1.1961
   16MOL    H77 4907   6.594   6.211   1.166  2.1171  2.4711  1.4966
   16MOL    H78 4908   6.502   6.241   1.318 -1.8240  2.3238 -0.0128
   16MOL    H79 4909   6.536   6.371   1.211 -1.8402  0.7676  1.4817
   16MOL    H80 4910   6.470   6.594   0.817 -0.4094  1.6999 -0.6285
   16MOL    H81 4911   6.513   6.550   0.656  1.0496  1.1694  0.9033
   16MOL    C82 4912   6.301   6.546   0.687 -0.1705  0.1089 -1.3203
   16MOL    O83 4913   6.292   6.684   0.654  0.2132  0.6613 -0.1845
   16MOL    C84 4914   6.250   6.770   0.758 -0.0785  0.7280 -0.1830
   16MOL    C85 4915   6.185   6.895   0.712  0.4080 -0.0787 -0.1544
   16MOL    C86 4916   6.068   6.881   0.619  0.0939 -0.3907 -0.2119
   16MOL    C87 4917   6.259   6.479   0.548 -0.8268  0.0770  0.3892
   16MOL    H88 4918   6.232   6.520   0.767  2.5729 -1.9667  0.4626
   16MOL    H89 4919   6.171   6.723   0.816  0.6566 -1.0088 -0.5323
   16MOL    H90 4920   6.326   6.805   0.828  1.2234  2.1769 -2.2711
   16MOL    H91 4921   6.261   6.949   0.655  1.4097  0.9477  2.0944
   16MOL    H92 4922   6.152   6.964   0.790 -0.4860 -0.6594 -0.0171
   16MOL    H93 4923   6.094   6.828   0.527 -2.4197  1.5514 -2.1103
   16MOL    H94 4924   6.029   6.974   0.577 -1.1718 -1.2558 -0.9873
   16MOL    H95 4925   5.974   6.842   0.661  0.0744  0.2185  0.3178
   16MOL    H96 4926   6.311   6.533   0.469 -0.1439 -1.6811 -0.3969
   16MOL    H97 4927   6.306   6.380   0.549  0.9902  0.9157 -0.3262
   16MOL    C98 4928   6.112   6.469   0.534  0.1682 -0.2129 -0.0141
   16MOL    O99 4929   6.087   6.475   0.392  0.1756 -0.5079  0.1357
   16MOL   C100 4930   6.041   6.593   0.345  0.3566 -0.0561 -0.3811
   16MOL   C101 4931   6.007   6.574   0.193  0.0421  0.4379  0.2121
   16MOL   C102 4932   5.945   6.702   0.124  0.3425 -0.1288  0.1656
   16MOL   C103 4933   6.047   6.335   0.562  0.2689 -0.2704  0.3163
   16MOL   H104 4934   6.064   6.554   0.582 -0.1898  0.4063 -1.4224
   16MOL   H105 4935   5.946   6.616   0.393  0.3750 -1.8627  0.5460
   16MOL   H106 4936   6.111   6.676   0.351 -1.6173  1.6251 -0.2110
   16MOL   H107 4937   5.951   6.483   0.172  2.8860 -1.1767 -0.6567
   16MOL   H108 4938   6.103   6.562   0.142  0.6073  2.4898  0.7315
   16MOL   H109 4939   5.909   6.685   0.023  2.6813 -2.0748 -0.3942
   16MOL   H110 4940   6.016   6.784   0.123 -0.1762  0.2996 -2.1721
   16MOL   H111 4941   5.867   6.744   0.187  0.9771  0.9473  0.2446
   16MOL   H112 4942   5.940   6.350   0.547  1.0656  3.0136 -2.7562
   16MOL   H113 4943   6.078   6.266   0.484  1.3474  1.1916 -0.5653
   16MOL   C114 4944   6.068   6.272   0.711  0.0305  0.5627 -0.1716
   16MOL   O115 4945   6.006   6.366   0.793  0.0376 -0.0524 -0.0131
   16MOL   C116 4946   6.043   6.356   0.932 -0.4025 -0.2423 -0.5270
   16MOL   C117 4947   5.974   6.472   1.003 -0.0660 -0.3165  0.2322
   16MOL   C118 4948   6.037   6.503   1.139  0.5918  0.2978  0.2727
   16MOL   C119 4949   6.011   6.131   0.731  0.3832 -0.4757  0.0287
   16MOL   H120 4950   6.176   6.274   0.728 -0.0338  0.7873  0.2130
   16MOL   H121 4951   6.008   6.263   0.976  1.7009  0.1833  2.1801
   16MOL   H122 4952   6.149   6.380   0.944 -0.1468 -1.7301  0.3970
   16MOL   H123 4953   5.866   6.458   1.015 -0.0857 -0.0001  0.4165
   16MOL   H124 4954   5.986   6.556   0.935 -1.2200 -1.0689 -0.9433
   16MOL   H125 4955   5.999   6.595   1.184  0.6730  0.1988  0.5440
   16MOL   H126 4956   6.145   6.521   1.130  0.3736  0.4246 -2.5249
   16MOL   H127 4957   6.033   6.425   1.215  1.5275 -0.4290 -0.4065
   16MOL   H128 4958   6.026   6.090   0.831 -0.2832 -3.4983 -1.0499
   16MOL   H129 4959   5.905   6.141   0.709  0.5700 -0.5330 -0.9271
   16MOL   C130 4960   6.082   6.019   0.649  0.4905  0.0762  0.4583
   16MOL   O131 4961   6.189   5.972   0.729 -0.2995  0.0780  0.4212
   16MOL   C132 4962   6.317   5.965   0.663  0.1568 -0.0874  0.0832
   16MOL   C133 4963   6.403   5.897   0.767 -0.3561  0.6309  0.5773
   16MOL   C134 4964   6.386   5.742   0.757  0.9281  0.0095 -0.0144
   16MOL   C135 4965   5.985   5.895   0.635 -0.6123 -0.5292  0.3352
   16MOL   H136 4966   6.115   6.060   0.553 -0.6029 -0.9544 -0.3823
   16MOL   H137 4967   6.310   5.908   0.570  0.8253 -0.1358  0.0580
   16MOL   H138 4968   6.363   6.061   0.642  2.6843 -1.3744 -0.4981
   16MOL   H139 4969   6.378   5.918   0.871 -1.0748 -0.4758  0.6344
   16MOL   H140 4970   6.505   5.921   0.739 -0.7373  1.5179 -0.0949
   16MOL   H141 4971   6.434   5.693   0.842  1.2313  1.2914  0.5567
   16MOL   H142 4972   6.429   5.714   0.660 -0.8338  0.1454 -0.8506
   16MOL   H143 4973   6.282   5.713   0.748  0.6664  0.1073  2.5282
   16MOL   H144 4974   6.045   5.812   0.598 -0.8368 -0.5209 -0.0531
   16MOL   H145 4975   5.956   5.871   0.737  0.8138 -2.3179  0.3371
   16MOL   C146 4976   5.866   5.929   0.540 -0.0346  0.3721 -0.2869
   16MOL   O147 4977   5.928   5.964   0.416 -0.0711 -0.3331 -0.6060
   16MOL   C148 4978   5.836   6.016   0.318 -0.4335 -0.0757  0.7732
   16MOL   C149 4979   5.915   6.027   0.188 -0.0912  0.0014 -0.4099
   16MOL   C150 4980   6.039   6.122   0.209  0.6623 -0.1933 -0.0906
   16MOL   C151 4981   5.768   5.809   0.544 -0.2065 -0.3981 -0.3452
   16MOL   H152 4982   5.803   6.013   0.569 -0.9859 -1.1357  2.2544
   16MOL   H153 4983   5.759   5.943   0.295 -1.6727  1.0588  1.2638
   16MOL   H154 4984   5.795   6.115   0.339 -1.3526  0.2609 -2.3705
   16MOL   H155 4985   5.845   6.077   0.122 -0.6160  1.8899  1.5499
   16MOL   H156 4986   5.938   5.927   0.150  1.7110 -0.5325  1.9401
   16MOL   H157 4987   6.112   6.117   0.128 -0.6906  0.3710 -1.3777
   16MOL   H158 4988   6.088   6.090   0.300  0.7678  1.6884  0.5154
   16MOL   H159 4989   6.014   6.228   0.208  0.7264 -0.1751 -1.4446
   16MOL   H160 4990   5.697   5.823   0.463 -0.0905  0.4827 -0.3001
   16MOL   H161 4991   5.821   5.720   0.513  1.1842  0.5516 -0.7376
   16MOL   C162 4992   5.688   5.788   0.680 -0.4036  0.1852  0.5354
   16MOL   O163 4993   5.614   5.910   0.707 -0.0029  0.1416 -0.2560
   16MOL   C164 4994   5.666   5.993   0.805 -0.7187 -0.2303  0.3215
   16MOL   C165 4995   5.641   6.140   0.781  0.4208  0.2320  0.2576
   16MOL   C166 4996   5.668   6.227   0.906  0.2711  0.1293 -0.0157
   16MOL   C167 4997   5.579   5.681   0.655  0.6159  0.3439  0.5474
   16MOL   H168 4998   5.756   5.753   0.758  2.1427  2.0908 -0.7481
   16MOL   H169 4999   5.624   5.970   0.902  1.7389 -0.5279  1.3454
   16MOL   H170 5000   5.772   5.989   0.831 -0.7813  0.1113  0.6144
   16MOL   H171 5001   5.533   6.153   0.772  0.1436 -3.1949 -2.3304
   16MOL   H172 5002   5.680   6.181   0.688 -1.1190  0.5905 -0.2475
   16MOL   H173 5003   5.606   6.200   0.991 -0.9405  0.6423 -0.7245
   16MOL   H174 5004   5.641   6.332   0.892 -0.6273 -0.2657 -1.2835
   16MOL   H175 5005   5.773   6.218   0.934  0.5491  0.4453 -0.9613
   16MOL   H176 5006   5.509   5.717   0.579 -0.8282 -1.9680  0.7362
   16MOL   H177 5007   5.624   5.590   0.616  1.8237  0.7348  0.9903
   16MOL   C178 5008   5.492   5.651   0.780 -0.1356 -1.8772  0.1881
   16MOL   O179 5009   5.390   5.545   0.756 -0.2067 -0.3320 -0.8118
   16MOL   C180 5010   5.299   5.578   0.655  0.0613 -0.3798 -0.5425
   16MOL   C181 5011   5.169   5.491   0.682 -0.4022 -0.3763 -0.5182
   16MOL   C182 5012   5.053   5.547   0.596  0.1383 -0.3046 -0.0573
   16MOL   C183 5013   5.573   5.636   0.908  0.1581  0.0980  0.3245
   16MOL   H184 5014   5.429   5.735   0.806 -0.4313 -2.2917  0.8221
   16MOL   H185 5015   5.282   5.685   0.657  2.9652  0.0767  2.7286
   16MOL   H186 5016   5.342   5.555   0.557  0.4374  0.4881 -0.5883
   16MOL   H187 5017   5.144   5.514   0.785  2.1881 -0.7308  0.2231
   16MOL   H188 5018   5.191   5.384   0.677  1.9122  0.0779 -0.6918
   16MOL   H189 5019   4.987   5.624   0.634  0.7043 -0.2560  0.8530
   16MOL   H190 5020   4.983   5.466   0.572 -0.6392  0.8833 -1.9117
   16MOL   H191 5021   5.097   5.575   0.500  0.2652  0.5047  0.2319
   16MOL   H192 5022   5.656   5.570   0.882  0.2401 -0.3438  1.7154
   16MOL   H193 5023   5.619   5.728   0.942  0.5763 -0.3848  1.0739
   16MOL   C194 5024   5.504   5.566   1.029  0.7967  0.5126  0.1420
   16MOL   O195 5025   5.580   5.454   1.065 -0.3040  0.1929  0.3884
   16MOL   C196 5026   5.568   5.341   0.985 -0.1816  0.3997  0.2199
   16MOL   C197 5027   5.615   5.218   1.060 -0.9034 -0.4088  0.0765
   16MOL   C198 5028   5.567   5.085   0.990 -0.2585  0.1794  0.5309
   16MOL   C199 5029   5.480   5.654   1.156 -0.2365 -0.2877 -0.1746
   16MOL   H200 5030   5.413   5.528   0.984  1.0866  0.3990 -0.3602
   16MOL   H201 5031   5.462   5.333   0.961  0.3709  1.0897 -2.7113
   16MOL   H202 5032   5.615   5.362   0.888 -0.8163 -0.5716 -0.2969
   16MOL   H203 5033   5.559   5.243   1.151  2.8655  0.2621  2.3293
   16MOL   H204 5034   5.719   5.224   1.092 -1.1446  1.6082  0.5666
   16MOL   H205 5035   5.603   5.101   0.888 -0.3783 -0.7518  0.3383
   16MOL   H206 5036   5.459   5.077   0.986 -0.2736  0.2847  0.7494
   16MOL   H207 5037   5.616   4.994   1.027 -0.6429 -0.9228 -1.5987
   16MOL   H208 5038   5.486   5.588   1.242  1.3650  2.3121  1.7686
   16MOL   H209 5039   5.573   5.707   1.176 -0.1329 -1.1227  1.6245
   16MOL   C210 5040   5.356   5.754   1.153 -0.1937  0.3190 -0.6589
   16MOL   O211 5041   5.235   5.678   1.151 -0.5465  0.0983  0.2377
   16MOL   C212 5042   5.115   5.743   1.109 -0.3716 -0.1769 -0.0401
   16MOL   C213 5043   5.004   5.648   1.079 -0.7219 -0.3122 -0.5087
   16MOL   C214 5044   4.893   5.707   0.997  0.3894 -1.1042 -0.1906
   16MOL   C215 5045   5.354   5.833   1.285  0.1914  0.7277 -0.6191
   16MOL   H216 5046   5.362   5.820   1.066 -1.5236  0.7321 -0.4407
   16MOL   H217 5047   5.086   5.819   1.182 -0.6662 -0.8496  0.5492
   16MOL   H218 5048   5.145   5.796   1.019 -1.1886  0.6700  0.1750
   16MOL   H219 5049   4.972   5.595   1.169 -2.0961  0.0670 -0.7650
   16MOL   H220 5050   5.042   5.575   1.009  0.6901 -0.0644 -0.0184
   16MOL   H221 5051   4.812   5.641   0.964  0.4961 -0.7697 -1.1337
   16MOL   H222 5052   4.926   5.727   0.895 -1.8917  0.4280 -0.6528
   16MOL   H223 5053   4.848   5.798   1.037  0.5837 -0.4885 -1.3424
   16MOL   H224 5054   5.253   5.845   1.324  0.4157 -1.1634  0.6145
   16MOL   H225 5055   5.408   5.785   1.367  2.7403  2.1952 -1.3905
   16MOL   C226 5056   5.413   5.981   1.268  0.1042 -0.2323  0.0753
   16MOL   O227 5057   5.540   5.977   1.206  0.0267 -0.5356  0.3667
   16MOL   C228 5058   5.649   6.009   1.296  0.4165  0.6951 -0.0570
   16MOL   C229 5059   5.785   6.045   1.227 -0.5893 -0.4319 -0.2734
   16MOL   C230 5060   5.883   6.093   1.335 -0.0964 -0.7988  0.7745
   16MOL   C231 5061   5.319   6.075   1.186 -0.3697  0.0939 -0.9275
   16MOL   H232 5062   5.417   6.025   1.368 -1.9123  2.0083 -0.7778
   16MOL   H233 5063   5.624   6.098   1.353 -2.1453 -0.2470  0.3545
   16MOL   H234 5064   5.652   5.932   1.373 -2.3883 -1.3632 -1.9330
   16MOL   H235 5065   5.761   6.123   1.156 -1.8450 -0.3500  0.2226
   16MOL   H236 5066   5.816   5.963   1.162  1.8205  1.3300 -1.4316
   16MOL   H237 5067   5.838   6.149   1.417 -1.8644 -3.0543  1.3981
   16MOL   H238 5068   5.954   6.149   1.274 -1.7511 -3.3034 -3.7164
   16MOL   H239 5069   5.939   6.012   1.381 -0.0197 -1.0276  0.2779
   16MOL   H240 5070   5.345   6.054   1.082  0.3953  3.6158 -1.5053
   16MOL   H241 5071   5.217   6.040   1.198  0.4571 -1.4634  2.1402
   16MOL   C242 5072   5.319   6.225   1.226  0.0945  0.7321 -0.5143
   16MOL   O243 5073   5.227   6.282   1.133 -0.3717 -0.0940  0.4474
   16MOL   C244 5074   5.252   6.418   1.102 -0.1925 -0.2487  0.4266
   16MOL   C245 5075   5.358   6.415   0.987  0.5897 -0.0657  0.0217
   16MOL   C246 5076   5.407   6.556   0.937  0.3314  0.0550 -0.7102
   16MOL   C247 5077   5.271   6.251   1.372 -1.0023  0.3597  0.5624
   16MOL   H248 5078   5.415   6.278   1.222 -0.5247  1.8915 -0.1972
   16MOL   H249 5079   5.164   6.462   1.056 -0.8967 -1.0954  0.9544
   16MOL   H250 5080   5.285   6.483   1.183  0.0679  2.5579 -1.8592
   16MOL   H251 5081   5.323   6.359   0.900  1.9165  1.2354 -1.3796
   16MOL   H252 5082   5.445   6.359   1.023 -0.0806 -0.8155  0.4912
   16MOL   H253 5083   5.502   6.566   0.883  2.3474  1.5629  2.9274
   16MOL   H254 5084   5.429   6.611   1.028  0.3571 -0.6661 -0.2809
   16MOL   H255 5085   5.324   6.604   0.886  1.4126  0.9989 -1.6234
   16MOL   H256 5086   5.353   6.222   1.438 -2.1565  1.0325  2.3344
   16MOL   H257 5087   5.251   6.357   1.388 -0.4638  0.5914 -0.3027
   16MOL   C258 5088   5.138   6.186   1.423  0.6625 -0.1690 -0.3916
   16MOL   O259 5089   5.125   6.215   1.565 -0.1575  0.0675 -0.2902
   16MOL   C260 5090   5.202   6.125   1.647 -0.4608  0.4045  0.0176
   16MOL   C261 5091   5.173   6.142   1.794 -0.7131  0.6635 -0.1331
   16MOL   C262 5092   5.024   6.160   1.823 -0.1919 -0.5353 -0.3199
   16MOL   C263 5093   5.019   6.239   1.344 -0.3584  0.5721  0.1220
   16MOL   H264 5094   5.140   6.077   1.417 -1.3415 -0.3642  1.5915
   16MOL   H265 5095   5.179   6.020   1.626  1.2494 -0.5702  2.8101
   16MOL   H266 5096   5.307   6.141   1.624  0.3131 -3.0814  0.8573
   16MOL   H267 5097   5.233   6.222   1.838  4.2625 -1.5389 -2.5370
   16MOL   H268 5098   5.209   6.056   1.851  0.2387  1.2570  0.1702
   16MOL   H269 5099   4.989   6.256   1.784  1.5672  0.8415  1.3940
   16MOL   H270 5100   5.004   6.172   1.929  1.0432 -4.2733  0.3915
   16MOL   H271 5101   4.965   6.074   1.791 -0.6424 -0.4848  0.3941
   16MOL   H272 5102   5.021   6.347   1.362  0.0893  0.3953  1.1948
   16MOL   H273 5103   5.030   6.229   1.236  4.1363 -0.8793  0.6108
   16MOL   C274 5104   4.884   6.186   1.382  0.2191  0.3167 -0.4419
   16MOL   O275 5105   4.794   6.244   1.285  0.8364 -0.0247  0.2004
   16MOL   C276 5106   4.727   6.365   1.322 -0.1087  0.3807 -0.3679
   16MOL   C277 5107   4.636   6.427   1.207 -0.3036  0.3463  0.4952
   16MOL   C278 5108   4.593   6.328   1.097  0.2875  0.1310  0.6238
   16MOL   C279 5109   4.865   6.036   1.366 -0.4329  0.8085  0.2261
   16MOL   H280 5110   4.859   6.204   1.486 -0.8147 -1.4546 -0.3636
   16MOL   H281 5111   4.658   6.324   1.395 -0.9904 -1.2556 -2.0576
   16MOL   H282 5112   4.790   6.445   1.362 -1.3928  0.9376  0.5493
   16MOL   H283 5113   4.689   6.498   1.143 -0.2690 -1.2062 -1.2362
   16MOL   H284 5114   4.548   6.479   1.245  0.8995  1.2515  2.1220
   16MOL   H285 5115   4.503   6.363   1.047  1.4759 -1.2833 -2.7191
   16MOL   H286 5116   4.570   6.232   1.144 -1.3632 -0.2646 -0.9191
   16MOL   H287 5117   4.665   6.302   1.019 -0.3118 -2.1376  0.7657
   16MOL   H288 5118   4.879   6.031   1.258 -1.5235  0.8020  0.0816
   16MOL   H289 5119   4.941   5.977   1.417  0.6961  0.7228 -1.5324
   16MOL   C290 5120   4.728   5.986   1.403  0.4282 -0.7827  0.6461
   16MOL   O291 5121   4.701   5.861   1.337 -0.1920  0.3149 -0.2137
   16MOL   C292 5122   4.598   5.866   1.235 -0.3624 -0.2663 -0.2635
   16MOL   C293 5123   4.580   5.727   1.178  0.0995 -0.1983 -0.0618
   16MOL   C294 5124   4.528   5.703   1.034 -0.3572  0.0569  0.7048
   16MOL   C295 5125   4.698   5.977   1.556 -0.6937 -0.6844  0.3145
   16MOL   H296 5126   4.665   6.065   1.363  2.4230 -0.1826 -1.4263
   16MOL   H297 5127   4.500   5.891   1.276  0.5194 -0.3399  1.9354
   16MOL   H298 5128   4.648   5.928   1.161 -2.1958  0.3950 -0.9721
   16MOL   H299 5129   4.530   5.664   1.251  1.4957  0.3301  1.3896
   16MOL   H300 5130   4.675   5.673   1.170 -0.1768 -0.9843  1.8238
   16MOL   H301 5131   4.555   5.601   1.007 -0.5804  0.2363 -0.1812
   16MOL   H302 5132   4.591   5.774   0.980  0.7443 -0.1998  1.6376
   16MOL   H303 5133   4.423   5.711   1.005 -0.0660 -0.5451 -0.5122
   16MOL   H304 5134   4.753   5.889   1.590 -0.8201 -0.1005  2.0777
   16MOL   H305 5135   4.740   6.063   1.609 -0.1248  0.1350 -1.4278
   16MOL   C306 5136   4.548   5.974   1.593 -0.8386  0.0459  0.0202
   16MOL   O307 5137   4.543   5.971   1.733  0.2382 -0.2927  0.7636
   16MOL   C308 5138   4.439   5.882   1.777  0.2858  0.7674  0.8693
   16MOL   C309 5139   4.396   5.915   1.917 -1.0746  0.0378  0.8030
   16MOL   C310 5140   4.302   5.813   1.970  0.0943  0.6352 -0.2071
   16MOL   C311 5141   4.473   6.101   1.549 -0.2360 -0.0824 -0.2012
   16MOL   H312 5142   4.501   5.887   1.547  0.9759 -0.7148 -0.4196
   16MOL   H313 5143   4.351   5.888   1.713  1.7474 -1.6459 -1.4807
   16MOL   H314 5144   4.469   5.778   1.767  0.4966  0.9529 -0.5492
   16MOL   H315 5145   4.349   6.014   1.921  0.0820  0.6458 -0.3880
   16MOL   H316 5146   4.473   5.922   1.993  0.9562  0.2425 -1.2241
   16MOL   H317 5147   4.350   5.715   1.975 -0.5349  0.3086 -0.6141
   16MOL   H318 5148   4.223   5.809   1.896  2.0822 -0.9722 -2.3081
   16MOL   H319 5149   4.253   5.831   2.066 -0.0844  1.0396 -0.3765
   16MOL   H320 5150   4.528   6.193   1.570  0.0450 -0.5898  1.3172
   16MOL   H321 5151   4.436   6.092   1.447 -0.1426  1.0887 -0.3490
   16MOL   H322 5152   4.379   6.105   1.603 -1.1937  0.9735 -1.8897
   17MOL     C1 5153   0.108   2.685   4.026 -0.1944  0.0764 -0.8896
   17MOL     O2 5154   7.804   2.639   4.008  0.2122 -0.5279 -0.1429
   17MOL     C3 5155   7.784   2.529   3.919 -0.5558  0.1374  0.9673
   17MOL     C4 5156   7.639   2.539   3.875  1.0406 -0.1179  0.0149
   17MOL     C5 5157   7.601   2.461   3.749  0.4371 -0.7612 -0.5379
   17MOL     C6 5158   0.131   2.757   4.164 -0.4215 -0.4168 -0.2402
   17MOL     H7 5159   0.122   2.753   3.942  0.0985 -0.6356 -1.4234
   17MOL     H8 5160   0.028   2.528   3.836 -0.0950 -1.1922  1.3622
   17MOL     H9 5161   7.816   2.436   3.966 -0.6995 -0.1515  0.4925
   17MOL    H10 5162   7.609   2.642   3.861 -1.1478 -0.8632 -0.9832
   17MOL    H11 5163   7.583   2.502   3.961  1.0284 -1.9584 -0.7433
   17MOL    H12 5164   7.497   2.474   3.717  0.5207  0.4081 -0.3357
   17MOL    H13 5165   7.605   2.356   3.780  0.0137 -1.3708 -2.4361
   17MOL    H14 5166   7.660   2.472   3.658  1.9756 -0.7988  0.4405
   17MOL    H15 5167   0.047   2.823   4.184 -1.2738 -1.3615 -0.6576
   17MOL    H16 5168   0.119   2.691   4.249  0.2765 -0.3183 -0.0630
   17MOL    H17 5169   0.188   2.612   4.017  1.9451  2.1335  0.6951
   17MOL    C18 5170   0.270   2.823   4.175  0.8018 -0.9978  0.1511
   17MOL    O19 5171   0.245   2.942   4.245 -0.7045  0.1411  0.1268
   17MOL    C20 5172   0.316   3.059   4.192  0.5993 -0.5619 -0.3178
   17MOL    C21 5173   0.234   3.192   4.205  0.6796 -0.1088  0.3928
   17MOL    C22 5174   0.103   3.165   4.121 -0.3707 -0.5001 -0.8229
   17MOL    C23 5175   0.375   2.727   4.256 -0.3565  0.2400 -0.1590
   17MOL    H24 5176   0.298   2.842   4.072 -0.0843  0.2655  0.1412
   17MOL    H25 5177   0.418   3.069   4.230  0.0290 -0.9209  1.3503
   17MOL    H26 5178   0.326   3.061   4.083  0.2829  0.8021 -0.3270
   17MOL    H27 5179   0.285   3.278   4.161 -0.6711  0.0825 -0.8105
   17MOL    H28 5180   0.227   3.204   4.313  0.0688  0.0675  0.3297
   17MOL    H29 5181   0.141   3.142   4.021  0.0711 -1.9358 -0.3251
   17MOL    H30 5182   0.039   3.252   4.107  0.7086  0.2689 -1.0731
   17MOL    H31 5183   0.055   3.073   4.153  1.5794 -1.9076 -1.9159
   17MOL    H32 5184   0.335   2.705   4.354 -1.0697 -0.2266 -0.5499
   17MOL    H33 5185   0.389   2.631   4.205 -1.2729 -0.5607  1.0822
   17MOL    C34 5186   0.509   2.788   4.277 -0.7013  0.2539 -0.5103
   17MOL    O35 5187   0.568   2.693   4.365 -0.0077 -0.4772 -0.6003
   17MOL    C36 5188   0.640   2.752   4.473 -0.1121 -0.7227 -0.2071
   17MOL    C37 5189   0.543   2.797   4.582  0.0528 -0.1691 -0.0486
   17MOL    C38 5190   0.616   2.844   4.703 -0.6108 -0.4475 -0.3278
   17MOL    C39 5191   0.586   2.789   4.152 -0.3393 -0.3417 -0.0403
   17MOL    H40 5192   0.503   2.889   4.317  1.6171  0.8624 -1.6403
   17MOL    H41 5193   0.712   2.685   4.519  1.2220  0.3630 -0.6672
   17MOL    H42 5194   0.707   2.829   4.434  0.1548 -0.3697  0.9362
   17MOL    H43 5195   0.472   2.718   4.605 -0.7406  0.7671  0.7491
   17MOL    H44 5196   0.478   2.878   4.550 -1.8086 -0.9153  1.7357
   17MOL    H45 5197   0.693   2.771   4.728 -0.7896 -0.7506 -0.6606
   17MOL    H46 5198   0.537   2.850   4.778 -0.2882 -1.6413  0.1177
   17MOL    H47 5199   0.665   2.941   4.696 -1.5699 -0.0794 -2.6226
   17MOL    H48 5200   0.595   2.687   4.115 -0.5827 -1.2454  2.3434
   17MOL    H49 5201   0.518   2.829   4.076  1.0424  0.0267 -1.1068
   17MOL    C50 5202   0.722   2.860   4.159  0.2254 -0.8020  0.0878
   17MOL    O51 5203   0.810   2.760   4.200 -0.8396  0.2857 -0.5971
   17MOL    C52 5204   0.937   2.801   4.257 -0.3311  0.1369  0.2070
   17MOL    C53 5205   1.002   2.666   4.306 -0.5622  0.3351 -0.3491
   17MOL    C54 5206   1.007   2.560   4.193 -0.0996 -0.3284 -0.2692
   17MOL    C55 5207   0.760   2.889   4.009 -0.6007 -0.1868 -0.5225
   17MOL    H56 5208   0.731   2.939   4.233  0.4861  0.9262 -1.7174
   17MOL    H57 5209   0.995   2.858   4.185  0.0064  1.3239  1.4104
   17MOL    H58 5210   0.920   2.873   4.337  2.6141  1.4148 -0.2523
   17MOL    H59 5211   0.958   2.620   4.394 -1.1011 -0.6385 -1.1218
   17MOL    H60 5212   1.100   2.686   4.347 -0.6124 -0.1196 -0.0132
   17MOL    H61 5213   1.061   2.600   4.107 -0.4164  0.1132 -0.2615
   17MOL    H62 5214   0.909   2.533   4.154  0.5637 -1.8254 -0.9460
   17MOL    H63 5215   1.042   2.464   4.232  0.6217 -1.3178 -3.1758
   17MOL    H64 5216   0.863   2.864   3.984 -0.3315  1.8165 -1.5348
   17MOL    H65 5217   0.705   2.815   3.950 -1.4359  1.0341 -1.3376
   17MOL    C66 5218   0.720   3.037   3.971 -0.1015 -0.8825 -0.6399
   17MOL    O67 5219   0.775   3.128   4.073  0.1956  0.2909 -0.4414
   17MOL    C68 5220   0.704   3.252   4.100  0.0772  0.2800  0.0512
   17MOL    C69 5221   0.777   3.320   4.217  0.8474 -0.1704  0.4311
   17MOL    C70 5222   0.926   3.331   4.211 -0.7024 -0.4086  0.0860
   17MOL    C71 5223   0.753   3.068   3.824 -0.2209  0.5972  0.4096
   17MOL    H72 5224   0.611   3.037   3.975 -0.0665  2.0318  1.9119
   17MOL    H73 5225   0.714   3.313   4.010 -0.1029 -1.8730 -1.4357
   17MOL    H74 5226   0.601   3.230   4.128 -0.5135  2.9401  0.1013
   17MOL    H75 5227   0.756   3.277   4.315  2.3690 -3.1181 -0.4766
   17MOL    H76 5228   0.734   3.420   4.216  0.1742 -0.4079  2.4937
   17MOL    H77 5229   0.951   3.406   4.285 -1.8228 -0.0370  0.1034
   17MOL    H78 5230   0.959   3.363   4.112 -2.1048 -0.9998 -0.5866
   17MOL    H79 5231   0.988   3.243   4.224  1.1175  1.0080  1.1670
   17MOL    H80 5232   0.861   3.079   3.817 -0.5790  2.6643 -3.3608
   17MOL    H81 5233   0.723   2.979   3.770 -1.5394  1.2556  0.0308
   17MOL    C82 5234   0.680   3.188   3.757 -0.2506 -0.3662 -0.2876
   17MOL    O83 5235   0.710   3.210   3.615  0.2408  0.4000 -0.0685
   17MOL    C84 5236   0.847   3.245   3.583 -0.1449 -0.0379 -0.0595
   17MOL    C85 5237   0.861   3.255   3.435 -0.5058  0.4228  0.7212
   17MOL    C86 5238   0.783   3.357   3.367  0.0519 -0.1099  0.2916
   17MOL    C87 5239   0.527   3.211   3.781 -0.4136  0.2153  0.2047
   17MOL    H88 5240   0.732   3.266   3.812 -1.2595  2.3549 -3.0279
   17MOL    H89 5241   0.864   3.338   3.637 -1.4077 -0.2702  0.7612
   17MOL    H90 5242   0.914   3.164   3.612  0.2393 -0.2973 -1.5830
   17MOL    H91 5243   0.841   3.163   3.381 -3.0406  1.5860 -0.3941
   17MOL    H92 5244   0.967   3.281   3.427 -0.8284  2.2802  2.0953
   17MOL    H93 5245   0.790   3.462   3.395  1.9142 -0.3798  0.9639
   17MOL    H94 5246   0.677   3.333   3.362  0.7138 -3.0785 -0.7038
   17MOL    H95 5247   0.814   3.358   3.262 -0.1716  1.9329  0.2403
   17MOL    H96 5248   0.505   3.214   3.887 -0.2653 -0.3871  0.2546
   17MOL    H97 5249   0.500   3.310   3.745 -0.7429  0.0686  0.0460
   17MOL    C98 5250   0.440   3.104   3.722 -0.2491  0.1940  0.3018
   17MOL    O99 5251   0.439   2.971   3.783  0.2655 -0.0342  0.2824
   17MOL   C100 5252   0.460   2.864   3.693 -0.6118  0.5675 -0.1549
   17MOL   C101 5253   0.343   2.827   3.601 -0.1577  0.0242  0.5921
   17MOL   C102 5254   0.229   2.754   3.676  0.0056  0.5292  0.0361
   17MOL   C103 5255   0.296   3.149   3.722  0.6003  0.2994  0.0987
   17MOL   H104 5256   0.485   3.091   3.624  0.4597  0.8040  0.5460
   17MOL   H105 5257   0.551   2.868   3.632 -1.2686 -1.1202 -1.2906
   17MOL   H106 5258   0.494   2.778   3.750 -0.6529 -0.5881 -1.8205
   17MOL   H107 5259   0.375   2.749   3.531  2.8339 -0.5764  2.5391
   17MOL   H108 5260   0.321   2.907   3.530  0.1029  0.5062  1.0560
   17MOL   H109 5261   0.261   2.671   3.739 -1.3367  0.1885  0.2808
   17MOL   H110 5262   0.151   2.716   3.609 -1.3402  0.5360  1.5505
   17MOL   H111 5263   0.184   2.825   3.745 -0.9511 -0.4405  0.4324
   17MOL   H112 5264   0.238   3.063   3.689 -0.0937 -0.1454  2.4221
   17MOL   H113 5265   0.260   3.180   3.820  4.1628 -1.3288  2.0505
   17MOL   C114 5266   0.262   3.252   3.610  0.6916 -0.2333 -0.0240
   17MOL   O115 5267   0.290   3.195   3.483  0.1157 -0.1699  0.4282
   17MOL   C116 5268   0.359   3.280   3.382  0.8611 -0.1868  0.4894
   17MOL   C117 5269   0.396   3.192   3.257  0.5076 -0.0404  0.3365
   17MOL   C118 5270   0.490   3.073   3.297 -0.4048 -0.2143  0.2585
   17MOL   C119 5271   0.119   3.293   3.620  0.8544  0.3957  0.4851
   17MOL   H120 5272   0.322   3.343   3.609 -0.4326  0.5908 -4.0114
   17MOL   H121 5273   0.299   3.360   3.339  1.1588 -0.3270 -0.1936
   17MOL   H122 5274   0.448   3.322   3.429  1.2291  1.0162 -1.2514
   17MOL   H123 5275   0.451   3.260   3.193 -3.5710  1.3527 -1.8664
   17MOL   H124 5276   0.315   3.158   3.193  0.0662  2.3458 -0.4175
   17MOL   H125 5277   0.567   3.107   3.367 -0.5612 -1.0548  0.8511
   17MOL   H126 5278   0.542   3.044   3.206 -1.4435  5.4175 -2.4015
   17MOL   H127 5279   0.440   2.987   3.340 -3.8941  1.5310 -0.1661
   17MOL   H128 5280   0.096   3.363   3.540  1.2274 -1.1413 -0.9858
   17MOL   H129 5281   0.058   3.206   3.598 -1.4220  2.4465 -1.6455
   17MOL   C130 5282   0.074   3.350   3.762  0.0048 -0.6278  0.0045
   17MOL   O131 5283   0.178   3.443   3.787 -0.0764  0.3632  0.6893
   17MOL   C132 5284   0.193   3.479   3.920 -0.5191 -0.5872  0.0620
   17MOL   C133 5285   0.338   3.524   3.945  0.2619  0.1887  0.3098
   17MOL   C134 5286   0.377   3.620   3.836 -0.4809 -0.3724  0.4371
   17MOL   C135 5287   7.765   3.424   3.745  0.0418  0.2331 -0.0459
   17MOL   H136 5288   0.069   3.276   3.842  2.9975 -0.8413  0.0306
   17MOL   H137 5289   0.116   3.546   3.957  0.7264 -0.0503  1.7450
   17MOL   H138 5290   0.173   3.392   3.983  0.5740 -0.1290  1.0525
   17MOL   H139 5291   0.411   3.444   3.945  0.9101  0.7776  0.0673
   17MOL   H140 5292   0.341   3.575   4.042 -1.9596 -0.4571  0.7554
   17MOL   H141 5293   0.318   3.711   3.837  0.5900  0.3238  1.5913
   17MOL   H142 5294   0.395   3.564   3.745 -3.9985  0.8692 -1.1087
   17MOL   H143 5295   0.478   3.660   3.841  0.0808 -1.7616  0.7106
   17MOL   H144 5296   7.742   3.469   3.841  1.9687  0.6021  0.2581
   17MOL   H145 5297   7.784   3.506   3.674 -0.4853  1.5054  1.2635
   17MOL   C146 5298   7.642   3.336   3.692 -0.3292  0.1237 -0.2604
   17MOL   O147 5299   7.632   3.222   3.776 -0.4595 -0.4612  0.4113
   17MOL   C148 5300   7.554   3.111   3.728  0.2162 -0.5224  0.2058
   17MOL   C149 5301   7.617   2.985   3.785  0.5689  0.1354  0.5619
   17MOL   C150 5302   7.764   2.963   3.740 -0.1281 -0.5769 -0.1545
   17MOL   C151 5303   7.496   3.404   3.685  0.0568 -0.5923 -0.0408
   17MOL   H152 5304   7.674   3.302   3.594 -1.4607  1.6937 -1.2065
   17MOL   H153 5305   7.448   3.126   3.748  0.4256 -1.5499  2.2221
   17MOL   H154 5306   7.555   3.101   3.619 -3.4984  0.9485 -0.0502
   17MOL   H155 5307   7.565   2.896   3.751  1.0077 -0.5311  1.6151
   17MOL   H156 5308   7.601   3.002   3.891 -0.8560  1.4075  0.1661
   17MOL   H157 5309   7.796   2.868   3.783  0.9605  0.6180  1.6899
   17MOL   H158 5310   7.821   3.043   3.787 -0.0731 -1.2109  0.8702
   17MOL   H159 5311   7.778   2.968   3.632  0.0181 -0.9009 -0.1529
   17MOL   H160 5312   7.425   3.327   3.655 -1.3572  0.9255 -0.6711
   17MOL   H161 5313   7.466   3.423   3.787  0.0475 -0.4066 -0.0791
   17MOL   C162 5314   7.485   3.532   3.595  0.5678 -0.2241  0.0621
   17MOL   O163 5315   7.566   3.643   3.644 -0.5087 -0.4588  0.2170
   17MOL   C164 5316   7.543   3.691   3.776 -0.2658 -0.7166 -0.5095
   17MOL   C165 5317   7.617   3.823   3.780  0.5158 -0.2465 -0.4017
   17MOL   C166 5318   7.768   3.818   3.769  0.3934  0.6552 -1.0850
   17MOL   C167 5319   7.532   3.510   3.451 -0.2592 -0.0042  0.3730
   17MOL   H168 5320   7.380   3.562   3.591  1.2880  2.7957  2.4729
   17MOL   H169 5321   7.435   3.696   3.787 -0.2082 -1.8276  0.7581
   17MOL   H170 5322   7.585   3.627   3.854  1.9145  1.1368 -0.1173
   17MOL   H171 5323   7.594   3.858   3.880  0.7821 -1.6421  0.1660
   17MOL   H172 5324   7.570   3.894   3.711 -1.3718  0.2932  1.3925
   17MOL   H173 5325   7.816   3.761   3.848  0.5367  1.5843 -0.4882
   17MOL   H174 5326   7.813   3.917   3.775 -0.5094  0.9739  0.9224
   17MOL   H175 5327   7.800   3.770   3.677 -1.3836 -0.7814 -0.9744
   17MOL   H176 5328   7.498   3.603   3.406 -0.7591 -1.0539 -1.4493
   17MOL   H177 5329   7.641   3.501   3.451 -0.3179 -0.7964  0.2185
   17MOL   C178 5330   7.475   3.399   3.369 -0.1967  0.3397  0.5966
   17MOL   O179 5331   7.331   3.402   3.373  0.1706  0.1696 -0.3641
   17MOL   C180 5332   7.274   3.275   3.376  0.3663 -0.6580  0.1713
   17MOL   C181 5333   7.116   3.297   3.369 -0.1601  0.1249 -0.0812
   17MOL   C182 5334   7.041   3.165   3.394  0.2416  0.3930  0.1373
   17MOL   C183 5335   7.538   3.391   3.224 -0.0512 -0.2435 -0.0143
   17MOL   H184 5336   7.510   3.309   3.420  0.6417  0.6473  0.5703
   17MOL   H185 5337   7.302   3.207   3.295  2.1212  1.4644 -1.0754
   17MOL   H186 5338   7.290   3.233   3.475 -0.3400 -1.4375 -0.0344
   17MOL   H187 5339   7.083   3.345   3.276 -2.6422  0.2558  0.8140
   17MOL   H188 5340   7.079   3.359   3.450 -1.1963 -2.5346  1.5283
   17MOL   H189 5341   6.936   3.183   3.418 -0.3909 -0.3935 -1.9164
   17MOL   H190 5342   7.075   3.092   3.467  1.2050  0.1476 -0.5485
   17MOL   H191 5343   7.027   3.108   3.302  0.7489 -0.4072  0.5461
   17MOL   H192 5344   7.482   3.340   3.146 -1.1865  0.3343  0.4081
   17MOL   H193 5345   7.552   3.496   3.194 -2.8971 -0.0308 -0.7075
   17MOL   C194 5346   7.677   3.320   3.239 -0.1816 -0.6731  0.9733
   17MOL   O195 5347   7.636   3.179   3.238  0.2083  0.1681  0.4488
   17MOL   C196 5348   7.729   3.103   3.313  0.0539 -0.7214  0.1923
   17MOL   C197 5349   7.700   2.953   3.305 -0.1240 -0.2597 -0.0675
   17MOL   C198 5350   7.770   2.891   3.187  0.0822  0.7417 -0.1803
   17MOL   C199 5351   7.746   3.346   3.102 -0.4033  0.1960  0.4598
   17MOL   H200 5352   7.737   3.352   3.324 -0.7316  2.2444  0.3208
   17MOL   H201 5353   7.823   3.113   3.260  0.6466  1.4176  1.5735
   17MOL   H202 5354   7.738   3.141   3.415 -0.9394  1.3115 -0.4569
   17MOL   H203 5355   7.592   2.946   3.309  0.0297 -2.0444  1.5965
   17MOL   H204 5356   7.743   2.912   3.397 -1.9822 -0.1073  0.8908
   17MOL   H205 5357   7.708   2.912   3.100 -0.9499 -0.9878  0.1209
   17MOL   H206 5358   7.770   2.782   3.185 -0.4413  0.7365  0.0178
   17MOL   H207 5359   0.041   2.933   3.166  0.7860 -0.4915  0.5659
   17MOL   H208 5360   0.003   3.277   3.098 -1.2759 -0.8744  0.2377
   17MOL   H209 5361   7.675   3.310   3.027  0.0314 -0.3697  0.3105
   17MOL   C210 5362   7.800   3.490   3.078 -0.4222 -0.3009  1.3038
   17MOL   O211 5363   0.087   3.510   3.150 -0.0860 -0.2363  0.4340
   17MOL   C212 5364   0.124   3.644   3.175  0.3961  0.0002 -0.7458
   17MOL   C213 5365   0.232   3.653   3.283 -0.0462  0.5687 -0.1943
   17MOL   C214 5366   0.178   3.613   3.423 -0.3556  0.0159 -0.3454
   17MOL   C215 5367   7.812   3.526   2.923 -0.2070  0.3721  0.1803
   17MOL   H216 5368   7.733   3.562   3.125 -2.3534 -0.5059 -1.0782
   17MOL   H217 5369   0.157   3.690   3.081  1.2126  0.0608 -0.4307
   17MOL   H218 5370   0.045   3.712   3.208  0.2107 -0.1320 -0.9155
   17MOL   H219 5371   0.289   3.745   3.297  0.1943  0.2748  0.7748
   17MOL   H220 5372   0.299   3.568   3.266 -0.9095 -0.4139  1.2031
   17MOL   H221 5373   0.262   3.566   3.474 -1.1045  0.1383  1.0272
   17MOL   H222 5374   0.099   3.538   3.420  2.5631 -3.3723  2.3932
   17MOL   H223 5375   0.125   3.697   3.468 -1.4951 -0.4344 -0.8578
   17MOL   H224 5376   7.717   3.521   2.872  0.3717  2.4539 -1.1628
   17MOL   H225 5377   0.004   3.633   2.919  1.3523  0.2503  3.1297
   17MOL   C226 5378   0.088   3.441   2.850  1.1094 -0.0324  0.3215
   17MOL   O227 5379   0.049   3.304   2.842  0.4207  0.8127 -0.1854
   17MOL   C228 5380   0.162   3.210   2.860 -1.1636  0.1264  0.6377
   17MOL   C229 5381   0.118   3.057   2.870 -0.2419 -0.3864  0.0952
   17MOL   C230 5382   0.244   2.964   2.884 -0.3317  0.0564 -0.3529
   17MOL   C231 5383   0.119   3.488   2.697  0.5928  1.0627 -0.0317
   17MOL   H232 5384   0.183   3.453   2.901  2.0777 -1.7113 -1.0254
   17MOL   H233 5385   0.235   3.213   2.779  0.2859 -1.2538  1.8401
   17MOL   H234 5386   0.209   3.219   2.958 -0.8638 -0.3241  0.5358
   17MOL   H235 5387   0.067   3.031   2.777 -1.5811 -1.2598  1.0521
   17MOL   H236 5388   0.044   3.036   2.947  1.0612  0.6269  1.6637
   17MOL   H237 5389   0.311   2.989   2.801  0.6985 -0.6639  0.2583
   17MOL   H238 5390   0.229   2.858   2.865  0.0848 -0.3835  1.6421
   17MOL   H239 5391   0.299   2.968   2.978  0.3253  0.8948 -0.7607
   17MOL   H240 5392   0.205   3.427   2.670  0.1334  1.2885 -2.1217
   17MOL   H241 5393   0.033   3.461   2.635  1.5894 -0.8872 -0.6170
   17MOL   C242 5394   0.142   3.641   2.672 -0.1574  0.1563 -0.8150
   17MOL   O243 5395   0.258   3.668   2.738 -0.3727 -0.4060 -0.8754
   17MOL   C244 5396   0.264   3.786   2.806 -0.4183  0.0677 -0.0667
   17MOL   C245 5397   0.399   3.794   2.893 -0.7511 -0.3167  0.2563
   17MOL   C246 5398   0.394   3.913   2.988  0.2551 -0.4868 -0.2075
   17MOL   C247 5399   0.166   3.674   2.528  0.2599 -0.6566 -0.0686
   17MOL   H248 5400   0.056   3.692   2.715  0.0804 -0.5591  0.5533
   17MOL   H249 5401   0.254   3.869   2.736 -0.5514 -0.2855 -0.4726
   17MOL   H250 5402   0.174   3.795   2.867 -0.6163 -0.0999 -0.3339
   17MOL   H251 5403   0.486   3.800   2.827  1.2447 -1.1507  2.7559
   17MOL   H252 5404   0.431   3.706   2.948  0.2065 -2.3258 -3.3567
   17MOL   H253 5405   0.361   3.997   2.927  2.1779 -0.9224 -1.8781
   17MOL   H254 5406   0.495   3.930   3.024 -0.5634  1.2625  1.3917
   17MOL   H255 5407   0.324   3.896   3.071  0.7856  0.2669  0.4052
   17MOL   H256 5408   0.264   3.630   2.510 -0.0648 -0.5217 -2.3900
   17MOL   H257 5409   0.087   3.618   2.478 -0.8358  0.9935 -0.2411
   17MOL   C258 5410   0.161   3.822   2.488  0.1883  0.1340 -0.1237
   17MOL   O259 5411   0.199   3.812   2.349  0.1340 -0.2253  0.4275
   17MOL   C260 5412   0.335   3.802   2.316 -0.9391  0.2425  0.5857
   17MOL   C261 5413   0.355   3.796   2.166 -0.7278 -0.4985 -0.2245
   17MOL   C262 5414   0.500   3.794   2.113  0.2106 -0.0082  0.2298
   17MOL   C263 5415   0.020   3.885   2.495  1.1780 -0.7961  0.3245
   17MOL   H264 5416   0.231   3.881   2.548 -1.0870 -0.5311  2.0679
   17MOL   H265 5417   0.391   3.888   2.354  0.7270 -0.5677  0.0461
   17MOL   H266 5418   0.374   3.707   2.353 -0.7946 -0.0354 -0.2662
   17MOL   H267 5419   0.304   3.887   2.134 -0.3044  0.1534  0.8955
   17MOL   H268 5420   0.304   3.706   2.133  0.1356 -0.8291 -0.6837
   17MOL   H269 5421   0.532   3.692   2.135 -1.2626 -0.9712 -1.9067
   17MOL   H270 5422   0.561   3.863   2.171  0.3186  0.5605 -0.5406
   17MOL   H271 5423   0.517   3.814   2.007  3.7699  0.3248  0.8129
   17MOL   H272 5424   7.783   3.818   2.438 -3.3014  2.2416  1.5450
   17MOL   H273 5425   7.809   3.879   2.597  0.9620 -1.6562  0.1985
   17MOL   C274 5426   0.008   4.030   2.441  0.0286 -0.8121 -0.3477
   17MOL   O275 5427   7.703   4.049   2.393  0.3103 -0.2507  0.3534
   17MOL   C276 5428   7.676   4.004   2.259 -0.2134  0.1672  0.3812
   17MOL   C277 5429   7.525   3.996   2.245 -0.0028  0.0832 -0.9579
   17MOL   C278 5430   7.464   3.909   2.358  0.0030  0.9723  0.0019
   17MOL   C279 5431   0.031   4.126   2.556 -0.5264  0.6229  0.3134
   17MOL   H280 5432   0.078   4.061   2.364  0.4628 -0.4268  0.1968
   17MOL   H281 5433   7.718   4.077   2.191 -0.4057  0.0513  0.1384
   17MOL   H282 5434   7.727   3.910   2.240  0.1430  0.6776 -1.2192
   17MOL   H283 5435   7.513   3.944   2.150 -1.5728  3.4876 -2.7196
   17MOL   H284 5436   7.488   4.098   2.231  0.2113  0.3973  0.6714
   17MOL   H285 5437   7.449   3.806   2.325  0.7421  0.5745  0.8898
   17MOL   H286 5438   7.364   3.944   2.381  0.0347  0.3611  1.1017
   17MOL   H287 5439   7.518   3.918   2.452 -1.1509 -0.1880  0.7802
   17MOL   H288 5440   7.780   4.104   2.628 -1.3331  1.7321 -0.2147
   17MOL   H289 5441   0.120   4.096   2.611 -1.2409 -1.4617  0.3751
   17MOL   C290 5442   0.014   4.274   2.527  0.3320 -0.4415  0.4989
   17MOL   O291 5443   0.037   4.334   2.663  0.4529 -0.1826 -0.1455
   17MOL   C292 5444   7.822   4.467   2.681 -0.3917  0.1090  0.3708
   17MOL   C293 5445   7.682   4.514   2.643  0.1659 -0.1990  0.0345
   17MOL   C294 5446   7.562   4.445   2.711 -0.1767 -0.4113  0.1433
   17MOL   C295 5447   0.128   4.332   2.431 -0.5257 -0.6544  0.4590
   17MOL   H296 5448   7.738   4.293   2.500  0.6433  0.3772 -0.1205
   17MOL   H297 5449   0.007   4.491   2.787 -0.1062 -0.0380  0.3680
   17MOL   H298 5450   0.060   4.539   2.633 -0.0366 -0.5374 -0.1052
   17MOL   H299 5451   7.685   4.504   2.534 -0.0961 -1.6829  0.1605
   17MOL   H300 5452   7.669   4.621   2.658  0.4622 -0.1597  0.0253
   17MOL   H301 5453   7.559   4.339   2.684  2.9573 -0.5447  0.0291
   17MOL   H302 5454   7.473   4.493   2.672  0.7395 -0.4701 -2.1352
   17MOL   H303 5455   7.556   4.449   2.819 -0.1087 -0.6221  0.1544
   17MOL   H304 5456   0.216   4.366   2.486  1.2237 -2.2690 -1.2229
   17MOL   H305 5457   0.169   4.251   2.370  0.0405  0.3021 -0.4386
   17MOL   C306 5458   0.086   4.450   2.345  0.5168 -0.2242 -0.7290
   17MOL   O307 5459   0.204   4.498   2.287  0.2822  0.9463  0.9986
   17MOL   C308 5460   0.236   4.623   2.338 -0.1872  0.1940  0.9512
   17MOL   C309 5461   0.328   4.699   2.252 -0.5559  0.3572  0.2771
   17MOL   C310 5462   0.283   4.700   2.107 -0.3122 -0.5183  0.0385
   17MOL   C311 5463   7.819   4.412   2.236 -0.7601  0.1293 -0.5191
   17MOL   H312 5464   0.031   4.519   2.409 -0.7074  2.4793 -4.5444
   17MOL   H313 5465   0.157   4.695   2.357 -0.5627 -0.4567  1.8907
   17MOL   H314 5466   0.281   4.612   2.437 -2.5714  0.3894  2.0944
   17MOL   H315 5467   0.431   4.663   2.248 -0.4800  0.5387  0.5611
   17MOL   H316 5468   0.349   4.800   2.288  1.5502  0.8700 -2.2351
   17MOL   H317 5469   0.194   4.761   2.091  0.7900  1.0172 -0.3701
   17MOL   H318 5470   0.264   4.600   2.068 -1.3234 -1.4752  2.8650
   17MOL   H319 5471   0.352   4.757   2.045  0.0621  1.3087  2.0884
   17MOL   H320 5472   0.049   4.348   2.170 -1.1453 -1.6019  0.7874
   17MOL   H321 5473   7.732   4.359   2.274 -1.0906  0.0617 -1.3581
   17MOL   H322 5474   7.779   4.495   2.177 -0.2725  0.8290  0.1168
   18MOL     C1 5475   0.386   7.693   2.949 -0.1258 -0.2694 -0.5513
   18MOL     O2 5476   0.379   7.691   2.806 -0.3539  0.7769  0.0308
   18MOL     C3 5477   0.343   7.568   2.743  0.3213  0.0983 -0.6278
   18MOL     C4 5478   0.334   7.588   2.595 -0.7136  0.6729  0.3022
   18MOL     C5 5479   0.282   7.453   2.538  0.3118  0.1286 -0.5657
   18MOL     C6 5480   0.447   7.826   2.995  0.0777 -0.6087  0.9302
   18MOL     H7 5481   0.444   7.608   2.986  0.2821 -0.0002 -0.5768
   18MOL     H8 5482   0.422   7.496   2.765  0.8756  0.5363 -1.1572
   18MOL     H9 5483   0.258   7.512   2.783  0.1163 -0.0947 -1.3235
   18MOL    H10 5484   0.436   7.600   2.558 -1.7147  0.3445 -2.7496
   18MOL    H11 5485   0.270   7.672   2.567 -0.2942  0.7140 -0.5371
   18MOL    H12 5486   0.338   7.365   2.566 -3.6881 -1.8967  1.5146
   18MOL    H13 5487   0.272   7.462   2.429 -2.3851  1.7358 -0.2575
   18MOL    H14 5488   0.178   7.435   2.566 -0.1536  1.2051 -1.5538
   18MOL    H15 5489   0.464   7.822   3.102  0.0684 -1.6465  0.8960
   18MOL    H16 5490   0.544   0.006   2.946  0.1537 -2.1952  0.8034
   18MOL    H17 5491   0.283   7.673   2.979  0.0148  2.3737  1.8252
   18MOL    C18 5492   0.368   0.126   2.962  0.1222 -0.0806  0.0976
   18MOL    O19 5493   0.259   0.130   3.055 -0.3508  0.0068 -0.8270
   18MOL    C20 5494   0.146   0.168   2.991  0.3927  1.1254  0.3518
   18MOL    C21 5495   0.064   0.195   3.111  0.1832  0.0158 -0.2469
   18MOL    C22 5496   7.743   0.192   3.088  0.3985  0.3341  0.4396
   18MOL    C23 5497   0.453   0.258   2.978 -0.1573 -0.8124  0.1073
   18MOL    H24 5498   0.328   0.108   2.862  1.3479 -2.4642  0.0008
   18MOL    H25 5499   0.152   0.263   2.938  0.3665 -0.7215 -3.0744
   18MOL    H26 5500   0.100   0.090   2.930  0.4532  2.3820 -1.3328
   18MOL    H27 5501   0.093   0.293   3.148 -0.9086  0.3484 -0.2521
   18MOL    H28 5502   0.078   0.113   3.181 -1.1308  0.6207  0.7499
   18MOL    H29 5503   7.686   0.197   3.181  1.0012 -0.9801  0.8838
   18MOL    H30 5504   7.716   0.099   3.038  1.8907  1.1994 -2.0544
   18MOL    H31 5505   7.703   0.263   3.016  0.2307  1.0047  1.1823
   18MOL    H32 5506   0.510   0.263   2.885 -1.7677 -1.5813 -0.9597
   18MOL    H33 5507   0.386   0.344   2.973 -1.4685 -1.7607  1.1656
   18MOL    C34 5508   0.524   0.275   3.119 -0.1735 -0.0030 -0.2818
   18MOL    O35 5509   0.629   0.184   3.119 -0.3926  0.2279  0.3793
   18MOL    C36 5510   0.665   0.142   3.245 -0.0815  0.0043 -1.0852
   18MOL    C37 5511   0.793   0.057   3.230 -0.3456 -0.1230 -0.4856
   18MOL    C38 5512   0.875   0.006   3.353  0.4138 -0.2147  0.0098
   18MOL    C39 5513   0.582   0.420   3.142  0.3052 -0.0121 -0.7317
   18MOL    H40 5514   0.460   0.246   3.202 -0.2734  0.0018 -0.3575
   18MOL    H41 5515   0.680   0.229   3.309 -1.4339  0.4817 -1.4036
   18MOL    H42 5516   0.588   0.079   3.289 -0.2870 -0.4677 -2.1075
   18MOL    H43 5517   0.871   0.109   3.174 -0.8287  1.5748  0.3778
   18MOL    H44 5518   0.758   7.795   3.179  0.7214 -0.0152 -1.4292
   18MOL    H45 5519   0.820   7.769   3.421 -0.5902  0.9337  0.3088
   18MOL    H46 5520   0.903   0.087   3.420  0.1754 -0.0415 -0.1019
   18MOL    H47 5521   0.966   7.779   3.328 -0.9536 -2.3812 -0.4247
   18MOL    H48 5522   0.504   0.495   3.131  0.0280  0.1088  1.8566
   18MOL    H49 5523   0.613   0.418   3.246 -0.0898  0.2554 -0.6105
   18MOL    C50 5524   0.713   0.464   3.060 -0.1430 -1.0379 -0.3717
   18MOL    O51 5525   0.676   0.472   2.926 -0.0073  0.3395 -0.1354
   18MOL    C52 5526   0.765   0.404   2.839 -0.2701  0.0629  0.1133
   18MOL    C53 5527   0.758   0.474   2.700 -0.8130  0.2237 -0.4287
   18MOL    C54 5528   0.809   0.618   2.692 -0.4013  0.3406 -0.3146
   18MOL    C55 5529   0.776   0.603   3.099 -0.2942 -0.5906 -0.0775
   18MOL    H56 5530   0.790   0.389   3.081 -1.8391 -2.2531  1.7019
   18MOL    H57 5531   0.863   0.402   2.888 -0.6751 -0.6959  0.8885
   18MOL    H58 5532   0.733   0.300   2.831 -2.3899  0.5517  1.7119
   18MOL    H59 5533   0.657   0.460   2.662 -0.3255  0.5626 -1.8694
   18MOL    H60 5534   0.817   0.410   2.634  0.9453  0.5908  0.7590
   18MOL    H61 5535   0.909   0.622   2.737 -0.7524  1.3001  0.4081
   18MOL    H62 5536   0.756   0.696   2.748 -1.8804 -1.8064  1.3247
   18MOL    H63 5537   0.817   0.645   2.587 -0.0366 -2.1246 -0.9419
   18MOL    H64 5538   0.737   0.683   3.036  1.2744  0.0725 -0.2085
   18MOL    H65 5539   0.748   0.622   3.202  0.4428 -1.8504  0.3686
   18MOL    C66 5540   0.927   0.626   3.106  0.9384  0.9505  0.0763
   18MOL    O67 5541   0.953   0.770   3.129 -0.6149 -0.2628  0.8451
   18MOL    C68 5542   0.930   0.866   3.028  0.3807  0.0535  1.1061
   18MOL    C69 5543   1.027   0.985   3.049 -0.2407  0.0501 -0.1337
   18MOL    C70 5544   0.998   1.063   3.177 -0.0749 -0.1724 -0.5285
   18MOL    C71 5545   0.995   0.542   3.211 -0.1430  0.1068 -1.5322
   18MOL    H72 5546   0.966   0.608   3.005  0.8227  1.9089 -0.1446
   18MOL    H73 5547   0.964   0.823   2.934 -0.6596  0.8676  0.3455
   18MOL    H74 5548   0.831   0.909   3.019 -0.1353 -0.9792  1.7212
   18MOL    H75 5549   1.030   1.048   2.961 -0.2334 -3.5159 -2.8004
   18MOL    H76 5550   1.128   0.944   3.048  0.7807  2.4879 -1.6760
   18MOL    H77 5551   0.900   1.110   3.181  0.2973  0.7000 -1.5433
   18MOL    H78 5552   1.067   1.146   3.192 -0.5424  0.0474  0.4713
   18MOL    H79 5553   1.011   1.005   3.269  2.3605 -1.0022 -1.3569
   18MOL    H80 5554   0.977   0.595   3.305  3.9240 -0.3952 -0.3625
   18MOL    H81 5555   0.944   0.448   3.233 -1.4345  1.1975  0.2936
   18MOL    C82 5556   1.146   0.516   3.193  0.2084  0.4009 -0.1729
   18MOL    O83 5557   1.155   0.431   3.082 -0.7190  1.0804 -0.2386
   18MOL    C84 5558   1.148   0.296   3.121  0.9278 -0.4143 -0.4859
   18MOL    C85 5559   1.160   0.221   3.001  0.3274 -0.0935  0.4735
   18MOL    C86 5560   1.178   0.074   3.015  0.0147 -0.5787 -0.0349
   18MOL    C87 5561   1.221   0.646   3.163  0.2619  0.2865  0.1943
   18MOL    H88 5562   1.179   0.480   3.290  2.9641  2.7073 -0.1998
   18MOL    H89 5563   1.237   0.282   3.182  1.1084  2.8146  0.0902
   18MOL    H90 5564   1.063   0.271   3.185  1.8448  0.1818  0.9888
   18MOL    H91 5565   1.243   0.259   2.942  0.9061  1.6657  2.3845
   18MOL    H92 5566   1.068   0.243   2.947  0.0216 -0.4459  0.8477
   18MOL    H93 5567   1.249   0.037   3.090  0.8091 -1.9003 -1.3917
   18MOL    H94 5568   1.201   0.029   2.918 -1.6322  4.5617 -3.0078
   18MOL    H95 5569   1.079   0.045   3.048  0.4959 -2.7008 -0.3565
   18MOL    H96 5570   1.192   0.685   3.065  3.5722  1.9144 -0.2134
   18MOL    H97 5571   1.190   0.724   3.232  1.7846  1.0539  0.0418
   18MOL    C98 5572   1.375   0.624   3.163  0.3147  0.2362 -0.4622
   18MOL    O99 5573   1.426   0.718   3.071 -0.0522  0.3170 -0.4029
   18MOL   C100 5574   1.445   0.666   2.943 -0.1496  0.6517 -0.4030
   18MOL   C101 5575   1.522   0.768   2.850  0.3253  0.2371 -0.0072
   18MOL   C102 5576   1.673   0.759   2.878 -0.3048  0.3039  0.2755
   18MOL   C103 5577   1.434   0.640   3.307  0.2751  0.2079 -0.2858
   18MOL   H104 5578   1.408   0.524   3.136  1.8280  0.4779  0.4040
   18MOL   H105 5579   1.502   0.574   2.950 -1.3410 -0.1786 -1.3664
   18MOL   H106 5580   1.346   0.645   2.902 -1.1770  0.9271  1.8807
   18MOL   H107 5581   1.498   0.874   2.863  0.5658  0.4042 -0.9083
   18MOL   H108 5582   1.512   0.730   2.748  1.6982 -3.4399  1.1830
   18MOL   H109 5583   1.680   0.804   2.978 -1.3487 -0.6951  0.8039
   18MOL   H110 5584   1.725   0.824   2.807 -3.8067  0.0374 -2.6485
   18MOL   H111 5585   1.727   0.665   2.884  1.7303  1.4244 -0.0236
   18MOL   H112 5586   1.397   0.735   3.344  0.8983 -0.2180  1.4912
   18MOL   H113 5587   1.381   0.564   3.365  0.9123  0.7220  0.9970
   18MOL   C114 5588   1.585   0.629   3.320  0.2033  0.3916  0.1186
   18MOL   O115 5589   1.610   0.675   3.450  0.1169 -0.4619  0.2026
   18MOL   C116 5590   1.740   0.730   3.479 -0.5224  0.4723  0.2497
   18MOL   C117 5591   1.731   0.792   3.618 -0.8120  0.7220  0.3766
   18MOL   C118 5592   1.723   0.687   3.725 -0.1368 -0.0851  0.0691
   18MOL   C119 5593   1.645   0.489   3.295  0.2703 -0.0943 -0.2774
   18MOL   H120 5594   1.637   0.697   3.252 -0.1173  0.4507 -0.0688
   18MOL   H121 5595   1.816   0.652   3.486  0.7273  1.6204 -0.4718
   18MOL   H122 5596   1.770   0.801   3.402  0.1694 -0.0586  0.0228
   18MOL   H123 5597   1.648   0.862   3.614 -0.2496  1.4176  0.7024
   18MOL   H124 5598   1.823   0.849   3.631 -1.8630  2.2588  1.3446
   18MOL   H125 5599   1.635   0.625   3.712  0.0453  0.0051 -1.7344
   18MOL   H126 5600   1.738   0.723   3.827 -0.1835 -3.2859  1.2527
   18MOL   H127 5601   1.810   0.622   3.724  0.8954  1.1739  2.3888
   18MOL   H128 5602   1.659   0.464   3.190 -1.4771  1.1399 -0.8284
   18MOL   H129 5603   1.750   0.493   3.323  0.8919 -1.0443 -2.3722
   18MOL   C130 5604   1.565   0.369   3.351  0.4039  0.7663  0.7445
   18MOL   O131 5605   1.624   0.244   3.309 -0.3122  0.0477 -0.0007
   18MOL   C132 5606   1.562   0.183   3.203 -0.2645 -0.7427  0.3022
   18MOL   C133 5607   1.629   0.060   3.151 -0.2439 -0.7968 -0.3069
   18MOL   C134 5608   1.777   0.096   3.121  0.0758  0.2961  0.4913
   18MOL   C135 5609   1.565   0.364   3.507  0.6313  0.5052  0.2068
   18MOL   H136 5610   1.466   0.379   3.307  0.2666  0.3439  0.9543
   18MOL   H137 5611   1.461   0.156   3.236 -0.5327  0.0730  0.1683
   18MOL   H138 5612   1.545   0.254   3.122 -0.8514 -0.9837  0.2095
   18MOL   H139 5613   1.582   0.022   3.061 -1.9801 -0.8729  0.5990
   18MOL   H140 5614   1.625   7.820   3.236 -1.7488  0.5290  0.7274
   18MOL   H141 5615   1.836   0.092   3.213 -1.5905  0.9575  1.5952
   18MOL   H142 5616   1.788   0.198   3.085 -3.9402  0.8009  0.4942
   18MOL   H143 5617   1.825   0.025   3.053 -0.9994  0.7229 -0.7420
   18MOL   H144 5618   1.669   0.341   3.533  0.4878 -0.4140  0.0002
   18MOL   H145 5619   1.536   0.459   3.552  2.2566  3.0873 -3.8745
   18MOL   C146 5620   1.472   0.260   3.568 -0.0941  0.1728 -0.4145
   18MOL   O147 5621   1.470   0.261   3.707 -0.9255  0.1216  0.7319
   18MOL   C148 5622   1.593   0.214   3.766  0.5844  0.3384 -0.1083
   18MOL   C149 5623   1.564   0.167   3.909 -0.0586  0.1396  0.2762
   18MOL   C150 5624   1.510   0.277   4.001 -0.3864  0.6456  0.1078
   18MOL   C151 5625   1.330   0.295   3.512  0.4212  0.2024  0.1904
   18MOL   H152 5626   1.499   0.159   3.536 -0.7422 -0.5898  1.3997
   18MOL   H153 5627   1.646   0.142   3.705  0.5710 -1.0222  1.4747
   18MOL   H154 5628   1.656   0.303   3.776  0.0037  0.7952 -0.4440
   18MOL   H155 5629   1.659   0.134   3.952 -0.0270 -0.5559 -0.3132
   18MOL   H156 5630   1.490   0.087   3.905 -0.3807  0.4476 -0.0675
   18MOL   H157 5631   1.423   0.332   3.966  1.1712  1.8878 -1.9080
   18MOL   H158 5632   1.585   0.354   4.019  0.3391 -0.0761  0.1806
   18MOL   H159 5633   1.479   0.228   4.094 -0.6583 -1.4851 -1.0649
   18MOL   H160 5634   1.319   0.403   3.524 -4.6786 -0.0464 -1.1335
   18MOL   H161 5635   1.323   0.280   3.405 -0.6785  2.4007 -0.0660
   18MOL   C162 5636   1.213   0.227   3.588  0.4605 -0.0559 -0.2964
   18MOL   O163 5637   1.095   0.288   3.528  0.1450 -0.0986  0.3211
   18MOL   C164 5638   0.984   0.299   3.612 -0.3369 -0.7085  0.2982
   18MOL   C165 5639   0.870   0.372   3.544 -0.5679  0.9738  0.0773
   18MOL   C166 5640   0.738   0.368   3.623  0.2623  0.5319 -0.5699
   18MOL   C167 5641   1.204   0.070   3.585 -0.5617  0.7991  0.4175
   18MOL   H168 5642   1.224   0.263   3.690 -0.2113 -0.9467  0.1000
   18MOL   H169 5643   0.946   0.203   3.645  2.3365 -1.9806 -0.1505
   18MOL   H170 5644   1.003   0.358   3.702  2.9826 -0.7868 -0.2894
   18MOL   H171 5645   0.855   0.310   3.456 -0.6161  0.1042  0.6962
   18MOL   H172 5646   0.898   0.475   3.519 -1.0111  0.7155 -1.5401
   18MOL   H173 5647   0.733   0.448   3.698 -0.3031 -0.0996  0.0771
   18MOL   H174 5648   0.728   0.270   3.669  0.4962  1.6432  1.9927
   18MOL   H175 5649   0.655   0.383   3.554 -1.0326  0.5258  0.9531
   18MOL   H176 5650   1.100   0.049   3.558 -0.2845  1.7654 -1.4903
   18MOL   H177 5651   1.278   0.022   3.521 -1.8744 -2.4320  1.1982
   18MOL   C178 5652   1.217   0.002   3.722  0.1883 -0.9729  0.4456
   18MOL   O179 5653   1.108   0.060   3.795  0.6372 -0.2423 -0.2226
   18MOL   C180 5654   1.137   0.089   3.934 -0.0762 -0.4786 -0.4130
   18MOL   C181 5655   1.027   0.177   4.003  0.2030  0.2995 -0.8513
   18MOL   C182 5656   1.041   0.200   4.148 -0.9125  0.7857 -0.3820
   18MOL   C183 5657   1.194   7.678   3.707  0.1331 -0.4530 -0.4894
   18MOL   H184 5658   1.318   0.010   3.762  0.8996 -0.7717 -1.3640
   18MOL   H185 5659   1.163   7.824   3.986 -3.4569 -0.3550  1.6419
   18MOL   H186 5660   1.229   0.148   3.936 -0.1929 -0.2813 -0.8948
   18MOL   H187 5661   0.927   0.139   3.981 -0.8345  2.2271  0.4286
   18MOL   H188 5662   1.032   0.276   3.957  3.6332 -0.0389 -1.3003
   18MOL   H189 5663   0.961   0.263   4.187  0.4884 -0.3152  4.6793
   18MOL   H190 5664   1.131   0.259   4.165 -0.9979  1.6340 -2.7485
   18MOL   H191 5665   1.062   0.108   4.204  0.1587  1.0063 -0.4101
   18MOL   H192 5666   1.171   7.629   3.802 -1.2276  0.4405 -0.3415
   18MOL   H193 5667   1.107   7.660   3.645 -0.4904 -0.1935  0.2951
   18MOL   C194 5668   1.317   7.605   3.649  1.1748  0.5204  0.5068
   18MOL   O195 5669   1.413   7.601   3.759 -0.2390  0.0263 -0.1408
   18MOL   C196 5670   1.540   7.643   3.708 -1.2161 -0.3206 -0.0878
   18MOL   C197 5671   1.652   7.613   3.812 -0.0211  0.8076 -0.0641
   18MOL   C198 5672   1.792   7.659   3.782 -0.0028 -0.3881 -0.1445
   18MOL   C199 5673   1.297   7.457   3.595 -0.3302  0.1749 -0.1440
   18MOL   H200 5674   1.353   7.673   3.572  0.3832  0.6362  0.2386
   18MOL   H201 5675   1.557   7.600   3.609 -1.4991 -1.3283  0.2949
   18MOL   H202 5676   1.544   7.749   3.686 -0.1653 -0.4431 -0.5418
   18MOL   H203 5677   1.661   7.504   3.819 -1.0369  0.7609  0.5221
   18MOL   H204 5678   1.618   7.651   3.908  1.6646 -2.7452  2.0783
   18MOL   H205 5679   1.844   7.582   3.724 -2.8271 -1.5803 -1.1846
   18MOL   H206 5680   1.852   7.687   3.869 -0.0340  3.1777 -1.1789
   18MOL   H207 5681   1.781   7.745   3.716 -0.5240  0.5485  1.1393
   18MOL   H208 5682   1.394   7.408   3.591 -0.4831 -0.3756  1.9005
   18MOL   H209 5683   1.229   7.408   3.665 -0.3184 -0.2043 -0.3975
   18MOL   C210 5684   1.213   7.465   3.464  0.2890 -0.3663  0.4108
   18MOL   O211 5685   1.297   7.462   3.345 -0.0761 -0.1615  0.4834
   18MOL   C212 5686   1.329   7.594   3.290  0.2949 -0.0352 -0.0731
   18MOL   C213 5687   1.382   7.583   3.144 -0.1422 -0.1570  0.2745
   18MOL   C214 5688   1.278   7.521   3.048  0.4246  0.2636 -0.3043
   18MOL   C215 5689   1.112   7.346   3.456  0.3568  0.6585 -0.1823
   18MOL   H216 5690   1.148   7.552   3.476  2.1059  0.7739  2.1287
   18MOL   H217 5691   1.241   7.657   3.298  0.0475 -0.2863 -0.7281
   18MOL   H218 5692   1.407   7.635   3.354  0.8618 -4.6535  2.3651
   18MOL   H219 5693   1.475   7.526   3.151  0.3597  0.6302 -0.0261
   18MOL   H220 5694   1.415   7.679   3.105  0.5865 -0.3703  0.3551
   18MOL   H221 5695   1.288   7.570   2.952  2.8502  2.0449  0.7934
   18MOL   H222 5696   1.183   7.563   3.080  0.0850  0.8689 -2.0686
   18MOL   H223 5697   1.282   7.413   3.032  0.8532  0.4355 -1.3905
   18MOL   H224 5698   1.159   7.249   3.474 -0.2355  0.5116  0.6484
   18MOL   H225 5699   1.032   7.347   3.530  0.4260 -0.9719 -0.0691
   18MOL   C226 5700   1.034   7.344   3.321  0.0685 -0.0373 -0.1499
   18MOL   O227 5701   0.957   7.222   3.315 -0.3732 -0.3060 -0.1094
   18MOL   C228 5702   1.039   7.109   3.286 -0.2281  0.2345 -0.2998
   18MOL   C229 5703   0.956   7.008   3.208 -0.0166 -0.0302 -0.9151
   18MOL   C230 5704   0.831   6.956   3.289 -0.0645  0.0995 -0.7088
   18MOL   C231 5705   0.929   7.452   3.307 -0.1865  0.3845 -0.3703
   18MOL   H232 5706   1.097   7.359   3.233 -1.9633 -2.9684 -2.2323
   18MOL   H233 5707   1.135   7.136   3.243 -0.8168 -0.9420 -2.3754
   18MOL   H234 5708   1.074   7.062   3.378  1.4131  0.9776 -0.5269
   18MOL   H235 5709   1.013   6.922   3.174  1.9817  0.5928  0.7093
   18MOL   H236 5710   0.923   7.056   3.116 -2.4455 -0.2738 -0.2007
   18MOL   H237 5711   0.761   7.038   3.309  0.9242  0.0451  3.4059
   18MOL   H238 5712   0.860   6.915   3.386 -1.5804 -0.3648 -0.4401
   18MOL   H239 5713   0.783   6.878   3.230  1.2445 -0.3537 -1.1890
   18MOL   H240 5714   0.864   7.457   3.395 -1.4633 -1.6161 -1.1383
   18MOL   H241 5715   0.977   7.549   3.314 -1.4059  0.9317  0.6957
   18MOL   C242 5716   0.841   7.433   3.182  0.2961  0.4911 -0.4303
   18MOL   O243 5717   0.709   7.489   3.205  0.1041 -0.3363  0.2105
   18MOL   C244 5718   0.618   7.418   3.283  0.3777  0.1325 -0.2525
   18MOL   C245 5719   0.483   7.501   3.296  0.2292 -0.2528 -0.7623
   18MOL   C246 5720   0.390   7.432   3.403  0.5594  0.2807 -0.2674
   18MOL   C247 5721   0.892   7.508   3.060  0.4262 -0.1388 -0.8244
   18MOL   H248 5722   0.836   7.329   3.152  0.1430  0.3291  0.1437
   18MOL   H249 5723   0.603   7.315   3.250  1.5164 -0.5318  1.2930
   18MOL   H250 5724   0.663   7.430   3.381 -1.5343 -0.7228  0.7641
   18MOL   H251 5725   0.434   7.512   3.200  0.5877  1.1000 -0.8085
   18MOL   H252 5726   0.508   7.602   3.329 -1.1544 -0.0382 -0.3669
   18MOL   H253 5727   0.359   7.331   3.377 -4.4751  1.7603 -0.5114
   18MOL   H254 5728   0.300   7.493   3.410  0.3051  0.1327 -1.9992
   18MOL   H255 5729   0.433   7.425   3.503  2.6703 -0.0543 -1.1720
   18MOL   H256 5730   0.880   7.615   3.073  3.0888 -0.1359  2.4342
   18MOL   H257 5731   0.996   7.475   3.052  0.9785  1.4561 -0.4951
   18MOL   C258 5732   0.829   7.459   2.926  0.3234 -0.1241 -0.6453
   18MOL   O259 5733   0.821   7.563   2.829 -0.4160 -0.4714  0.3360
   18MOL   C260 5734   0.702   7.633   2.824 -0.1804  0.4305  0.9679
   18MOL   C261 5735   0.737   7.748   2.731  0.8450 -0.3401 -0.7130
   18MOL   C262 5736   0.819   0.028   2.793 -0.5233  0.3040  0.0843
   18MOL   C263 5737   0.905   7.334   2.871  0.1073 -0.1853  0.7706
   18MOL   H264 5738   0.730   7.426   2.955  0.7066 -0.5807  0.1723
   18MOL   H265 5739   0.628   7.575   2.770  0.9955 -1.4435  1.3252
   18MOL   H266 5740   0.666   7.669   2.921 -2.1783 -0.5980  0.6282
   18MOL   H267 5741   0.643   7.789   2.695  0.7167  0.2175  0.2557
   18MOL   H268 5742   0.785   7.720   2.637  2.0731  0.9070 -0.4830
   18MOL   H269 5743   0.910   7.815   2.837 -0.5881  1.2488  1.1158
   18MOL   H270 5744   0.768   0.087   2.868 -0.9555 -2.0689  1.7276
   18MOL   H271 5745   0.848   0.088   2.707 -1.5401  1.2359  0.3816
   18MOL   H272 5746   1.006   7.370   2.851  0.4567 -1.9833 -0.8716
   18MOL   H273 5747   0.909   7.260   2.951 -1.8640  0.4059  1.4489
   18MOL   C274 5748   0.848   7.273   2.735  0.1138  0.5171 -0.0542
   18MOL   O275 5749   0.888   7.141   2.709 -0.2591  0.0684  0.5855
   18MOL   C276 5750   1.027   7.113   2.689 -0.5521  0.2643 -0.5868
   18MOL   C277 5751   1.053   6.967   2.649 -0.1993 -0.8755 -0.3116
   18MOL   C278 5752   0.958   6.870   2.716  0.3781 -0.6940  0.2849
   18MOL   C279 5753   0.694   7.270   2.727 -0.2875 -0.3997  0.0743
   18MOL   H280 5754   0.888   7.327   2.649 -1.2102 -0.1923 -1.1525
   18MOL   H281 5755   1.066   7.176   2.609 -0.0616  2.9142  1.6661
   18MOL   H282 5756   1.088   7.130   2.777 -1.5488  1.0706 -0.0389
   18MOL   H283 5757   1.157   6.943   2.672  0.2099 -0.0859 -1.3135
   18MOL   H284 5758   1.038   6.957   2.542  2.1317  0.5393 -0.8026
   18MOL   H285 5759   0.964   6.775   2.662 -0.0241 -1.1906  1.0948
   18MOL   H286 5760   0.853   6.895   2.704  0.7708  0.2877 -1.2910
   18MOL   H287 5761   0.988   6.862   2.821 -2.0002 -2.9595  0.8506
   18MOL   H288 5762   0.654   7.204   2.804 -1.0164 -0.9178 -0.7430
   18MOL   H289 5763   0.660   7.370   2.752 -0.5623  0.0913 -2.1423
   18MOL   C290 5764   0.627   7.228   2.593 -0.4823 -0.2178  0.7460
   18MOL   O291 5765   0.506   7.166   2.615  0.3513 -0.3242  0.1296
   18MOL   C292 5766   0.499   7.031   2.562  0.6450 -0.5841  0.1752
   18MOL   C293 5767   0.375   6.957   2.614 -0.2894 -0.3065  0.0493
   18MOL   C294 5768   0.246   7.037   2.581  0.3289 -0.0037  0.0448
   18MOL   C295 5769   0.631   7.345   2.486  0.5195  0.6158  0.5625
   18MOL   H296 5770   0.693   7.146   2.563 -0.8176 -0.3668  0.4148
   18MOL   H297 5771   0.496   7.030   2.453  0.1327  2.4917  0.1071
   18MOL   H298 5772   0.589   6.976   2.590  2.5367  2.7316  0.8370
   18MOL   H299 5773   0.394   6.967   2.721  2.3528 -0.9807 -0.3262
   18MOL   H300 5774   0.363   6.851   2.593 -0.8486 -0.0528 -0.9221
   18MOL   H301 5775   0.224   7.058   2.476 -0.1187  3.5278  0.7898
   18MOL   H302 5776   0.249   7.131   2.636 -2.0797  2.2936 -3.5325
   18MOL   H303 5777   0.167   6.976   2.625 -0.0502  0.0894 -0.5020
   18MOL   H304 5778   0.551   7.412   2.516  0.7744  1.2473 -0.1427
   18MOL   H305 5779   0.724   7.400   2.497  1.2825 -0.4772 -0.2855
   18MOL   C306 5780   0.596   7.300   2.338 -0.0673 -0.2868 -0.0115
   18MOL   O307 5781   0.581   7.423   2.263  0.8118  0.3586 -0.1207
   18MOL   C308 5782   0.475   7.412   2.162  0.1414  0.0193 -0.0506
   18MOL   C309 5783   0.456   7.548   2.081  0.0233 -0.3182 -0.0534
   18MOL   C310 5784   0.588   7.612   2.038 -0.4079 -0.2557  0.4227
   18MOL   C311 5785   0.714   7.226   2.280 -0.5330 -0.1787 -0.1254
   18MOL   H312 5786   0.507   7.237   2.339  0.5870 -1.2062  1.0508
   18MOL   H313 5787   0.502   7.347   2.079 -0.2952 -0.9720  0.5779
   18MOL   H314 5788   0.380   7.386   2.209 -0.2170 -0.9231 -1.2635
   18MOL   H315 5789   0.415   7.615   2.156 -0.8960 -1.3867  0.4169
   18MOL   H316 5790   0.390   7.546   1.994 -0.0728 -0.4413  0.0207
   18MOL   H317 5791   0.640   7.563   1.956  1.0587  1.4734  0.2976
   18MOL   H318 5792   0.639   7.632   2.132 -2.5138  1.6445  1.1895
   18MOL   H319 5793   0.571   7.715   2.008 -0.2144 -0.2939  0.1734
   18MOL   H320 5794   0.729   7.131   2.331  0.8888 -0.1108 -0.4064
   18MOL   H321 5795   0.700   7.189   2.179 -1.8261 -1.0978  0.3877
   18MOL   H322 5796   0.806   7.284   2.275 -1.2562  0.9942 -0.0312
   19MOL     C1 5797   5.945   7.140   5.550  0.4135  0.8975  0.5912
   19MOL     O2 5798   5.823   7.065   5.566  0.0276 -0.4744  0.1982
   19MOL     C3 5799   5.839   6.922   5.589  0.4618  0.0733  0.4845
   19MOL     C4 5800   5.916   6.856   5.463  0.2453  0.0049 -0.1771
   19MOL     C5 5801   5.915   6.709   5.492  0.0874 -0.4407  0.0980
   19MOL     C6 5802   5.905   7.280   5.508  0.0452 -0.0610 -1.0509
   19MOL     H7 5803   6.024   7.101   5.486  0.3112  1.3225  0.2060
   19MOL     H8 5804   5.885   6.898   5.685  2.1045 -1.8881 -0.7556
   19MOL     H9 5805   5.739   6.879   5.595  0.4133 -0.0852 -1.1060
   19MOL    H10 5806   6.020   6.888   5.464 -0.0228  0.9168  1.8433
   19MOL    H11 5807   5.875   6.874   5.364  0.0098  1.0518  0.0960
   19MOL    H12 5808   5.943   6.683   5.595 -0.7112  0.7859  0.6281
   19MOL    H13 5809   5.974   6.649   5.423 -0.5288  2.3921 -3.0044
   19MOL    H14 5810   5.810   6.680   5.484  0.3489 -1.0581 -1.1357
   19MOL    H15 5811   5.854   7.268   5.412 -1.5971  0.3767 -0.2561
   19MOL    H16 5812   5.822   7.306   5.573 -0.1376 -0.7092 -1.0228
   19MOL    H17 5813   5.991   7.147   5.649  1.9770  0.6007 -0.1091
   19MOL    C18 5814   6.025   7.367   5.515 -0.0602  0.7765  0.0196
   19MOL    O19 5815   6.135   7.302   5.451  0.1093  0.3795  0.1177
   19MOL    C20 5816   6.267   7.343   5.503 -0.5990  0.0739  0.0493
   19MOL    C21 5817   6.380   7.317   5.403 -0.4275 -0.6890  0.6001
   19MOL    C22 5818   6.392   7.167   5.370 -0.1855  0.2513 -0.1099
   19MOL    C23 5819   5.998   7.499   5.433 -0.3182  0.3646 -0.1696
   19MOL    H24 5820   6.044   7.380   5.622 -1.5530  1.3356  0.2274
   19MOL    H25 5821   6.275   7.448   5.533 -1.2171  0.1182  0.0699
   19MOL    H26 5822   6.287   7.279   5.589 -0.9748  1.7480  1.4167
   19MOL    H27 5823   6.480   7.349   5.433  0.3696 -1.5494 -1.0805
   19MOL    H28 5824   6.361   7.384   5.319  0.0767  0.5159  1.4251
   19MOL    H29 5825   6.305   7.117   5.327 -0.0887  0.0522 -0.0738
   19MOL    H30 5826   6.402   7.112   5.464 -0.3362  1.0532  0.3739
   19MOL    H31 5827   6.477   7.145   5.305  0.4965 -0.7838  1.1143
   19MOL    H32 5828   6.097   7.543   5.423 -0.0199 -0.3404 -0.4186
   19MOL    H33 5829   5.976   7.459   5.334  1.1322 -0.0973 -0.3256
   19MOL    C34 5830   5.897   7.595   5.492  0.1151  0.4619  0.1990
   19MOL    O35 5831   5.971   7.662   5.599 -0.5142 -0.3168 -0.6607
   19MOL    C36 5832   5.890   7.702   5.714  0.6352  0.0596 -1.0883
   19MOL    C37 5833   5.889   7.600   5.824 -0.1658  0.2846  0.1603
   19MOL    C38 5834   6.027   7.610   5.892 -0.2859 -0.0008  0.1859
   19MOL    C39 5835   5.848   7.697   5.383 -0.8381  0.0707 -0.3915
   19MOL    H40 5836   5.813   7.543   5.539  1.3329 -1.7068  0.0548
   19MOL    H41 5837   5.920   7.801   5.749  1.3360 -0.6453  0.3672
   19MOL    H42 5838   5.788   7.727   5.685  0.4553 -1.2919 -1.6645
   19MOL    H43 5839   5.847   7.503   5.794 -1.3368  1.2657 -1.5096
   19MOL    H44 5840   5.820   7.631   5.903 -2.0714 -1.4708 -0.7389
   19MOL    H45 5841   6.034   7.710   5.934  1.1551 -0.4945  1.1515
   19MOL    H46 5842   6.103   7.570   5.825  0.5712  0.6728  0.7606
   19MOL    H47 5843   6.025   7.537   5.973 -1.2794  2.2702  2.2579
   19MOL    H48 5844   5.795   7.780   5.431 -1.1561  1.2609 -2.7531
   19MOL    H49 5845   5.931   7.746   5.331  0.0214 -3.1066 -2.1517
   19MOL    C50 5846   5.743   7.640   5.281 -0.9655  0.5377  0.7998
   19MOL    O51 5847   5.631   7.618   5.371  0.3051 -0.0881 -0.2096
   19MOL    C52 5848   5.570   7.497   5.336 -0.4127 -0.7077 -0.2351
   19MOL    C53 5849   5.468   7.452   5.452 -0.0622  0.6065  0.4182
   19MOL    C54 5850   5.540   7.436   5.580  0.0418  0.2991  0.5117
   19MOL    C55 5851   5.692   7.749   5.175 -0.4750  0.1929 -0.3048
   19MOL    H56 5852   5.773   7.556   5.217  0.5068  2.5191 -1.2113
   19MOL    H57 5853   5.510   7.516   5.247  0.1256  0.8573 -0.2774
   19MOL    H58 5854   5.647   7.423   5.313  0.0297 -0.3513  0.0898
   19MOL    H59 5855   5.414   7.362   5.422  2.1496 -0.0738 -1.7397
   19MOL    H60 5856   5.393   7.529   5.470 -1.9089 -1.3261  1.1504
   19MOL    H61 5857   5.473   7.399   5.658 -0.1901  2.2948  1.2814
   19MOL    H62 5858   5.582   7.531   5.614 -1.0886  1.7612 -2.0444
   19MOL    H63 5859   5.624   7.368   5.571  0.8418  1.2394  0.7676
   19MOL    H64 5860   5.620   7.691   5.118 -2.3573 -0.3338  2.5095
   19MOL    H65 5861   5.644   0.000   5.233  1.1124  0.2304  1.0075
   19MOL    C66 5862   5.806   7.808   5.084 -0.3871  0.2403  0.2298
   19MOL    O67 5863   5.855   7.700   5.008  0.4379 -0.5256  0.1661
   19MOL    C68 5864   5.969   7.619   5.050  0.3926 -0.5027 -0.2937
   19MOL    C69 5865   6.100   7.695   5.071  0.2062  0.2978  0.2235
   19MOL    C70 5866   6.210   7.598   5.130 -0.2314  0.1506  0.2403
   19MOL    C71 5867   5.738   0.083   4.986  0.1131 -0.4016  0.2692
   19MOL    H72 5868   5.890   0.029   5.133 -1.0674 -1.5355  3.2989
   19MOL    H73 5869   5.954   7.556   5.138 -0.4764 -0.1969 -0.2198
   19MOL    H74 5870   5.989   7.546   4.971  0.0654  0.0045 -0.8521
   19MOL    H75 5871   6.086   7.772   5.146  1.9500  0.9243 -0.0745
   19MOL    H76 5872   6.141   7.753   4.988 -1.7092  0.9573 -0.2759
   19MOL    H77 5873   6.178   7.542   5.217  0.8307  0.3534  0.7648
   19MOL    H78 5874   6.302   7.649   5.158  0.4202 -0.8681 -0.0389
   19MOL    H79 5875   6.242   7.532   5.050  1.8006  0.2845  0.9207
   19MOL    H80 5876   5.648   0.030   4.956 -0.9473  0.0189  2.6016
   19MOL    H81 5877   5.692   0.162   5.046 -0.6781 -1.9257  1.7308
   19MOL    C82 5878   5.811   0.150   4.867 -0.2760 -0.1291 -0.2303
   19MOL    O83 5879   5.727   0.246   4.805  0.0255 -0.3198 -0.1616
   19MOL    C84 5880   5.638   0.190   4.711 -0.6709  0.3795 -0.2866
   19MOL    C85 5881   5.546   0.292   4.651 -0.3305  0.5345 -0.1006
   19MOL    C86 5882   5.440   0.231   4.565 -0.2681  0.3227 -0.4626
   19MOL    C87 5883   5.941   0.225   4.915  0.0458 -0.3070  1.2508
   19MOL    H88 5884   5.830   0.065   4.801 -1.1101  0.4492 -1.2239
   19MOL    H89 5885   5.692   0.135   4.635 -0.6165 -2.3030  1.6385
   19MOL    H90 5886   5.586   0.109   4.761 -0.1029  0.4740  0.4732
   19MOL    H91 5887   5.611   0.364   4.600 -0.1792  1.0985  0.8640
   19MOL    H92 5888   5.506   0.360   4.726 -2.3943  0.9248 -1.4988
   19MOL    H93 5889   5.391   0.312   4.510 -0.5026  0.5195  0.0398
   19MOL    H94 5890   5.365   0.183   4.628 -1.9153  1.4183 -1.5287
   19MOL    H95 5891   5.476   0.164   4.487 -0.5345 -2.9845  2.1315
   19MOL    H96 5892   5.920   0.277   5.008 -2.7092 -0.0784  0.5366
   19MOL    H97 5893   6.010   0.145   4.942 -0.4725 -0.6752  1.4834
   19MOL    C98 5894   6.003   0.319   4.810 -0.4852  0.0835  0.8426
   19MOL    O99 5895   6.123   0.376   4.881 -0.0652  0.9893  0.1103
   19MOL   C100 5896   6.202   0.475   4.817 -0.3886  0.2692 -0.0469
   19MOL   C101 5897   6.302   0.514   4.931  0.1221  0.2035 -0.2451
   19MOL   C102 5898   6.429   0.583   4.877 -0.8412  0.4352  0.0674
   19MOL   C103 5899   6.043   0.248   4.672 -0.3676  0.1254 -1.1631
   19MOL   H104 5900   5.936   0.404   4.801 -0.0263  0.2645 -1.1029
   19MOL   H105 5901   6.254   0.421   4.738 -1.0787 -1.1743  0.4551
   19MOL   H106 5902   6.138   0.558   4.788 -1.2840 -1.6115 -3.7480
   19MOL   H107 5903   6.333   0.424   4.984 -1.1613 -0.2557 -0.2474
   19MOL   H108 5904   6.240   0.583   4.988  0.0258  0.2745 -0.4317
   19MOL   H109 5905   6.412   0.668   4.810  1.8088  1.7666  1.0176
   19MOL   H110 5906   6.502   0.519   4.828  0.5898  1.5998  0.6383
   19MOL   H111 5907   6.470   0.620   4.971  0.3382 -1.2265  0.2127
   19MOL   H112 5908   6.138   0.198   4.689  0.6164  2.3980  0.1911
   19MOL   H113 5909   5.970   0.169   4.652 -0.8265 -0.5882  2.8884
   19MOL   C114 5910   6.038   0.339   4.551 -0.4994 -0.5211  0.4121
   19MOL   O115 5911   6.101   0.263   4.446 -0.4936  0.3810  0.2225
   19MOL   C116 5912   6.237   0.292   4.439  0.4805 -0.4476  0.4943
   19MOL   C117 5913   6.299   0.226   4.323  0.1383  0.2908  1.1432
   19MOL   C118 5914   6.292   0.075   4.318 -0.5109 -0.2284 -0.3440
   19MOL   C119 5915   5.890   0.367   4.489 -0.2029  0.7168 -0.7205
   19MOL   H120 5916   6.078   0.440   4.564  0.7376 -0.5019 -2.9426
   19MOL   H121 5917   6.256   0.399   4.434  2.9563 -0.8233  1.5221
   19MOL   H122 5918   6.300   0.259   4.521  1.0019 -2.6592 -0.7792
   19MOL   H123 5919   6.405   0.252   4.319 -0.1109  1.0435 -1.2167
   19MOL   H124 5920   6.247   0.261   4.234  2.3897  2.7143  0.7251
   19MOL   H125 5921   6.318   0.034   4.221  0.3534 -0.1270 -0.1610
   19MOL   H126 5922   6.188   0.048   4.337 -0.5866  1.1194  1.2825
   19MOL   H127 5923   6.360   0.027   4.389 -0.6995 -0.7987 -0.5447
   19MOL   H128 5924   5.851   0.266   4.474 -1.4977  1.1801 -0.5693
   19MOL   H129 5925   5.834   0.424   4.563  0.5602 -0.4525  0.7797
   19MOL   C130 5926   5.883   0.442   4.352 -0.2231 -0.3350  0.9305
   19MOL   O131 5927   5.755   0.422   4.308  0.6705  0.1898  0.3277
   19MOL   C132 5928   5.734   0.418   4.172 -0.1350 -0.4924  0.3794
   19MOL   C133 5929   5.601   0.343   4.148  0.1467 -0.0642 -0.2057
   19MOL   C134 5930   5.610   0.188   4.158 -0.4675 -0.5819  0.3051
   19MOL   C135 5931   5.914   0.591   4.381  0.0312 -0.5155  0.1965
   19MOL   H136 5932   5.959   0.400   4.286 -0.4931  1.8617 -0.8486
   19MOL   H137 5933   5.727   0.522   4.140 -1.0841 -0.7124 -0.1388
   19MOL   H138 5934   5.815   0.374   4.114 -0.3070  0.2106 -0.3927
   19MOL   H139 5935   5.569   0.361   4.046  0.4944 -0.5227 -0.3960
   19MOL   H140 5936   5.527   0.371   4.224 -0.1176 -0.7160 -0.2225
   19MOL   H141 5937   5.515   0.136   4.147 -0.0976 -0.8154 -2.1418
   19MOL   H142 5938   5.637   0.161   4.260 -0.7492  1.6879  1.0054
   19MOL   H143 5939   5.689   0.141   4.099  1.9880  0.8103  2.3801
   19MOL   H144 5940   5.830   0.655   4.351  0.2599 -1.5692 -2.9327
   19MOL   H145 5941   5.917   0.605   4.489 -0.9030 -0.8781  0.2814
   19MOL   C146 5942   6.041   0.644   4.314  0.1681 -0.3906  0.5537
   19MOL   O147 5943   6.005   0.652   4.178 -0.4226 -0.3021 -0.4172
   19MOL   C148 5944   6.116   0.633   4.093 -0.4585  0.3617 -0.4018
   19MOL   C149 5945   6.061   0.648   3.949 -0.4377  0.4745  0.8266
   19MOL   C150 5946   6.160   0.606   3.836 -0.5521 -0.0159  0.2612
   19MOL   C151 5947   6.077   0.774   4.382  0.3447 -0.4582 -0.2219
   19MOL   H152 5948   6.126   0.576   4.327 -1.5387 -2.8520 -0.6519
   19MOL   H153 5949   6.193   0.704   4.124  0.0472 -1.2856  2.3674
   19MOL   H154 5950   6.162   0.535   4.105  0.3944  0.8693  0.5241
   19MOL   H155 5951   6.016   0.746   3.933  1.4346  1.0317 -1.2228
   19MOL   H156 5952   5.979   0.577   3.940 -0.3274  0.3009  1.1653
   19MOL   H157 5953   6.101   0.600   3.745 -2.4165 -0.8156  1.5039
   19MOL   H158 5954   6.211   0.512   3.858  0.7305  0.6147  0.0544
   19MOL   H159 5955   6.246   0.671   3.824 -0.6061  0.2682  1.3694
   19MOL   H160 5956   6.126   0.841   4.311 -0.6018  1.7706  1.1839
   19MOL   H161 5957   5.992   0.835   4.413 -0.1055  0.2186 -2.6734
   19MOL   C162 5958   6.163   0.751   4.510  0.0079 -0.6098 -0.0106
   19MOL   O163 5959   6.289   0.704   4.478  1.1425 -0.1969  0.6435
   19MOL   C164 5960   6.366   0.768   4.387  0.0882 -0.2431 -0.0858
   19MOL   C165 5961   6.503   0.714   4.408 -0.5133 -0.3375  0.3074
   19MOL   C166 5962   6.556   0.730   4.554  0.4559 -0.4335  0.7012
   19MOL   C167 5963   6.173   0.873   4.603 -0.0470 -0.1828 -0.3862
   19MOL   H168 5964   6.110   0.675   4.568  2.5954 -1.1263  1.8076
   19MOL   H169 5965   6.335   0.749   4.285  1.3879 -0.6730 -0.4089
   19MOL   H170 5966   6.371   0.875   4.409  0.0719 -0.1109 -0.7319
   19MOL   H171 5967   6.572   0.770   4.345 -0.9582  1.4136  1.3528
   19MOL   H172 5968   6.517   0.609   4.381 -0.7130 -0.1878 -0.3782
   19MOL   H173 5969   6.663   0.750   4.559  0.7306 -1.6432 -0.0949
   19MOL   H174 5970   6.532   0.638   4.607 -1.8117  0.7214  1.7450
   19MOL   H175 5971   6.501   0.804   4.613 -0.2226 -0.5675  0.2399
   19MOL   H176 5972   6.254   0.860   4.674 -0.0740  0.1129 -0.2995
   19MOL   H177 5973   6.200   0.957   4.539  0.7352 -0.5828 -0.5877
   19MOL   C178 5974   6.044   0.906   4.685 -0.3215 -0.0810 -0.2394
   19MOL   O179 5975   6.039   0.812   4.788  0.4504  0.1871 -0.2300
   19MOL   C180 5976   5.905   0.768   4.808  0.2734 -0.1598 -0.3422
   19MOL   C181 5977   5.886   0.688   4.936 -0.1261  0.7307  0.4157
   19MOL   C182 5978   5.757   0.604   4.941 -0.4746 -0.0531  0.3132
   19MOL   C183 5979   6.063   1.048   4.755  0.1909 -0.1858  0.4576
   19MOL   H184 5980   5.964   0.908   4.611 -0.8816 -0.7615  0.3379
   19MOL   H185 5981   5.839   0.855   4.807 -1.6938 -1.6269 -0.9148
   19MOL   H186 5982   5.892   0.708   4.718  0.2633 -0.4952 -0.1153
   19MOL   H187 5983   5.894   0.751   5.025  0.9214  0.7518  0.3102
   19MOL   H188 5984   5.972   0.623   4.954 -0.3626  0.2578 -0.1508
   19MOL   H189 5985   5.667   0.653   4.902  0.5161  0.9901 -0.7037
   19MOL   H190 5986   5.734   0.569   5.042 -3.1744  2.8843  0.8068
   19MOL   H191 5987   5.763   0.526   4.866 -0.8402 -0.0393  0.2684
   19MOL   H192 5988   6.003   1.051   4.847 -0.8642 -0.1817 -0.2258
   19MOL   H193 5989   6.164   1.064   4.794  0.7546  4.4461 -2.5674
   19MOL   C194 5990   6.025   1.172   4.673  0.7092 -0.2283 -0.1131
   19MOL   O195 5991   6.094   1.165   4.547  0.4532  0.3558  0.4765
   19MOL   C196 5992   6.100   1.290   4.478  0.3446 -0.1721 -0.3722
   19MOL   C197 5993   6.188   1.283   4.349 -0.4426 -0.3783 -0.2881
   19MOL   C198 5994   6.318   1.194   4.356 -0.2843  0.5327  0.1886
   19MOL   C199 5995   5.874   1.196   4.649 -0.1439 -0.8659  0.0696
   19MOL   H200 5996   6.066   1.259   4.724  1.1005 -0.8995  0.7302
   19MOL   H201 5997   6.004   1.335   4.452  0.9717  1.3012 -0.2111
   19MOL   H202 5998   6.158   1.349   4.550 -0.8589  2.4141 -1.4579
   19MOL   H203 5999   6.213   1.384   4.317  1.0083 -0.2429  1.2095
   19MOL   H204 6000   6.132   1.238   4.266  0.1439 -1.4199 -0.1320
   19MOL   H205 6001   6.379   1.248   4.429  0.9715  0.4876 -0.8103
   19MOL   H206 6002   6.374   1.171   4.266 -0.6771  1.0349 -0.1880
   19MOL   H207 6003   6.287   1.102   4.405  0.3448 -0.8463 -1.9639
   19MOL   H208 6004   5.855   1.281   4.584  1.3242 -0.6960 -0.1617
   19MOL   H209 6005   5.830   1.110   4.598  0.3941 -1.3611  0.4341
   19MOL   C210 6006   5.799   1.222   4.782 -0.3437 -0.5806 -1.3244
   19MOL   O211 6007   5.861   1.330   4.855  0.4284  0.4762  0.3086
   19MOL   C212 6008   5.834   1.336   4.996 -0.3119  0.3385  0.5438
   19MOL   C213 6009   5.823   1.484   5.035 -0.6228 -0.2299  0.2792
   19MOL   C214 6010   5.953   1.558   5.036 -0.1531 -0.1501  0.3063
   19MOL   C215 6011   5.650   1.257   4.767  0.5342 -0.1538  0.3573
   19MOL   H216 6012   5.798   1.135   4.847  0.3832 -0.4356 -1.1181
   19MOL   H217 6013   5.745   1.278   5.022  0.6413 -0.9505  1.0139
   19MOL   H218 6014   5.922   1.296   5.047 -0.5648 -0.5926  0.2563
   19MOL   H219 6015   5.779   1.497   5.134  1.5452  3.6720  0.8237
   19MOL   H220 6016   5.752   1.534   4.971 -0.2047 -1.2123 -0.9702
   19MOL   H221 6017   5.985   1.572   4.932 -1.2392 -0.5100 -0.0853
   19MOL   H222 6018   6.028   1.493   5.082  0.7445  0.3218 -0.4652
   19MOL   H223 6019   5.942   1.656   5.081 -0.7937  0.3114 -0.8351
   19MOL   H224 6020   5.602   1.315   4.845 -1.6627  0.7993 -1.6351
   19MOL   H225 6021   5.649   1.321   4.679  2.2834  0.4293  0.7329
   19MOL   C226 6022   5.563   1.134   4.737  0.4471  0.1050 -0.0192
   19MOL   O227 6023   5.528   1.091   4.864  0.1292 -0.2692  0.6310
   19MOL   C228 6024   5.518   0.955   4.884  0.4637 -1.1342 -0.6080
   19MOL   C229 6025   5.542   0.920   5.027 -0.9114 -0.6533 -0.3193
   19MOL   C230 6026   5.675   0.967   5.076  0.8411 -0.0288 -0.1022
   19MOL   C231 6027   5.448   1.153   4.633  0.4705 -0.1899  0.3246
   19MOL   H232 6028   5.633   1.059   4.700  2.2646  1.1765  1.1864
   19MOL   H233 6029   5.417   0.926   4.859 -0.0328 -0.2990  0.3906
   19MOL   H234 6030   5.592   0.896   4.830  0.1421 -0.6811 -1.5592
   19MOL   H235 6031   5.549   0.811   5.035  0.5770 -0.6534 -1.4509
   19MOL   H236 6032   5.463   0.956   5.092 -0.1467  2.3386 -0.9941
   19MOL   H237 6033   5.686   1.076   5.078  2.7658 -0.2284  1.2989
   19MOL   H238 6034   5.752   0.922   5.013  1.3986 -0.0402  0.5839
   19MOL   H239 6035   5.688   0.942   5.181  0.4450 -0.1850 -0.0866
   19MOL   H240 6036   5.500   1.203   4.551  0.1682 -2.6284 -1.4021
   19MOL   H241 6037   5.434   1.052   4.594  0.6722 -1.0768  2.4645
   19MOL   C242 6038   5.326   1.221   4.688 -0.8869  0.0083 -0.1635
   19MOL   O243 6039   5.372   1.355   4.710  0.3453  0.0972  0.8541
   19MOL   C244 6040   5.306   1.431   4.812 -0.0236  0.0968  0.1381
   19MOL   C245 6041   5.336   1.580   4.802 -0.2689 -1.0278  0.9750
   19MOL   C246 6042   5.487   1.615   4.822 -0.8734  0.0584  0.2923
   19MOL   C247 6043   5.209   1.227   4.590  0.1519  0.2844  0.3221
   19MOL   H248 6044   5.285   1.186   4.782  0.1117  0.3145  0.3941
   19MOL   H249 6045   5.198   1.415   4.811 -0.2017  1.2725  0.3597
   19MOL   H250 6046   5.343   1.388   4.906  1.7992  1.2725 -0.0206
   19MOL   H251 6047   5.286   1.632   4.883 -1.2052  1.5250 -1.1687
   19MOL   H252 6048   5.316   1.628   4.706 -1.8531  0.1615  1.8721
   19MOL   H253 6049   5.501   1.723   4.833 -0.4788 -0.0527  0.9309
   19MOL   H254 6050   5.559   1.577   4.749 -0.5436 -1.2483  1.2741
   19MOL   H255 6051   5.516   1.568   4.916  0.5863  0.6276  0.1465
   19MOL   H256 6052   5.138   1.302   4.623 -0.0272 -0.5758  1.9810
   19MOL   H257 6053   5.247   1.258   4.493 -1.2802 -0.1703 -0.3990
   19MOL   C258 6054   5.130   1.096   4.581  0.4156 -0.0124  0.0499
   19MOL   O259 6055   5.090   1.058   4.713 -0.0401 -0.6818  0.2284
   19MOL   C260 6056   5.090   0.921   4.733  0.0663  0.8487 -0.0186
   19MOL   C261 6057   5.042   0.884   4.875  0.0214 -0.3445  0.6138
   19MOL   C262 6058   5.131   0.937   4.988 -0.3846  0.3283  0.0136
   19MOL   C263 6059   5.008   1.127   4.492  0.2437  0.0919 -0.5214
   19MOL   H264 6060   5.191   1.021   4.532 -0.2709  0.4904 -1.6019
   19MOL   H265 6061   5.014   0.884   4.663 -0.5528 -2.6853  2.4005
   19MOL   H266 6062   5.170   0.864   4.686 -1.5945  0.4286 -2.4706
   19MOL   H267 6063   5.048   0.776   4.884  4.0284 -0.1551  1.0928
   19MOL   H268 6064   4.942   0.927   4.888 -0.0785 -0.5358  0.4735
   19MOL   H269 6065   5.227   0.888   4.980 -1.4726 -2.1827  1.5684
   19MOL   H270 6066   5.093   0.921   5.090 -0.4243 -1.5062 -0.2640
   19MOL   H271 6067   5.158   1.042   4.994 -2.4832  1.0136 -1.8501
   19MOL   H272 6068   4.921   1.114   4.556  0.9223 -1.1633  0.1531
   19MOL   H273 6069   5.015   1.226   4.446 -0.8562  1.3651  1.9830
   19MOL   C274 6070   4.991   1.033   4.374 -0.5820 -0.1680  0.1290
   19MOL   O275 6071   4.859   1.062   4.331  0.2081  0.3383  0.5168
   19MOL   C276 6072   4.790   0.948   4.281  0.3102  0.1129 -0.4300
   19MOL   C277 6073   4.668   0.985   4.200  0.3914 -0.3848 -0.1670
   19MOL   C278 6074   4.560   1.053   4.282  0.0804  0.6918  0.4188
   19MOL   C279 6075   5.092   1.038   4.243  0.4629  0.2361  0.2660
   19MOL   H280 6076   5.012   0.932   4.409 -0.3984  0.5222  2.0757
   19MOL   H281 6077   4.856   0.887   4.219 -0.0994  1.0142 -1.7748
   19MOL   H282 6078   4.760   0.902   4.375  1.7837 -1.4866 -0.7194
   19MOL   H283 6079   4.620   0.906   4.144  0.7234 -0.8903  0.2498
   19MOL   H284 6080   4.710   1.054   4.127  1.2300 -0.5627  0.1396
   19MOL   H285 6081   4.601   1.131   4.347 -0.5371  0.0630  1.5801
   19MOL   H286 6082   4.511   0.988   4.355  0.4361 -1.1439 -0.9479
   19MOL   H287 6083   4.496   1.103   4.209  0.2380 -1.4116 -1.1963
   19MOL   H288 6084   5.076   0.944   4.191 -1.4566  1.4316 -1.3894
   19MOL   H289 6085   5.064   1.113   4.169  0.4398  2.6752  2.6749
   19MOL   C290 6086   5.248   1.042   4.252  0.4785  0.9267  0.3822
   19MOL   O291 6087   5.288   0.917   4.296 -0.3400  0.0438 -0.0841
   19MOL   C292 6088   5.430   0.912   4.333  0.3625  0.1596 -0.2636
   19MOL   C293 6089   5.447   0.804   4.442  0.0637  0.5551 -0.6188
   19MOL   C294 6090   5.580   0.789   4.494  0.0310  0.0806  0.3001
   19MOL   C295 6091   5.313   1.085   4.118  0.2092 -0.2545  0.7758
   19MOL   H296 6092   5.281   1.109   4.332 -1.1747 -0.7497  2.5129
   19MOL   H297 6093   5.490   0.889   4.244 -0.6076 -1.7561 -0.4345
   19MOL   H298 6094   5.478   1.002   4.372  0.5663  0.3642 -0.9762
   19MOL   H299 6095   5.410   0.708   4.408  0.4865  0.2944 -0.3511
   19MOL   H300 6096   5.372   0.828   4.518  0.3111 -0.0888 -0.1699
   19MOL   H301 6097   5.659   0.768   4.423  0.0963  3.3693 -0.6942
   19MOL   H302 6098   5.592   0.717   4.575 -0.0658  0.3097  0.5186
   19MOL   H303 6099   5.603   0.882   4.547  1.6123 -0.5552  0.7557
   19MOL   H304 6100   5.418   1.060   4.105  0.5625  0.9105  1.3332
   19MOL   H305 6101   5.276   1.024   4.035  0.4473 -3.5120  2.9489
   19MOL   C306 6102   5.305   1.238   4.088  0.4783  0.3168  0.8093
   19MOL   O307 6103   5.403   1.297   4.166 -0.2460 -0.0663  0.2505
   19MOL   C308 6104   5.403   1.441   4.154  0.2313  0.0726  0.6252
   19MOL   C309 6105   5.489   1.504   4.265  0.1937 -0.9260  0.7845
   19MOL   C310 6106   5.453   1.461   4.409 -0.3534 -0.2315 -0.6349
   19MOL   C311 6107   5.340   1.252   3.938  0.1138 -0.2310 -0.8134
   19MOL   H312 6108   5.206   1.278   4.110  0.0868 -0.6570  0.8248
   19MOL   H313 6109   5.444   1.469   4.057  0.3095  1.3976  1.0285
   19MOL   H314 6110   5.298   1.470   4.166  0.2016  0.4225 -0.4163
   19MOL   H315 6111   5.475   1.611   4.251  0.6480 -1.1125 -1.3332
   19MOL   H316 6112   5.593   1.476   4.252 -0.0342 -0.9902 -1.0275
   19MOL   H317 6113   5.442   1.353   4.418  0.4014 -0.3568 -1.1816
   19MOL   H318 6114   5.357   1.500   4.442 -0.3257 -0.2731 -0.5029
   19MOL   H319 6115   5.522   1.504   4.481 -3.0483  1.7264  0.8707
   19MOL   H320 6116   5.335   1.351   3.892  0.0457  0.6866  1.1129
   19MOL   H321 6117   5.444   1.222   3.928 -0.0257 -1.4275  1.1306
   19MOL   H322 6118   5.271   1.192   3.879 -1.1433 -0.0266  0.4031
   20MOL     C1 6119   3.874   4.969   4.745 -0.2289  0.2603 -0.3054
   20MOL     O2 6120   3.820   5.063   4.835 -0.2511 -0.2555  0.5501
   20MOL     C3 6121   3.723   5.008   4.926  0.2810 -0.3916 -0.2165
   20MOL     C4 6122   3.795   4.939   5.048 -0.0206  0.0080 -0.1572
   20MOL     C5 6123   3.914   5.016   5.113 -0.0048  0.3104 -0.2033
   20MOL     C6 6124   3.961   5.037   4.639  0.0652 -0.3385  0.2532
   20MOL     H7 6125   3.800   4.903   4.701  1.5401 -1.0302 -1.4036
   20MOL     H8 6126   3.661   5.084   4.974 -0.4115 -1.2198  0.2215
   20MOL     H9 6127   3.652   4.940   4.879 -0.0791  0.9514 -1.6889
   20MOL    H10 6128   3.813   4.833   5.033  0.9540  0.0385  0.8239
   20MOL    H11 6129   3.736   4.927   5.139  1.6893  0.1248  0.9867
   20MOL    H12 6130   3.937   4.985   5.215 -0.4174  4.0534  1.1071
   20MOL    H13 6131   3.895   5.124   5.119  2.9084  0.7895  1.3637
   20MOL    H14 6132   4.002   4.992   5.053 -0.2547 -0.6740 -0.1849
   20MOL    H15 6133   3.907   5.120   4.593 -0.8113 -1.1276 -0.1362
   20MOL    H16 6134   4.051   5.079   4.687 -0.4733  1.2639 -0.0977
   20MOL    H17 6135   3.935   4.914   4.817 -0.6937 -0.0269 -0.1293
   20MOL    C18 6136   4.001   4.946   4.521  0.6679  1.0373  0.3391
   20MOL    O19 6137   3.886   4.913   4.441  0.1441 -0.2026  0.4608
   20MOL    C20 6138   3.853   4.778   4.437 -0.5852  0.0943 -0.0033
   20MOL    C21 6139   3.708   4.757   4.384 -0.0155  0.1553 -0.6896
   20MOL    C22 6140   3.595   4.789   4.486  0.6565 -0.5246 -0.2731
   20MOL    C23 6141   4.120   5.002   4.433 -0.9550  0.0340  0.5175
   20MOL    H24 6142   4.039   4.851   4.559 -2.0087  0.0076  0.6179
   20MOL    H25 6143   3.924   4.749   4.360 -0.6257  2.0197 -0.7727
   20MOL    H26 6144   3.860   4.719   4.529 -0.3232 -0.9795 -0.7084
   20MOL    H27 6145   3.698   4.649   4.382 -3.0352  0.3921  0.1226
   20MOL    H28 6146   3.697   4.801   4.285 -0.9501  0.9374 -0.2386
   20MOL    H29 6147   3.499   4.750   4.452 -0.6652  2.8151 -0.5779
   20MOL    H30 6148   3.583   4.896   4.503  0.0382 -0.3961 -1.5066
   20MOL    H31 6149   3.610   4.744   4.584 -0.3118 -1.3275 -0.4847
   20MOL    H32 6150   4.082   5.094   4.387  0.2082 -0.4175 -1.4368
   20MOL    H33 6151   4.203   5.041   4.493  1.9763 -1.2467 -2.5594
   20MOL    C34 6152   4.182   4.900   4.336 -0.0689  0.1223  0.6862
   20MOL    O35 6153   4.254   4.979   4.247  0.2786 -0.0399  0.1239
   20MOL    C36 6154   4.185   5.029   4.133  0.4605  0.2866  0.4491
   20MOL    C37 6155   4.283   5.107   4.038 -0.2850  0.0701 -0.1965
   20MOL    C38 6156   4.322   5.247   4.082  0.6002  0.5596 -0.7846
   20MOL    C39 6157   4.281   4.809   4.423  0.8493  0.6012  0.3385
   20MOL    H40 6158   4.111   4.841   4.278  0.8028  0.1359 -0.4204
   20MOL    H41 6159   4.130   4.952   4.078  0.9733  0.9801 -1.0581
   20MOL    H42 6160   4.117   5.107   4.168  1.2996  0.6256  1.3549
   20MOL    H43 6161   4.255   5.095   3.934 -0.8279 -0.8589  0.0492
   20MOL    H44 6162   4.376   5.050   4.047  1.3239  1.9311 -4.1947
   20MOL    H45 6163   4.238   5.317   4.080  2.3447  2.7728  0.7361
   20MOL    H46 6164   4.392   5.294   4.012  0.4443 -0.9787 -1.9971
   20MOL    H47 6165   4.364   5.245   4.182 -0.6932  0.0491 -0.2514
   20MOL    H48 6166   4.371   4.861   4.457  0.8656  0.5013  0.4445
   20MOL    H49 6167   4.223   4.778   4.510 -0.8067 -0.3251 -1.0632
   20MOL    C50 6168   4.335   4.689   4.341 -0.1767  0.3359 -0.2989
   20MOL    O51 6169   4.457   4.729   4.276  0.3901 -0.8489 -0.5552
   20MOL    C52 6170   4.457   4.697   4.137 -0.1453 -0.7447  0.5498
   20MOL    C53 6171   4.604   4.686   4.088  0.1831  0.1284 -0.6452
   20MOL    C54 6172   4.672   4.816   4.072  0.1206  0.3960 -0.0581
   20MOL    C55 6173   4.364   4.571   4.426 -0.7971  0.3755  0.7255
   20MOL    H56 6174   4.270   4.651   4.262  0.5668  0.6251 -1.0708
   20MOL    H57 6175   4.412   4.602   4.107  0.9680 -1.0799 -0.0802
   20MOL    H58 6176   4.409   4.781   4.087  2.1316 -0.0386 -0.4931
   20MOL    H59 6177   4.602   4.638   3.991 -0.9813 -0.2061 -0.4657
   20MOL    H60 6178   4.649   4.621   4.164 -1.2963  0.7758  0.8224
   20MOL    H61 6179   4.652   4.892   4.147  1.0248  0.9105 -0.3240
   20MOL    H62 6180   4.618   4.862   3.989  3.5054  3.2939 -0.7831
   20MOL    H63 6181   4.779   4.806   4.053  0.3017  0.6742  0.7930
   20MOL    H64 6182   4.422   4.499   4.369 -1.0934 -0.4050  1.4031
   20MOL    H65 6183   4.422   4.612   4.509 -0.0461  1.6073 -0.4056
   20MOL    C66 6184   4.238   4.509   4.486  0.2963  0.5781  0.1313
   20MOL    O67 6185   4.154   4.481   4.374  0.3016  0.2999  0.1916
   20MOL    C68 6186   4.018   4.448   4.384  0.2748 -0.3976 -0.0420
   20MOL    C69 6187   3.985   4.322   4.307 -0.0568  0.1863 -0.1379
   20MOL    C70 6188   3.843   4.264   4.331  0.2991 -0.3271  0.0157
   20MOL    C71 6189   4.272   4.376   4.557 -0.5136  0.3988 -0.2924
   20MOL    H72 6190   4.185   4.574   4.555 -0.6526  0.5058 -0.5253
   20MOL    H73 6191   3.982   4.434   4.486 -1.7608 -1.3482 -0.8659
   20MOL    H74 6192   3.952   4.529   4.353 -1.3244 -0.6845  2.4901
   20MOL    H75 6193   4.062   4.247   4.326 -1.1472 -0.6761  0.9649
   20MOL    H76 6194   3.993   4.348   4.201  4.2780  1.7070  0.4651
   20MOL    H77 6195   3.836   4.204   4.421 -2.3745  0.5313  0.4442
   20MOL    H78 6196   3.809   4.189   4.260  1.9350  1.2410 -2.4991
   20MOL    H79 6197   3.765   4.341   4.324 -0.6733 -1.3745 -0.8682
   20MOL    H80 6198   4.180   4.327   4.588 -1.6328  3.2999  1.0925
   20MOL    H81 6199   4.328   4.305   4.496  2.1493  0.4367  2.0363
   20MOL    C82 6200   4.354   4.384   4.686  0.1819  0.4986  0.1013
   20MOL    O83 6201   4.309   4.279   4.775  0.2548 -0.4203  0.1299
   20MOL    C84 6202   4.277   4.323   4.911 -0.8950  0.2146  0.0430
   20MOL    C85 6203   4.191   4.217   4.983  0.2867  0.5606  0.2983
   20MOL    C86 6204   4.252   4.075   5.002 -0.3847  0.2580 -0.4743
   20MOL    C87 6205   4.508   4.370   4.663  0.5167 -0.1493  0.0217
   20MOL    H88 6206   4.336   4.483   4.728  1.6371  0.7855  0.0709
   20MOL    H89 6207   4.370   4.358   4.954  0.2746 -0.5640 -1.8304
   20MOL    H90 6208   4.205   4.404   4.901 -0.3821  0.2979 -3.5060
   20MOL    H91 6209   4.096   4.209   4.930  0.2490  0.3170  0.4041
   20MOL    H92 6210   4.171   4.259   5.082  2.1691 -0.9635  1.3717
   20MOL    H93 6211   4.303   4.054   4.908  1.9649  1.9941  0.3413
   20MOL    H94 6212   4.184   3.993   5.022 -1.1077  0.9620 -0.0119
   20MOL    H95 6213   4.321   4.079   5.087 -1.0436 -1.7097  0.1769
   20MOL    H96 6214   4.531   4.271   4.625  1.1668 -0.1504  0.4208
   20MOL    H97 6215   4.528   4.421   4.569 -1.8037 -1.4076 -1.2089
   20MOL    C98 6216   4.598   4.428   4.782  0.6810  0.9983  0.9046
   20MOL    O99 6217   4.728   4.434   4.715  0.1592 -0.4599 -0.6065
   20MOL   C100 6218   4.809   4.324   4.745 -0.4855  0.0647 -0.0024
   20MOL   C101 6219   4.917   4.310   4.637  0.0898 -0.3126 -0.4202
   20MOL   C102 6220   5.014   4.207   4.672 -0.7362 -0.1708 -0.1784
   20MOL   C103 6221   4.566   4.571   4.826  0.0716  0.8322 -0.6443
   20MOL   H104 6222   4.587   4.363   4.869 -0.5497 -0.2662 -0.1776
   20MOL   H105 6223   4.845   4.334   4.847  1.5975 -3.0242 -0.3928
   20MOL   H106 6224   4.759   4.228   4.751 -0.4652  0.1829  2.1582
   20MOL   H107 6225   4.962   4.408   4.623 -1.0817  0.2430 -0.3385
   20MOL   H108 6226   4.866   4.286   4.543  3.0056 -1.4000 -1.7944
   20MOL   H109 6227   4.963   4.112   4.657 -3.3962  1.3105 -0.6875
   20MOL   H110 6228   5.056   4.226   4.771  1.5131 -2.0014 -0.7477
   20MOL   H111 6229   5.099   4.228   4.607 -0.4784  0.5989  0.4003
   20MOL   H112 6230   4.582   4.634   4.738  1.3928  1.0198 -0.2758
   20MOL   H113 6231   4.462   4.582   4.858  0.3619 -0.1699  0.6575
   20MOL   C114 6232   4.651   4.621   4.944 -0.8145  0.5642 -0.2729
   20MOL   O115 6233   4.667   4.761   4.932 -0.2758 -0.0771  0.1032
   20MOL   C116 6234   4.779   4.798   4.854  0.2627 -0.3528  0.0624
   20MOL   C117 6235   4.754   4.940   4.804  0.7110  0.8053  0.2640
   20MOL   C118 6236   4.745   5.039   4.924  0.3082 -0.6175 -0.3546
   20MOL   C119 6237   4.594   4.603   5.085 -0.6327  0.1365 -0.2758
   20MOL   H120 6238   4.749   4.573   4.939 -0.5580  0.7284  2.4071
   20MOL   H121 6239   4.868   4.792   4.916  2.1895  0.4634 -2.5677
   20MOL   H122 6240   4.791   4.731   4.769  0.7458  0.5218 -0.5556
   20MOL   H123 6241   4.656   4.928   4.759  0.5803 -1.4259  1.1090
   20MOL   H124 6242   4.837   4.969   4.739 -1.5356  2.8353 -1.7817
   20MOL   H125 6243   4.665   5.009   4.992  0.6870  2.8914  1.7564
   20MOL   H126 6244   4.723   5.141   4.892  0.3415 -0.5528 -0.1692
   20MOL   H127 6245   4.838   5.047   4.980 -0.0868  1.1220  0.0953
   20MOL   H128 6246   4.502   4.661   5.089 -0.2543  0.7655 -0.5920
   20MOL   H129 6247   4.577   4.496   5.095 -2.5176  0.3230 -1.3444
   20MOL   C130 6248   4.682   4.647   5.204 -0.3270 -0.8027  0.3700
   20MOL   O131 6249   4.588   4.635   5.311 -0.0414 -0.0157  0.2461
   20MOL   C132 6250   4.624   4.708   5.426 -0.1665 -0.1089  0.3623
   20MOL   C133 6251   4.526   4.682   5.538  0.5761  0.1816 -0.6225
   20MOL   C134 6252   4.557   4.755   5.664  0.3173  0.2298  0.4847
   20MOL   C135 6253   4.806   4.568   5.219  0.0475  0.4006 -0.2411
   20MOL   H136 6254   4.699   4.754   5.187  1.2400 -1.3439 -1.8017
   20MOL   H137 6255   4.723   4.691   5.469 -0.9723 -0.3846  2.1767
   20MOL   H138 6256   4.633   4.814   5.403  0.7840 -0.5103 -1.1723
   20MOL   H139 6257   4.542   4.576   5.557  1.2271  0.8392  2.9687
   20MOL   H140 6258   4.423   4.701   5.508 -0.2033  0.9950  2.3125
   20MOL   H141 6259   4.559   4.864   5.653  2.5695  0.3760  1.9860
   20MOL   H142 6260   4.655   4.727   5.702  1.2768 -0.1328 -2.1795
   20MOL   H143 6261   4.491   4.725   5.746 -0.3560 -1.2242 -0.5728
   20MOL   H144 6262   4.806   4.514   5.314  1.2184  0.5342 -0.1480
   20MOL   H145 6263   4.803   4.482   5.151 -0.8918  0.5608 -0.3960
   20MOL   C146 6264   4.934   4.644   5.201  0.0046  0.7962  0.0245
   20MOL   O147 6265   4.949   4.738   5.311  0.3544  0.1430  0.2960
   20MOL   C148 6266   4.944   4.875   5.285  0.1290 -0.5397 -0.3345
   20MOL   C149 6267   4.950   4.960   5.416 -0.4496  0.8732 -0.4125
   20MOL   C150 6268   5.087   4.956   5.490  0.7564 -0.2250 -0.6036
   20MOL   C151 6269   5.059   4.561   5.207 -0.4101  0.1671  0.8831
   20MOL   H152 6270   4.949   4.708   5.114  0.4495 -1.2422 -1.4026
   20MOL   H153 6271   5.017   4.913   5.213  0.2434  1.0261  0.5716
   20MOL   H154 6272   4.846   4.893   5.242 -1.3538  0.5367  3.3040
   20MOL   H155 6273   4.874   4.928   5.487  1.0465 -0.1709  0.7598
   20MOL   H156 6274   4.937   5.067   5.403  2.0450  1.0377 -1.8356
   20MOL   H157 6275   5.081   5.016   5.581 -1.5820  2.1183 -2.2152
   20MOL   H158 6276   5.169   4.987   5.426  0.4492  1.4505 -0.2132
   20MOL   H159 6277   5.106   4.853   5.521  2.2530  0.2184  0.0109
   20MOL   H160 6278   5.142   4.630   5.220 -0.1482 -0.0702  0.4927
   20MOL   H161 6279   5.064   4.501   5.298  1.9077  0.8970  1.2578
   20MOL   C162 6280   5.090   4.467   5.090  0.2931  0.5511  0.0937
   20MOL   O163 6281   5.149   4.551   4.992  0.2820  0.3386 -0.2928
   20MOL   C164 6282   5.120   4.523   4.854  0.2630  0.3851 -0.8019
   20MOL   C165 6283   5.182   4.621   4.760 -0.3613  0.0747 -0.0857
   20MOL   C166 6284   5.334   4.609   4.734  0.3839 -0.4361 -0.2033
   20MOL   C167 6285   5.193   4.350   5.127 -0.8936  0.5254  0.1588
   20MOL   H168 6286   4.995   4.417   5.070  0.5804  0.7131 -1.8131
   20MOL   H169 6287   5.162   4.425   4.833  0.4010  0.2472  0.0663
   20MOL   H170 6288   5.011   4.530   4.852  0.1955  1.2967  2.3017
   20MOL   H171 6289   5.155   4.723   4.785 -3.0341 -0.4891 -0.5434
   20MOL   H172 6290   5.130   4.607   4.665  1.7456  0.0589 -1.2902
   20MOL   H173 6291   5.366   4.520   4.680  0.6101 -0.3133 -0.2697
   20MOL   H174 6292   5.387   4.625   4.828 -1.1170  0.5598  0.5083
   20MOL   H175 6293   5.367   4.687   4.666  3.0223 -0.7935  0.6367
   20MOL   H176 6294   5.263   4.324   5.048  1.1199  0.9738  1.7621
   20MOL   H177 6295   5.254   4.371   5.215 -0.8151  1.2873 -0.0815
   20MOL   C178 6296   5.128   4.210   5.147  0.0316 -0.4719 -0.0404
   20MOL   O179 6297   5.220   4.127   5.220  0.6445 -0.5606 -0.1028
   20MOL   C180 6298   5.311   4.056   5.142  0.1344 -0.2542  0.2342
   20MOL   C181 6299   5.395   3.965   5.236  0.3482  0.2267  0.2221
   20MOL   C182 6300   5.503   3.895   5.165  0.0538 -0.2196 -0.4998
   20MOL   C183 6301   5.009   4.217   5.240  0.1775 -0.3062 -0.0771
   20MOL   H184 6302   5.106   4.165   5.050  0.6708  1.2710 -1.0153
   20MOL   H185 6303   5.254   3.998   5.070  1.1944 -1.3605  0.2741
   20MOL   H186 6304   5.376   4.125   5.087  1.9878 -1.9841  0.1994
   20MOL   H187 6305   5.319   3.898   5.276  0.2178 -0.9582 -1.9620
   20MOL   H188 6306   5.444   4.028   5.310  0.6655  1.4555 -1.0129
   20MOL   H189 6307   5.468   3.844   5.076  0.8383 -2.6252  0.5387
   20MOL   H190 6308   5.551   3.823   5.230  0.9977 -1.0107 -2.0538
   20MOL   H191 6309   5.569   3.974   5.129  0.4119  0.2101  1.0447
   20MOL   H192 6310   5.026   4.272   5.332 -0.4494 -1.5144  0.7821
   20MOL   H193 6311   4.930   4.267   5.184 -0.4199 -0.0923  0.9372
   20MOL   C194 6312   4.944   4.081   5.261 -0.1805  0.7266  0.1330
   20MOL   O195 6313   4.904   4.016   5.141 -0.1891  0.0827  0.4585
   20MOL   C196 6314   4.802   3.924   5.148  1.0328  0.5993  0.2861
   20MOL   C197 6315   4.751   3.924   5.010 -0.0389 -0.1822 -0.1323
   20MOL   C198 6316   4.662   4.048   4.985  0.1865 -0.7985 -0.2458
   20MOL   C199 6317   5.026   3.989   5.352 -0.5134 -0.2440 -0.1711
   20MOL   H200 6318   4.853   4.104   5.316  0.3671  0.9086  0.9686
   20MOL   H201 6319   4.842   3.825   5.170 -3.2397 -1.8491 -2.2369
   20MOL   H202 6320   4.726   3.957   5.218  0.3088 -0.2014 -0.1107
   20MOL   H203 6321   4.698   3.831   4.985 -0.0658 -0.9584  2.6377
   20MOL   H204 6322   4.826   3.920   4.931 -1.5268 -0.7978 -1.5520
   20MOL   H205 6323   4.584   4.060   5.060  0.0713 -0.3144 -0.4362
   20MOL   H206 6324   4.600   4.036   4.896 -0.1091  1.7476 -0.4275
   20MOL   H207 6325   4.717   4.142   4.977  4.2639 -3.0839 -0.4337
   20MOL   H208 6326   5.095   3.932   5.289  2.1285  0.9798  1.5057
   20MOL   H209 6327   5.097   4.039   5.418 -0.2450 -3.1865  1.8633
   20MOL   C210 6328   4.946   3.874   5.431 -1.0768 -0.6359  0.4228
   20MOL   O211 6329   5.036   3.760   5.454  0.0720  0.5135  0.3033
   20MOL   C212 6330   5.014   3.656   5.367 -0.0313  0.0315  0.0691
   20MOL   C213 6331   5.135   3.554   5.376  0.6063 -0.4382 -0.1840
   20MOL   C214 6332   5.257   3.596   5.301  0.3222 -0.0026  0.0534
   20MOL   C215 6333   4.894   3.915   5.567 -0.5477 -0.1398 -0.0507
   20MOL   H216 6334   4.853   3.856   5.377 -0.5801  1.2849 -1.1410
   20MOL   H217 6335   4.920   3.609   5.397  0.2453  0.1511  1.1514
   20MOL   H218 6336   4.998   3.684   5.263  0.4450 -2.1231 -0.6229
   20MOL   H219 6337   5.112   3.449   5.358  0.1759 -0.9323  3.0002
   20MOL   H220 6338   5.174   3.541   5.477  1.5519 -0.2713 -0.5208
   20MOL   H221 6339   5.282   3.695   5.341  1.4441  0.3181 -1.3515
   20MOL   H222 6340   5.238   3.598   5.193 -1.1890  2.0727  0.3244
   20MOL   H223 6341   5.330   3.521   5.331 -0.6814 -0.3846  1.5493
   20MOL   H224 6342   4.841   3.828   5.606 -0.8710 -0.4903 -1.2444
   20MOL   H225 6343   4.975   3.927   5.638 -1.0114  1.3893  0.2358
   20MOL   C226 6344   4.803   4.042   5.578 -0.6450 -0.3215 -0.0766
   20MOL   O227 6345   4.681   4.034   5.509  0.7398 -0.3643  0.2798
   20MOL   C228 6346   4.622   4.165   5.488 -0.2782 -0.1055 -0.8785
   20MOL   C229 6347   4.547   4.173   5.358 -0.1421  0.4954  0.4720
   20MOL   C230 6348   4.520   4.319   5.318  0.2157 -0.2010  0.5362
   20MOL   C231 6349   4.767   4.067   5.728  0.0889 -0.0055  0.0437
   20MOL   H232 6350   4.859   4.129   5.544  2.3753 -2.2854 -0.3748
   20MOL   H233 6351   4.553   4.191   5.568 -1.3719 -0.0769 -1.8129
   20MOL   H234 6352   4.698   4.242   5.485 -0.8462  0.4469 -1.2070
   20MOL   H235 6353   4.447   4.136   5.380  0.0427  0.2715  0.9483
   20MOL   H236 6354   4.587   4.104   5.284 -0.9843  0.7569 -0.2443
   20MOL   H237 6355   4.460   4.384   5.381 -2.2736 -2.8473  1.0242
   20MOL   H238 6356   4.467   4.323   5.223  1.6047  2.1303 -0.1853
   20MOL   H239 6357   4.612   4.378   5.310  0.4331 -0.6101 -0.0773
   20MOL   H240 6358   4.670   4.113   5.746  0.4506  0.3664  1.1212
   20MOL   H241 6359   4.757   3.964   5.762 -0.3685  0.4286  1.2622
   20MOL   C242 6360   4.872   4.144   5.811  0.1298 -0.3875  0.1202
   20MOL   O243 6361   4.894   4.276   5.751  0.4496 -0.2193  0.2757
   20MOL   C244 6362   5.030   4.307   5.726 -0.4087 -0.5280  0.3684
   20MOL   C245 6363   5.024   4.442   5.661  0.3815 -0.8101 -0.0039
   20MOL   C246 6364   5.164   4.479   5.604  0.3825  0.8210  0.3068
   20MOL   C247 6365   4.826   4.167   5.953  0.0629  0.9082 -0.0201
   20MOL   H248 6366   4.971   4.100   5.825 -0.7047 -2.4225 -0.3286
   20MOL   H249 6367   5.094   4.313   5.814  0.2430  0.4429 -0.1644
   20MOL   H250 6368   5.085   4.236   5.664 -0.5805  0.3410 -0.8045
   20MOL   H251 6369   5.002   4.514   5.739 -1.4338 -0.8853 -0.4356
   20MOL   H252 6370   4.944   4.451   5.588  0.9057 -0.3803 -0.5308
   20MOL   H253 6371   5.196   4.410   5.526 -0.1243 -0.5401  1.2798
   20MOL   H254 6372   5.249   4.479   5.672 -0.0519  0.6684  0.8593
   20MOL   H255 6373   5.162   4.585   5.577 -0.2159  0.9107  0.6802
   20MOL   H256 6374   4.885   4.245   6.001 -1.5339  1.3361  1.2962
   20MOL   H257 6375   4.723   4.203   5.948 -0.3647 -0.0550  1.3572
   20MOL   C258 6376   4.826   4.034   6.041 -0.0471 -0.9692  0.5673
   20MOL   O259 6377   4.954   4.038   6.114 -0.2648  0.6029  0.1182
   20MOL   C260 6378   5.067   3.966   6.050  0.7903  0.6631 -1.4154
   20MOL   C261 6379   5.187   3.932   6.135 -0.6329  0.1152  0.3338
   20MOL   C262 6380   5.148   3.828   6.247 -0.3935  0.3019  0.5937
   20MOL   C263 6381   4.726   4.023   6.161 -0.2441 -0.5504 -0.1055
   20MOL   H264 6382   4.812   3.943   5.983  0.2927 -1.5163  1.3446
   20MOL   H265 6383   5.026   3.872   6.013 -2.1486  0.6111  1.8010
   20MOL   H266 6384   5.105   4.008   5.956  0.9856  1.3408 -1.0310
   20MOL   H267 6385   5.219   4.019   6.192  1.4527  1.0580 -2.2172
   20MOL   H268 6386   5.266   3.884   6.077 -1.1874 -0.6561  0.1958
   20MOL   H269 6387   5.234   3.798   6.306  1.1930 -1.0216 -2.2712
   20MOL   H270 6388   5.085   3.745   6.214  0.2911 -0.8847  2.1988
   20MOL   H271 6389   5.082   3.865   6.326  0.6146 -1.4864  2.3195
   20MOL   H272 6390   4.767   4.078   6.246  1.9826 -2.3594  0.0323
   20MOL   H273 6391   4.641   4.079   6.120  1.0242  1.4338 -0.1068
   20MOL   C274 6392   4.682   3.887   6.210  0.3544  0.6030 -0.2446
   20MOL   O275 6393   4.634   3.805   6.114 -0.7144 -0.1132 -0.2838
   20MOL   C276 6394   4.494   3.768   6.122  0.2339 -0.6301 -0.5281
   20MOL   C277 6395   4.462   3.671   6.014 -0.3536 -0.3867  1.1909
   20MOL   C278 6396   4.510   3.727   5.879 -0.0854  0.1222  0.7472
   20MOL   C279 6397   4.803   3.801   6.260  0.0669 -0.8570 -0.6505
   20MOL   H280 6398   4.614   3.904   6.294 -0.6462  0.2576 -0.9761
   20MOL   H281 6399   4.469   3.743   6.225  0.4821  1.4099  0.0559
   20MOL   H282 6400   4.445   3.864   6.109  1.5099 -0.0851 -1.4303
   20MOL   H283 6401   4.357   3.645   6.002  0.7147 -3.6351 -2.1268
   20MOL   H284 6402   4.517   3.579   6.035 -1.1008 -1.2541 -0.5587
   20MOL   H285 6403   4.473   3.829   5.873 -0.8370 -0.1316  1.1082
   20MOL   H286 6404   4.451   3.671   5.806  0.1868 -0.5282  1.0187
   20MOL   H287 6405   4.614   3.711   5.849  0.1953  0.8347  1.3223
   20MOL   H288 6406   4.857   3.777   6.169 -2.0637  0.1550 -2.2293
   20MOL   H289 6407   4.872   3.865   6.315 -1.2477 -0.5039  0.6318
   20MOL   C290 6408   4.765   3.674   6.338  0.4292  0.1717 -1.0737
   20MOL   O291 6409   4.874   3.584   6.347  0.5114 -0.2374  0.2994
   20MOL   C292 6410   4.869   3.479   6.251  0.0276 -0.4372 -0.1900
   20MOL   C293 6411   5.000   3.395   6.245 -0.2019 -0.6536  0.1584
   20MOL   C294 6412   5.128   3.460   6.206 -0.3613 -0.6749 -0.1284
   20MOL   C295 6413   4.718   3.714   6.481 -0.2090  0.0622  0.6377
   20MOL   H296 6414   4.685   3.635   6.275 -1.5499  2.3814 -0.0079
   20MOL   H297 6415   4.785   3.412   6.269 -0.8051  0.8902  0.9916
   20MOL   H298 6416   4.862   3.527   6.154  0.3043  0.0235  0.0169
   20MOL   H299 6417   4.968   3.309   6.186 -0.1400  0.1019 -0.9886
   20MOL   H300 6418   5.015   3.359   6.347  1.6831  0.2944  0.2420
   20MOL   H301 6419   5.102   3.513   6.114  1.7969  1.1848  0.2822
   20MOL   H302 6420   5.215   3.398   6.185  1.4802  1.8428 -0.1430
   20MOL   H303 6421   5.159   3.533   6.281 -0.2754  0.9390 -1.6986
   20MOL   H304 6422   4.796   3.766   6.536 -1.0154  0.1660  1.6992
   20MOL   H305 6423   4.634   3.783   6.483 -0.2259  0.0182  1.2973
   20MOL   C306 6424   4.682   3.597   6.567  0.5369  0.0081 -0.1125
   20MOL   O307 6425   4.646   3.662   6.688 -0.1479 -0.7814  0.6428
   20MOL   C308 6426   4.671   3.580   6.806  0.0969  0.1358 -0.5145
   20MOL   C309 6427   4.618   3.670   6.910 -0.5748 -0.7000 -0.2004
   20MOL   C310 6428   4.715   3.774   6.947  0.0688 -0.5769 -0.1312
   20MOL   C311 6429   4.571   3.508   6.517  0.4885 -0.6346 -0.1690
   20MOL   H312 6430   4.775   3.542   6.584  1.3310  0.6319 -2.2501
   20MOL   H313 6431   4.619   3.484   6.802 -1.7088  1.0748 -0.2414
   20MOL   H314 6432   4.779   3.566   6.806 -0.0530 -1.2751  1.9012
   20MOL   H315 6433   4.588   3.616   7.000 -0.0060 -3.3721 -1.5510
   20MOL   H316 6434   4.524   3.716   6.880  0.3039  1.6382  0.5277
   20MOL   H317 6435   4.673   3.849   7.015  2.6948  3.0729 -2.3247
   20MOL   H318 6436   4.742   3.830   6.857 -2.2812  1.6780  0.4900
   20MOL   H319 6437   4.809   3.735   6.984 -0.1916 -1.6240 -0.5552
   20MOL   H320 6438   4.482   3.568   6.499  0.0248 -0.9928  0.8506
   20MOL   H321 6439   4.605   3.449   6.432 -0.8074 -2.0116  0.2416
   20MOL   H322 6440   4.554   3.443   6.603 -2.2130  1.4821  0.9748
   21MOL     C1 6441   7.054   1.564   4.798  0.3279 -0.7584 -0.0755
   21MOL     O2 6442   7.096   1.474   4.695  0.0273 -0.1575  0.6459
   21MOL     C3 6443   7.218   1.412   4.728 -0.3835  0.0561 -0.2619
   21MOL     C4 6444   7.337   1.506   4.694  0.4128  0.1943  0.0305
   21MOL     C5 6445   7.473   1.443   4.720  0.2807  0.7627  0.5195
   21MOL     C6 6446   6.927   1.502   4.866  0.0082 -0.6009 -0.0973
   21MOL     H7 6447   7.027   1.656   4.745  1.4791 -1.2875 -1.6413
   21MOL     H8 6448   7.212   1.359   4.823 -1.8610  0.3952 -0.1504
   21MOL     H9 6449   7.219   1.335   4.651 -0.1300  0.8127 -1.0206
   21MOL    H10 6450   7.328   1.597   4.753  0.0328  0.2936 -0.1787
   21MOL    H11 6451   7.335   1.546   4.593 -1.1546 -1.8552 -0.7849
   21MOL    H12 6452   7.492   1.356   4.657 -0.7073  1.1530 -0.3271
   21MOL    H13 6453   7.483   1.403   4.821  1.1254  0.3606  0.2853
   21MOL    H14 6454   7.558   1.510   4.703 -0.6412  1.5601 -1.0329
   21MOL    H15 6455   6.863   1.473   4.783  1.1797  0.3674 -1.3683
   21MOL    H16 6456   6.959   1.409   4.912 -1.6915 -0.9788  0.3582
   21MOL    H17 6457   7.132   1.588   4.869 -0.5889  0.4799  0.5248
   21MOL    C18 6458   6.849   1.597   4.957 -0.1697  0.2113  0.6522
   21MOL    O19 6459   6.820   1.719   4.896  0.0192 -0.4403 -0.4782
   21MOL    C20 6460   6.814   1.827   4.997 -0.0323  0.9185 -1.3290
   21MOL    C21 6461   6.789   1.959   4.935 -0.4250  0.0631  0.4551
   21MOL    C22 6462   6.895   1.990   4.829  0.2189  0.2630  0.5014
   21MOL    C23 6463   6.713   1.540   5.020  0.3199  0.5796  0.1998
   21MOL    H24 6464   6.921   1.613   5.038 -0.1849 -0.4307  0.7982
   21MOL    H25 6465   6.740   1.808   5.075  0.8378  2.1889 -0.1775
   21MOL    H26 6466   6.909   1.827   5.050 -0.8990  0.5784  0.2541
   21MOL    H27 6467   6.778   2.029   5.018 -0.7072 -2.5139  2.6545
   21MOL    H28 6468   6.686   1.951   4.901 -0.8252  3.4384  0.6885
   21MOL    H29 6469   6.947   1.911   4.775 -2.7880 -1.3275 -0.2098
   21MOL    H30 6470   6.974   2.057   4.862 -0.1392  1.5058 -1.0625
   21MOL    H31 6471   6.832   2.044   4.757  0.8470 -0.4397 -0.5871
   21MOL    H32 6472   6.674   1.606   5.097 -0.9281  1.0527 -0.8096
   21MOL    H33 6473   6.646   1.540   4.934 -0.3289  1.0784  0.6995
   21MOL    C34 6474   6.714   1.398   5.075 -0.1669  0.5347 -0.3977
   21MOL    O35 6475   6.819   1.406   5.167  0.2220 -0.4950  0.1472
   21MOL    C36 6476   6.868   1.286   5.218  0.0265  0.1699 -0.0240
   21MOL    C37 6477   6.991   1.324   5.304 -0.5960 -0.6325 -0.2702
   21MOL    C38 6478   7.105   1.393   5.219  0.3194  0.8069 -0.3002
   21MOL    C39 6479   6.577   1.362   5.137  0.7028  0.0769  0.2729
   21MOL    H40 6480   6.743   1.331   4.994 -0.5951 -0.4148  0.2272
   21MOL    H41 6481   6.787   1.246   5.279  0.9953  1.0004  1.8589
   21MOL    H42 6482   6.896   1.213   5.143 -0.1483  1.3000 -1.2134
   21MOL    H43 6483   7.033   1.232   5.344  2.2327  1.4728  1.8104
   21MOL    H44 6484   6.960   1.389   5.386 -0.8793 -1.4190  0.2522
   21MOL    H45 6485   7.081   1.489   5.175 -0.6561  0.4930 -0.4785
   21MOL    H46 6486   7.143   1.313   5.155 -0.3907 -1.3551  1.8614
   21MOL    H47 6487   7.188   1.402   5.288 -0.5418 -2.5095  1.3075
   21MOL    H48 6488   6.587   1.260   5.176 -0.1116  0.3153  1.1213
   21MOL    H49 6489   6.563   1.436   5.215 -3.0013  0.8723 -1.0364
   21MOL    C50 6490   6.456   1.362   5.047 -0.2049 -0.0047 -0.1122
   21MOL    O51 6491   6.488   1.261   4.954  0.0420  0.1588 -0.4757
   21MOL    C52 6492   6.418   1.278   4.831 -0.5989  0.0355  0.2404
   21MOL    C53 6493   6.426   1.161   4.734  0.3772  0.4435 -0.0734
   21MOL    C54 6494   6.567   1.137   4.673 -0.7865 -1.0343 -0.0215
   21MOL    C55 6495   6.327   1.312   5.117 -0.4832 -0.5151  0.1058
   21MOL    H56 6496   6.441   1.458   4.997  0.6792 -0.5885 -1.5005
   21MOL    H57 6497   6.313   1.300   4.849 -0.3132 -0.2250  2.3957
   21MOL    H58 6498   6.467   1.365   4.788  0.0222 -0.3076  0.2408
   21MOL    H59 6499   6.350   1.177   4.657 -0.1361  1.3666  0.6172
   21MOL    H60 6500   6.399   1.063   4.774 -0.9285  0.3296 -1.1896
   21MOL    H61 6501   6.638   1.120   4.754 -1.4926  2.6263  1.4647
   21MOL    H62 6502   6.601   1.226   4.620 -0.5184 -1.0136  0.1874
   21MOL    H63 6503   6.572   1.053   4.604  1.9854  0.2176 -1.4137
   21MOL    H64 6504   6.242   1.298   5.049 -0.2132  0.1347 -0.3768
   21MOL    H65 6505   6.353   1.209   5.141 -1.7311 -0.8727 -0.0046
   21MOL    C66 6506   6.284   1.397   5.239 -0.1258  0.7683  0.3910
   21MOL    O67 6507   6.259   1.524   5.181 -0.5141  0.5313 -0.5334
   21MOL    C68 6508   6.219   1.630   5.261 -0.2962 -0.3475 -0.8674
   21MOL    C69 6509   6.264   1.764   5.210 -0.1718 -0.1596 -0.1888
   21MOL    C70 6510   6.408   1.763   5.156 -0.5487 -0.4447  0.2790
   21MOL    C71 6511   6.168   1.323   5.312 -0.1548 -0.0575 -0.1744
   21MOL    H72 6512   6.366   1.405   5.310  0.6766  2.8542 -0.7425
   21MOL    H73 6513   6.113   1.629   5.283 -0.0717  2.6235  0.6202
   21MOL    H74 6514   6.253   1.618   5.364  0.7779  1.1229 -1.0146
   21MOL    H75 6515   6.252   1.838   5.290  2.1745 -0.4077  0.4321
   21MOL    H76 6516   6.196   1.791   5.129 -1.7005  0.0350  1.1316
   21MOL    H77 6517   6.438   1.854   5.106 -1.0070 -1.0771 -1.1756
   21MOL    H78 6518   6.414   1.692   5.073  0.0521  0.2042 -0.2349
   21MOL    H79 6519   6.490   1.744   5.225  0.9274  0.3709 -1.2077
   21MOL    H80 6520   6.114   1.385   5.384 -1.0725  0.1185 -1.0043
   21MOL    H81 6521   6.095   1.292   5.237 -2.7011  0.8783  1.8176
   21MOL    C82 6522   6.225   1.208   5.402  0.0494  0.1104  0.5818
   21MOL    O83 6523   6.300   1.271   5.503  0.2728  0.2949 -0.3741
   21MOL    C84 6524   6.392   1.194   5.575 -0.8665  0.3158 -0.5789
   21MOL    C85 6525   6.534   1.231   5.510 -0.4491  0.2653 -0.3113
   21MOL    C86 6526   6.565   1.379   5.525  0.1627 -0.7913  0.3445
   21MOL    C87 6527   6.103   1.139   5.472 -0.7551 -0.6612 -0.2418
   21MOL    H88 6528   6.291   1.143   5.345 -1.0821 -0.0672 -0.5416
   21MOL    H89 6529   6.381   1.227   5.678 -0.7226  1.4991 -0.9456
   21MOL    H90 6530   6.372   1.087   5.568  0.1236 -0.1106  2.6448
   21MOL    H91 6531   6.539   1.207   5.404 -1.4836 -1.0822 -0.0821
   21MOL    H92 6532   6.613   1.174   5.559  0.2791  1.8839  0.4473
   21MOL    H93 6533   6.663   1.403   5.486 -0.5533 -0.1611 -1.1060
   21MOL    H94 6534   6.569   1.398   5.632  0.9482 -1.2176  0.3924
   21MOL    H95 6535   6.487   1.444   5.485 -0.6261 -1.5740  0.5931
   21MOL    H96 6536   6.132   1.077   5.557 -0.3677  1.5080  1.2318
   21MOL    H97 6537   6.037   1.208   5.524 -0.2856 -0.4124  0.0361
   21MOL    C98 6538   6.008   1.054   5.378 -0.2061 -0.6941 -0.2737
   21MOL    O99 6539   6.103   0.959   5.319 -0.4402  0.6259 -0.5237
   21MOL   C100 6540   6.066   0.916   5.192 -0.1080 -0.1479  0.2193
   21MOL   C101 6541   6.181   0.833   5.143  0.0231  0.7303 -0.0670
   21MOL   C102 6542   6.298   0.931   5.111  0.0748 -0.0486  0.2819
   21MOL   C103 6543   5.897   0.978   5.463  0.1163  0.1391 -0.1299
   21MOL   H104 6544   5.981   1.126   5.301 -0.4178 -1.4460 -0.9036
   21MOL   H105 6545   5.975   0.857   5.181  0.6372 -1.1402 -0.7570
   21MOL   H106 6546   6.046   0.991   5.115  0.4361 -1.3484 -1.1178
   21MOL   H107 6547   6.139   0.767   5.066  0.5713 -0.1882  0.4146
   21MOL   H108 6548   6.215   0.768   5.223 -1.0976  0.9313  0.5852
   21MOL   H109 6549   6.350   0.977   5.195 -0.6883 -0.2065  0.8360
   21MOL   H110 6550   6.290   1.010   5.037 -0.0754  1.8566  2.2755
   21MOL   H111 6551   6.374   0.857   5.083 -0.5319 -0.1841 -1.0587
   21MOL   H112 6552   5.849   0.889   5.421 -0.8242  1.3615 -1.7117
   21MOL   H113 6553   5.949   0.931   5.547 -0.3319  0.1949  0.1813
   21MOL   C114 6554   5.788   1.074   5.526 -0.2415  0.6549 -0.3630
   21MOL   O115 6555   5.726   1.133   5.418 -0.4638  0.3672  0.2133
   21MOL   C116 6556   5.666   1.266   5.441 -0.0227 -0.0013 -0.1939
   21MOL   C117 6557   5.568   1.303   5.328  0.4526 -0.2334 -1.0139
   21MOL   C118 6558   5.442   1.218   5.333 -0.0308 -0.4204 -0.9724
   21MOL   C119 6559   5.689   0.991   5.615  0.2851 -0.2324  0.2737
   21MOL   H120 6560   5.833   1.155   5.584 -0.6965  0.8086 -0.2267
   21MOL   H121 6561   5.613   1.268   5.537  0.4240  0.2815  0.0488
   21MOL   H122 6562   5.756   1.327   5.447 -0.7381  0.9716  0.7323
   21MOL   H123 6563   5.612   1.295   5.228  2.1624  3.6415 -0.6901
   21MOL   H124 6564   5.540   1.408   5.337 -1.5075 -0.6490 -1.9546
   21MOL   H125 6565   5.469   1.113   5.343  0.0714 -0.4096 -1.1304
   21MOL   H126 6566   5.380   1.231   5.244  0.8493  4.1191 -1.0640
   21MOL   H127 6567   5.385   1.252   5.420 -0.5367  2.0010 -2.1875
   21MOL   H128 6568   5.602   1.054   5.635  1.4808  1.2733  0.8335
   21MOL   H129 6569   5.649   0.907   5.559  1.1370 -0.0762 -0.5835
   21MOL   C130 6570   5.743   0.944   5.755 -0.4305  0.5684 -0.4226
   21MOL   O131 6571   5.801   1.057   5.808 -0.6664  0.6840 -0.0045
   21MOL   C132 6572   5.930   1.028   5.867  0.3704  0.1822 -0.4729
   21MOL   C133 6573   5.964   1.160   5.932  0.2269 -0.4492 -0.6327
   21MOL   C134 6574   5.976   1.281   5.833 -0.3911  0.1307  0.6407
   21MOL   C135 6575   5.621   0.897   5.840  0.3760 -0.3655  0.2761
   21MOL   H136 6576   5.804   0.856   5.739  0.8949  1.4696 -0.4264
   21MOL   H137 6577   5.898   0.954   5.940  0.0980  1.1771  0.4246
   21MOL   H138 6578   6.009   0.987   5.804 -0.2019 -1.2330 -0.2790
   21MOL   H139 6579   6.061   1.145   5.980 -1.3932 -0.5266  2.7748
   21MOL   H140 6580   5.884   1.186   6.002 -0.1257 -1.9086 -0.4797
   21MOL   H141 6581   5.885   1.320   5.787 -0.0827  1.6282  1.2838
   21MOL   H142 6582   6.054   1.257   5.761  1.0765  2.4078  1.4127
   21MOL   H143 6583   6.008   1.372   5.884  2.7537 -0.9243  0.6457
   21MOL   H144 6584   5.653   0.877   5.942  0.6212 -0.4059  0.1910
   21MOL   H145 6585   5.551   0.979   5.857 -0.7294 -1.0733 -0.7081
   21MOL   C146 6586   5.543   0.769   5.787 -0.6839  0.2998  0.4224
   21MOL   O147 6587   5.611   0.658   5.847 -0.4133  0.2481  0.4333
   21MOL   C148 6588   5.622   0.541   5.753 -0.4190 -0.6195  0.1149
   21MOL   C149 6589   5.641   0.412   5.845  0.8351  0.2065  0.0517
   21MOL   C150 6590   5.671   0.299   5.751  0.0623  0.1104 -0.0908
   21MOL   C151 6591   5.399   0.752   5.827  0.0500 -0.1824  0.1494
   21MOL   H152 6592   5.546   0.767   5.678 -3.0095 -1.1795  0.3339
   21MOL   H153 6593   5.554   0.521   5.670 -2.1092 -1.1469  1.5992
   21MOL   H154 6594   5.720   0.563   5.711  0.0725 -1.9817  0.5606
   21MOL   H155 6595   5.543   0.394   5.888  0.9791  1.6256  0.9874
   21MOL   H156 6596   5.715   0.439   5.919 -1.4372  5.1855  0.7112
   21MOL   H157 6597   5.589   0.283   5.682  1.4560 -2.1010 -1.3086
   21MOL   H158 6598   5.685   0.201   5.798  0.0533  0.6937  1.1602
   21MOL   H159 6599   5.754   0.325   5.686  0.8863  0.0317  0.9084
   21MOL   H160 6600   5.358   0.657   5.792 -0.6857  1.0578 -2.4966
   21MOL   H161 6601   5.376   0.759   5.933 -3.6284  0.5858 -0.6188
   21MOL   C162 6602   5.301   0.846   5.754  0.4546 -0.7096  0.1945
   21MOL   O163 6603   5.314   0.814   5.618  0.2672 -0.3224  0.3791
   21MOL   C164 6604   5.311   0.917   5.519 -0.8272  0.6383 -1.1446
   21MOL   C165 6605   5.308   0.848   5.380  0.4122 -0.2473 -0.7168
   21MOL   C166 6606   5.443   0.784   5.350 -0.4187 -0.1128  0.0677
   21MOL   C167 6607   5.152   0.832   5.778 -0.1835 -0.0552 -0.7517
   21MOL   H168 6608   5.333   0.947   5.778 -0.4018 -0.6122  0.9689
   21MOL   H169 6609   5.218   0.973   5.532 -2.2603 -1.5522 -1.7162
   21MOL   H170 6610   5.394   0.986   5.534 -0.4594  0.2012 -1.1525
   21MOL   H171 6611   5.282   0.918   5.301  0.5306 -2.0222 -2.3429
   21MOL   H172 6612   5.233   0.769   5.375  0.3891 -0.1973 -1.1748
   21MOL   H173 6613   5.524   0.856   5.357  1.4863 -2.2539  0.5906
   21MOL   H174 6614   5.449   0.725   5.258  1.0780 -0.8735  0.6364
   21MOL   H175 6615   5.461   0.707   5.425  0.9416 -0.2546 -0.3886
   21MOL   H176 6616   5.087   0.874   5.701 -0.1949  1.3935  0.0251
   21MOL   H177 6617   5.120   0.729   5.794 -3.0979  0.9455  0.2182
   21MOL   C178 6618   5.107   0.905   5.903 -0.2753 -0.0256  0.2141
   21MOL   O179 6619   5.087   1.044   5.862  0.3149  0.6694  0.5598
   21MOL   C180 6620   5.165   1.128   5.938 -0.4037  0.1854  0.1435
   21MOL   C181 6621   5.176   1.259   5.863 -0.0261 -0.4455  0.0267
   21MOL   C182 6622   5.254   1.259   5.734  0.1390  0.0547 -0.0800
   21MOL   C183 6623   4.981   0.849   5.969 -0.2091  0.2017  0.3295
   21MOL   H184 6624   5.187   0.893   5.976 -1.5941 -2.6404  1.2928
   21MOL   H185 6625   5.112   1.143   6.032  0.4810  3.1660  0.2422
   21MOL   H186 6626   5.266   1.095   5.962  0.5104  2.0630 -0.9962
   21MOL   H187 6627   5.222   1.329   5.933 -0.0828 -0.6388  0.2607
   21MOL   H188 6628   5.079   1.306   5.845  1.0601  1.9597  0.2498
   21MOL   H189 6629   5.195   1.210   5.656  0.3408  0.5484 -0.5472
   21MOL   H190 6630   5.352   1.213   5.745 -0.0955 -0.3868  0.1849
   21MOL   H191 6631   5.257   1.366   5.716 -0.7314  0.3738  1.5612
   21MOL   H192 6632   4.943   0.938   6.019  0.0783 -0.3663  1.5571
   21MOL   H193 6633   4.919   0.825   5.882  1.6421 -0.6806 -0.7842
   21MOL   C194 6634   5.001   0.735   6.074 -0.2656 -0.2027  0.2323
   21MOL   O195 6635   5.112   0.653   6.047 -0.1845  0.3359 -0.0096
   21MOL   C196 6636   5.121   0.523   6.112  0.1710  0.3610 -0.1964
   21MOL   C197 6637   5.197   0.431   6.010 -0.1472  0.0442  0.2741
   21MOL   C198 6638   5.206   0.287   6.061 -0.0300  0.2147  0.6268
   21MOL   C199 6639   5.007   0.783   6.223 -0.4166 -0.0050  0.0466
   21MOL   H200 6640   4.913   0.671   6.065 -1.2924  1.1831  0.3944
   21MOL   H201 6641   5.190   0.541   6.193  0.2086 -0.1967 -0.1048
   21MOL   H202 6642   5.030   0.478   6.151  0.9740 -0.0468  1.2149
   21MOL   H203 6643   5.298   0.462   5.984 -0.1819 -0.6028 -0.6416
   21MOL   H204 6644   5.140   0.439   5.917  1.5038  0.3348 -0.7336
   21MOL   H205 6645   5.112   0.256   6.108 -1.1527  0.1628 -1.5904
   21MOL   H206 6646   5.291   0.279   6.128  0.4514  0.4522  0.0470
   21MOL   H207 6647   5.244   0.220   5.984 -2.4898  0.3250 -0.7234
   21MOL   H208 6648   4.915   0.837   6.242  0.9655  1.9446  1.3367
   21MOL   H209 6649   4.994   0.705   6.298  1.6117  1.6560  2.1647
   21MOL   C210 6650   5.121   0.885   6.257  0.6211 -0.0300 -0.1829
   21MOL   O211 6651   5.094   0.932   6.387 -0.5735 -0.1641  0.4378
   21MOL   C212 6652   5.024   1.058   6.408  0.5291 -0.1143  0.4297
   21MOL   C213 6653   5.009   1.080   6.555 -1.0497 -0.5541  0.8342
   21MOL   C214 6654   5.143   1.088   6.624  0.4638  0.1537 -0.0532
   21MOL   C215 6655   5.265   0.822   6.266  0.0851  0.5513  0.4602
   21MOL   H216 6656   5.132   0.965   6.184  1.1528  0.0929  0.0316
   21MOL   H217 6657   5.077   1.145   6.369  1.4638 -0.7688  0.2257
   21MOL   H218 6658   4.923   1.052   6.366  0.2365 -0.7912  1.2094
   21MOL   H219 6659   4.940   1.012   6.605 -0.0975 -2.0954  0.0903
   21MOL   H220 6660   4.971   1.181   6.570  0.3802  0.0446  0.5248
   21MOL   H221 6661   5.216   1.012   6.596 -0.2695 -0.6022  0.0717
   21MOL   H222 6662   5.127   1.073   6.731  0.3454 -0.4844 -0.1631
   21MOL   H223 6663   5.178   1.189   6.602 -0.6101  0.3198 -1.0657
   21MOL   H224 6664   5.260   0.748   6.345  2.2120 -1.0967 -0.8786
   21MOL   H225 6665   5.278   0.762   6.176 -0.0316 -2.0427  2.1270
   21MOL   C226 6666   5.392   0.914   6.298 -0.1117  0.7684 -0.3293
   21MOL   O227 6667   5.508   0.834   6.304 -0.0621 -0.0446  0.6280
   21MOL   C228 6668   5.569   0.779   6.187  0.3373 -0.5209 -0.1352
   21MOL   C229 6669   5.607   0.634   6.213  0.0871  0.5194 -0.0325
   21MOL   C230 6670   5.488   0.546   6.245 -0.4367  0.3194 -0.6778
   21MOL   C231 6671   5.408   1.036   6.205 -0.0262  0.0346 -0.1737
   21MOL   H232 6672   5.384   0.946   6.402 -1.3636 -0.6514  0.0244
   21MOL   H233 6673   5.502   0.788   6.101 -1.2146 -0.9638  1.0229
   21MOL   H234 6674   5.664   0.832   6.179  0.6838 -1.1412 -0.2107
   21MOL   H235 6675   5.658   0.626   6.309  0.8986 -1.2166 -0.5871
   21MOL   H236 6676   5.667   0.593   6.132 -0.7607  0.2420 -0.5233
   21MOL   H237 6677   5.527   0.452   6.284 -2.2364 -1.0209 -2.0160
   21MOL   H238 6678   5.438   0.523   6.151  1.5465  0.1918 -1.7297
   21MOL   H239 6679   5.422   0.585   6.322  2.1598  0.2776  1.6685
   21MOL   H240 6680   5.432   1.004   6.104 -0.4517 -0.6924 -0.0427
   21MOL   H241 6681   5.312   1.087   6.194 -0.0671 -0.4353 -2.1066
   21MOL   C242 6682   5.495   1.152   6.262 -0.4990  0.3560 -0.0300
   21MOL   O243 6683   5.503   1.246   6.152  0.0930  0.0928  0.6633
   21MOL   C244 6684   5.621   1.242   6.077 -0.4786 -0.3192  0.4211
   21MOL   C245 6685   5.584   1.287   5.939 -0.0023  0.0628 -0.0285
   21MOL   C246 6686   5.520   1.423   5.948  0.1796  0.1896 -0.0771
   21MOL   C247 6687   5.425   1.229   6.376  0.0010  0.4141  0.5689
   21MOL   H248 6688   5.591   1.113   6.297 -1.1275 -0.0077  1.3020
   21MOL   H249 6689   5.689   1.304   6.135  0.0180 -0.9178  0.4722
   21MOL   H250 6690   5.662   1.142   6.072  0.8026  0.2302 -0.2552
   21MOL   H251 6691   5.511   1.219   5.896  0.5822 -0.2665 -0.5062
   21MOL   H252 6692   5.666   1.288   5.867  1.1022 -1.1607  1.1998
   21MOL   H253 6693   5.588   1.495   5.995  0.1576  0.4921 -0.5022
   21MOL   H254 6694   5.426   1.435   6.002  0.0730 -0.1168 -0.1968
   21MOL   H255 6695   5.499   1.474   5.854 -0.3145  0.1438  0.0059
   21MOL   H256 6696   5.322   1.253   6.349  0.0031 -0.8782 -0.5894
   21MOL   H257 6697   5.420   1.165   6.464  0.2714 -1.1075 -0.5225
   21MOL   C258 6698   5.486   1.355   6.428  1.0735 -0.1865  0.1503
   21MOL   O259 6699   5.389   1.412   6.509 -0.3288 -0.6457 -0.0628
   21MOL   C260 6700   5.320   1.528   6.462  0.1900 -0.2513 -0.1613
   21MOL   C261 6701   5.233   1.567   6.575 -0.4153 -0.5613  0.7005
   21MOL   C262 6702   5.301   1.649   6.682  0.4299 -0.5661  0.2861
   21MOL   C263 6703   5.608   1.323   6.518  0.3928  0.1204  0.0315
   21MOL   H264 6704   5.517   1.408   6.338 -0.4714 -0.1734 -0.3924
   21MOL   H265 6705   5.385   1.612   6.436  0.5207  0.1345  1.8701
   21MOL   H266 6706   5.270   1.483   6.376  3.3242 -2.6700 -0.8250
   21MOL   H267 6707   5.185   1.476   6.611 -2.2292  0.8768  1.9452
   21MOL   H268 6708   5.153   1.618   6.523 -1.0430 -1.1656  1.0671
   21MOL   H269 6709   5.223   1.675   6.753  0.3284 -0.3578  0.0977
   21MOL   H270 6710   5.347   1.739   6.642 -1.7531  0.0475 -0.9195
   21MOL   H271 6711   5.377   1.597   6.740 -0.4993 -0.2081  1.8861
   21MOL   H272 6712   5.575   1.254   6.596  2.0136 -2.0922 -1.1608
   21MOL   H273 6713   5.685   1.273   6.459 -1.3641 -0.7541 -1.5884
   21MOL   C274 6714   5.669   1.455   6.582 -0.3958  0.3705  0.1559
   21MOL   O275 6715   5.759   1.414   6.678  0.2300  0.0163  0.3649
   21MOL   C276 6716   5.728   1.465   6.808  0.5867  0.0502  0.1762
   21MOL   C277 6717   5.837   1.423   6.905  0.7212  0.2506 -0.3524
   21MOL   C278 6718   5.811   1.280   6.956  0.1264  0.2569 -0.2759
   21MOL   C279 6719   5.737   1.557   6.488  0.0393 -0.2388  0.3980
   21MOL   H280 6720   5.587   1.508   6.631 -1.4808 -1.4516  0.3329
   21MOL   H281 6721   5.734   1.574   6.806 -0.8096  0.1289 -0.6328
   21MOL   H282 6722   5.633   1.431   6.849 -0.3509  2.5041  0.0969
   21MOL   H283 6723   5.837   1.494   6.987 -0.0507 -0.2032  0.0383
   21MOL   H284 6724   5.941   1.430   6.872  1.0304  0.5276  0.6574
   21MOL   H285 6725   5.716   1.281   7.010 -0.0992 -2.7335 -0.5531
   21MOL   H286 6726   5.884   1.241   7.027 -2.1128  0.5358  2.2461
   21MOL   H287 6727   5.803   1.204   6.879 -1.2640 -0.9816  1.0575
   21MOL   H288 6728   5.655   1.614   6.444  0.3370  0.6244  0.9417
   21MOL   H289 6729   5.796   1.631   6.543  0.3482  1.3713 -2.0149
   21MOL   C290 6730   5.836   1.489   6.384  0.5284 -0.7354  0.7328
   21MOL   O291 6731   5.867   1.593   6.296 -0.0024  0.0552 -0.3385
   21MOL   C292 6732   5.783   1.595   6.183 -0.7727 -0.4311  0.3722
   21MOL   C293 6733   5.887   1.577   6.073  1.0023  0.2518 -0.0489
   21MOL   C294 6734   5.830   1.625   5.942  0.0647 -0.4828 -0.3700
   21MOL   C295 6735   5.964   1.429   6.444 -0.1484  0.9464 -0.2547
   21MOL   H296 6736   5.795   1.404   6.330  0.1511 -0.3434  0.4000
   21MOL   H297 6737   5.712   1.512   6.187  0.8035 -1.7333  2.0212
   21MOL   H298 6738   5.728   1.689   6.186 -0.2550 -0.1035 -0.3088
   21MOL   H299 6739   5.926   1.475   6.062  0.7507  0.1966 -0.4168
   21MOL   H300 6740   5.964   1.649   6.099  1.3439 -1.2248  3.2644
   21MOL   H301 6741   5.769   1.714   5.961  0.3345  0.0086 -1.7663
   21MOL   H302 6742   5.765   1.560   5.883 -0.4065 -1.8754  1.6344
   21MOL   H303 6743   5.910   1.657   5.876  0.5145 -2.8520 -0.9939
   21MOL   H304 6744   6.033   1.500   6.489 -1.9204  3.3600 -1.2155
   21MOL   H305 6745   5.936   1.363   6.525  2.1764 -3.0064 -2.5053
   21MOL   C306 6746   6.059   1.366   6.341  0.2303 -0.6068 -0.1922
   21MOL   O307 6747   6.185   1.346   6.412 -0.3264  0.2425  0.4411
   21MOL   C308 6748   6.294   1.436   6.379  0.1883 -0.0420 -0.0908
   21MOL   C309 6749   6.423   1.414   6.459 -0.1462  0.0127  0.4416
   21MOL   C310 6750   6.492   1.290   6.410  0.2509  0.0078 -0.6295
   21MOL   C311 6751   6.017   1.224   6.291 -0.5544 -0.0585 -0.3591
   21MOL   H312 6752   6.071   1.434   6.257  2.1549  0.5635  0.9775
   21MOL   H313 6753   6.297   1.440   6.270 -0.0899  0.5783 -0.0750
   21MOL   H314 6754   6.259   1.537   6.397  1.1893  0.6771 -1.9498
   21MOL   H315 6755   6.397   1.407   6.565  0.8773  0.9580  0.7675
   21MOL   H316 6756   6.496   1.493   6.444  0.8999 -1.5078 -3.0376
   21MOL   H317 6757   6.521   1.292   6.305  0.1600  0.5419 -0.6474
   21MOL   H318 6758   6.432   1.202   6.431  0.0389 -0.2077 -2.1102
   21MOL   H319 6759   6.587   1.279   6.463 -0.2259 -1.6591 -0.0922
   21MOL   H320 6760   5.921   1.234   6.240 -1.0797  1.3197  0.8479
   21MOL   H321 6761   6.088   1.178   6.223 -1.9032  0.5574 -2.2375
   21MOL   H322 6762   5.993   1.164   6.379  1.9072  1.6382  1.5447
   22MOL     C1 6763   0.414   5.021   1.087 -0.1320  0.1040  0.1771
   22MOL     O2 6764   0.295   4.999   1.010  0.2125  0.1275 -0.0687
   22MOL     C3 6765   0.242   5.121   0.953  0.2720 -0.1946 -0.0909
   22MOL     C4 6766   0.092   5.108   0.942  0.4183 -0.1153 -0.0792
   22MOL     C5 6767   0.028   5.093   1.079 -0.3913  0.0732 -0.3863
   22MOL     C6 6768   0.480   4.892   1.133  0.0415  0.4212 -0.8488
   22MOL     H7 6769   0.392   5.086   1.171  0.7293 -0.3904  0.7892
   22MOL     H8 6770   0.254   5.208   1.017 -3.2913  1.0522 -0.9964
   22MOL     H9 6771   0.282   5.143   0.854  1.5698 -0.2309  0.4126
   22MOL    H10 6772   0.073   5.007   0.904 -0.9802  1.1238 -2.8518
   22MOL    H11 6773   0.051   5.169   0.861  0.4825  0.7584  0.5522
   22MOL    H12 6774   0.002   5.191   1.119 -0.4234  0.1334 -0.5544
   22MOL    H13 6775   0.085   5.031   1.148 -1.5106  0.4429  0.9068
   22MOL    H14 6776   7.757   5.049   1.062 -0.1522 -0.3817 -0.6046
   22MOL    H15 6777   0.415   4.849   1.210 -0.6792  0.6956 -1.3070
   22MOL    H16 6778   0.490   4.820   1.052 -2.7968 -0.3148 -0.5728
   22MOL    H17 6779   0.489   5.075   1.029  0.0596  0.5975  0.8754
   22MOL    C18 6780   0.622   4.904   1.198  0.0706  0.1055 -0.2635
   22MOL    O19 6781   0.705   4.955   1.095  0.1277 -0.2167 -0.0721
   22MOL    C20 6782   0.841   4.913   1.088 -0.0124  0.0197 -0.3429
   22MOL    C21 6783   0.906   4.960   0.965  0.1858 -0.4028  0.2631
   22MOL    C22 6784   0.913   5.114   0.937 -0.1355 -0.4574 -0.5097
   22MOL    C23 6785   0.625   4.991   1.325 -0.5915  0.0125 -0.2938
   22MOL    H24 6786   0.661   4.803   1.212 -0.4760  0.0362  0.8563
   22MOL    H25 6787   0.895   4.946   1.176  2.5474  0.1587 -1.9267
   22MOL    H26 6788   0.840   4.805   1.074 -1.1583 -0.0863  0.4647
   22MOL    H27 6789   0.869   4.905   0.879  2.1862 -0.1279 -0.8219
   22MOL    H28 6790   1.009   4.935   0.990  1.2211  2.2216 -1.1248
   22MOL    H29 6791   0.843   5.156   1.010 -0.8387  1.0411 -2.0301
   22MOL    H30 6792   0.865   5.132   0.841  0.6041  0.8837 -0.6334
   22MOL    H31 6793   1.006   5.166   0.958 -1.2843  1.3372  0.2658
   22MOL    H32 6794   0.724   4.980   1.370  0.7059  0.2482 -2.9961
   22MOL    H33 6795   0.610   5.097   1.303 -1.8589  0.1804  1.3309
   22MOL    C34 6796   0.526   4.947   1.445 -0.0381 -0.9515  0.5998
   22MOL    O35 6797   0.560   4.813   1.478  0.0024 -0.2027 -0.1748
   22MOL    C36 6798   0.448   4.722   1.494 -0.2221 -0.1195  0.1356
   22MOL    C37 6799   0.509   4.586   1.528 -0.5711  0.4714  0.4761
   22MOL    C38 6800   0.539   4.564   1.679 -0.2062  0.8991  0.5290
   22MOL    C39 6801   0.529   5.036   1.575  0.7731  0.4172  0.2565
   22MOL    H40 6802   0.424   4.957   1.409 -0.2085  2.9783  1.9775
   22MOL    H41 6803   0.379   4.764   1.567 -1.5607 -2.0946  0.0428
   22MOL    H42 6804   0.388   4.725   1.403 -1.2457 -3.6412  0.6249
   22MOL    H43 6805   0.601   4.571   1.471 -0.0782 -1.3360  1.7158
   22MOL    H44 6806   0.442   4.507   1.495 -1.1235  0.2956  1.9973
   22MOL    H45 6807   0.563   4.659   1.726  0.0927  1.9533 -1.6626
   22MOL    H46 6808   0.626   4.500   1.696 -0.1285  0.6127 -0.8493
   22MOL    H47 6809   0.454   4.522   1.731 -0.1037 -0.9237 -0.7262
   22MOL    H48 6810   0.453   5.004   1.647 -0.0350  2.0437  0.1626
   22MOL    H49 6811   0.623   5.013   1.624  1.3718  0.3725 -0.8780
   22MOL    C50 6812   0.516   5.191   1.561  0.5047  0.0497  0.1110
   22MOL    O51 6813   0.381   5.214   1.502 -0.2696 -0.0483  0.5033
   22MOL    C52 6814   0.263   5.214   1.589 -0.8196 -0.4617 -0.6835
   22MOL    C53 6815   0.146   5.211   1.500 -1.5828  0.6438  0.4139
   22MOL    C54 6816   0.138   5.081   1.410  0.0761 -0.0177 -0.0404
   22MOL    C55 6817   0.530   5.255   1.699  0.3630  0.2416 -0.1920
   22MOL    H56 6818   0.600   5.224   1.499  2.0297 -0.1301  2.0383
   22MOL    H57 6819   0.266   5.133   1.662  1.9352  2.9000  3.1855
   22MOL    H58 6820   0.266   5.310   1.641 -0.0842 -0.1402 -1.2982
   22MOL    H59 6821   0.147   5.302   1.440 -0.1921  0.1090 -0.3904
   22MOL    H60 6822   0.069   5.209   1.577 -1.7784  2.3590  0.2724
   22MOL    H61 6823   0.217   5.079   1.335  0.8928  1.9102  0.7321
   22MOL    H62 6824   0.039   5.071   1.367  0.2372 -1.1018 -0.1673
   22MOL    H63 6825   0.164   4.989   1.463 -2.5046 -0.6077  0.2395
   22MOL    H64 6826   0.446   5.226   1.762  0.3654 -2.5316 -1.3963
   22MOL    H65 6827   0.614   5.216   1.757  0.6790  2.5993  0.9962
   22MOL    C66 6828   0.551   5.405   1.694  0.1042  0.3067 -0.2804
   22MOL    O67 6829   0.499   5.449   1.819  0.5043  0.2444 -0.0386
   22MOL    C68 6830   0.355   5.463   1.836  0.0530  0.1214  1.0699
   22MOL    C69 6831   0.331   5.589   1.922 -0.0784  0.2254 -0.0131
   22MOL    C70 6832   0.207   5.676   1.888 -0.5359 -0.2410  0.0421
   22MOL    C71 6833   0.699   5.446   1.690 -0.3873 -0.0409 -0.4233
   22MOL    H72 6834   0.510   5.451   1.604  0.6340 -1.2327 -1.3443
   22MOL    H73 6835   0.317   5.479   1.735  0.7102  2.9472  1.2263
   22MOL    H74 6836   0.314   5.373   1.882 -0.2893 -0.5945 -0.5963
   22MOL    H75 6837   0.423   5.647   1.926  1.1478 -1.5936 -1.1553
   22MOL    H76 6838   0.320   5.547   2.022  2.1079 -2.4188 -0.8048
   22MOL    H77 6839   0.120   5.612   1.868 -1.3563  0.6548  0.6782
   22MOL    H78 6840   0.232   5.743   1.805 -0.9353  0.7400  0.7053
   22MOL    H79 6841   0.191   5.741   1.973  0.2027  0.7602 -0.5717
   22MOL    H80 6842   0.739   5.391   1.775 -1.1881 -0.0242 -0.0324
   22MOL    H81 6843   0.765   5.407   1.612  1.6425  2.9876 -0.3208
   22MOL    C82 6844   0.723   5.601   1.716  0.0445  1.4899  0.1660
   22MOL    O83 6845   0.858   5.611   1.753 -0.1437 -0.5391  0.0619
   22MOL    C84 6846   0.873   5.645   1.893 -0.5687  0.0208 -0.2710
   22MOL    C85 6847   1.017   5.673   1.924 -1.1387 -0.5616 -0.2986
   22MOL    C86 6848   1.047   5.742   2.062 -0.3784  0.7769  0.8236
   22MOL    C87 6849   0.699   5.673   1.581  0.2071  0.2653 -0.1006
   22MOL    H88 6850   0.660   5.653   1.788 -0.3319  0.0578  0.8946
   22MOL    H89 6851   0.821   5.741   1.903 -1.2184 -0.3231 -0.2953
   22MOL    H90 6852   0.833   5.578   1.970 -0.1702 -0.0429 -0.1201
   22MOL    H91 6853   1.055   5.732   1.840  1.0949  0.9924  1.7058
   22MOL    H92 6854   1.065   5.576   1.916 -0.8282 -0.8848  4.2027
   22MOL    H93 6855   1.011   5.681   2.145  2.3664 -0.1148  1.4000
   22MOL    H94 6856   0.985   5.830   2.078  0.3080  1.8245 -2.0216
   22MOL    H95 6857   1.152   5.771   2.068  0.2976 -1.0473 -1.5029
   22MOL    H96 6858   0.763   5.633   1.502 -0.2141  1.1479 -0.9009
   22MOL    H97 6859   0.599   5.645   1.549  0.0350 -0.9275  1.4443
   22MOL    C98 6860   0.685   5.826   1.574 -0.3206  0.7051  0.3523
   22MOL    O99 6861   0.746   5.875   1.454  0.2524  0.7475  0.0931
   22MOL   C100 6862   0.877   5.863   1.450  0.3540  0.3896  0.1945
   22MOL   C101 6863   0.931   6.001   1.407  0.6818 -0.0365  0.2466
   22MOL   C102 6864   0.890   6.051   1.270  0.0347 -0.0374  0.4804
   22MOL   C103 6865   0.539   5.882   1.578  0.7603 -0.0450  0.4192
   22MOL   H104 6866   0.737   5.867   1.661 -1.7807  1.3980  0.9079
   22MOL   H105 6867   0.911   5.842   1.552  2.6778 -1.1158 -0.8582
   22MOL   H106 6868   0.905   5.788   1.376 -0.8263 -0.4345  0.5528
   22MOL   H107 6869   1.039   5.992   1.394  0.6409 -0.9647  0.5136
   22MOL   H108 6870   0.908   6.073   1.486 -0.8885  2.5062 -2.4558
   22MOL   H109 6871   0.782   6.062   1.266  0.0874  0.8506  1.3505
   22MOL   H110 6872   0.928   5.979   1.198 -2.2159 -0.5955 -0.1931
   22MOL   H111 6873   0.942   6.144   1.247  2.1905 -0.9842  1.4159
   22MOL   H112 6874   0.497   5.869   1.479 -1.5805  1.9147  1.0965
   22MOL   H113 6875   0.473   5.814   1.633 -0.1739  0.8467  0.4100
   22MOL   C114 6876   0.527   6.021   1.641  0.1090  0.2803  0.1346
   22MOL   O115 6877   0.569   6.018   1.777 -0.0932  0.2979  0.2786
   22MOL   C116 6878   0.472   5.993   1.874 -0.7048  0.2414 -0.0749
   22MOL   C117 6879   0.530   6.018   2.019  0.3380  0.1958 -0.2675
   22MOL   C118 6880   0.449   5.947   2.125  0.1646 -0.1264 -0.6677
   22MOL   C119 6881   0.611   6.139   1.578  0.9690 -0.3554  0.0958
   22MOL   H120 6882   0.422   6.038   1.617  0.1173 -0.0951 -0.1790
   22MOL   H121 6883   0.384   6.055   1.855  0.8533  2.0841 -1.4774
   22MOL   H122 6884   0.424   5.896   1.859 -0.1061  0.0764 -0.9734
   22MOL   H123 6885   0.549   6.125   2.032 -2.1212  0.6539 -0.0326
   22MOL   H124 6886   0.627   5.970   2.015  0.0697 -0.3317 -0.5184
   22MOL   H125 6887   0.454   5.841   2.100  1.1302 -0.2037 -0.1783
   22MOL   H126 6888   0.344   5.973   2.135 -0.0536 -0.4119 -2.0849
   22MOL   H127 6889   0.496   5.946   2.224 -1.7105  0.1178  0.2348
   22MOL   H128 6890   0.630   6.213   1.656 -1.0701  0.8695 -0.5440
   22MOL   H129 6891   0.708   6.093   1.560  1.5194  1.3555 -1.4734
   22MOL   C130 6892   0.559   6.201   1.445  0.6601 -0.2696 -0.2416
   22MOL   O131 6893   0.414   6.218   1.444  0.2437 -0.7535 -0.5826
   22MOL   C132 6894   0.365   6.315   1.530 -0.6003 -0.7702 -0.1038
   22MOL   C133 6895   0.212   6.326   1.518 -0.1291  0.1383 -0.2998
   22MOL   C134 6896   0.131   6.204   1.550  0.5132 -0.6544 -0.0435
   22MOL   C135 6897   0.642   6.319   1.400  0.3058 -0.1550  0.5392
   22MOL   H136 6898   0.577   6.114   1.381  0.3198  1.3776 -2.6304
   22MOL   H137 6899   0.408   6.306   1.629 -0.3742  0.7181 -0.0599
   22MOL   H138 6900   0.416   6.408   1.504 -2.4134  0.2585 -0.0235
   22MOL   H139 6901   0.198   6.354   1.413  0.7231 -0.3259 -0.5354
   22MOL   H140 6902   0.177   6.401   1.589  0.2407  1.1508 -1.1560
   22MOL   H141 6903   0.125   6.189   1.658 -0.3510 -0.8894 -0.1220
   22MOL   H142 6904   0.160   6.110   1.503  0.1390 -0.9789  0.3711
   22MOL   H143 6905   0.024   6.216   1.533  1.0172  3.8522 -0.6730
   22MOL   H144 6906   0.641   6.393   1.481 -0.3693  1.3590 -0.8164
   22MOL   H145 6907   0.745   6.286   1.385  0.4745  0.5973  0.0237
   22MOL   C146 6908   0.590   6.381   1.271  0.3902 -0.4633 -0.2776
   22MOL   O147 6909   0.682   6.487   1.240 -0.2626 -0.4077  0.3423
   22MOL   C148 6910   0.666   6.605   1.315 -0.8726  0.2714 -0.0427
   22MOL   C149 6911   0.722   6.710   1.229  0.3057 -0.1437 -0.2105
   22MOL   C150 6912   0.619   6.769   1.132 -0.3751 -0.8669 -0.2289
   22MOL   C151 6913   0.588   6.282   1.151  0.4118 -0.4682  0.2125
   22MOL   H152 6914   0.490   6.424   1.274  0.9119  0.6425  2.1626
   22MOL   H153 6915   0.561   6.617   1.341 -1.3971 -0.4558 -1.7558
   22MOL   H154 6916   0.718   6.609   1.411 -1.5908 -0.9541  0.4127
   22MOL   H155 6917   0.812   6.678   1.175  1.3579 -0.3428  1.6205
   22MOL   H156 6918   0.753   6.790   1.296  0.8340 -0.5567  0.0344
   22MOL   H157 6919   0.569   6.843   1.194  1.4638  1.0962 -1.0273
   22MOL   H158 6920   0.557   6.694   1.082 -2.1896 -0.4567  1.3602
   22MOL   H159 6921   0.672   6.818   1.050  0.9037 -1.2924  0.3321
   22MOL   H160 6922   0.688   6.281   1.108  0.7596  0.0099  0.9991
   22MOL   H161 6923   0.569   6.180   1.185  0.6507 -0.6416 -0.1821
   22MOL   C162 6924   0.487   6.321   1.042  0.5191  0.3720  0.2471
   22MOL   O163 6925   0.499   6.249   0.911 -0.6184  0.5267 -0.4878
   22MOL   C164 6926   0.594   6.306   0.820  0.5223 -0.5137 -0.7470
   22MOL   C165 6927   0.583   6.243   0.679  0.3195  0.0498 -0.0057
   22MOL   C166 6928   0.614   6.086   0.698  0.0588 -0.5776  0.6769
   22MOL   C167 6929   0.343   6.280   1.092  0.8841 -0.0672  0.5663
   22MOL   H168 6930   0.493   6.426   1.013 -0.8694 -0.0864 -1.8450
   22MOL   H169 6931   0.570   6.411   0.805 -0.1516 -0.8193 -1.8648
   22MOL   H170 6932   0.695   6.303   0.861 -0.8721 -1.0297  2.8373
   22MOL   H171 6933   0.663   6.289   0.621 -1.4005  1.4259 -1.3215
   22MOL   H172 6934   0.491   6.276   0.632  0.8360  2.3190  0.4961
   22MOL   H173 6935   0.632   6.037   0.602  0.7336  1.0915 -0.0652
   22MOL   H174 6936   0.531   6.037   0.750 -0.8127  1.0066  0.7991
   22MOL   H175 6937   0.703   6.079   0.760  0.6885 -1.1272 -0.2763
   22MOL   H176 6938   0.338   6.174   1.069  1.5432  0.3629 -1.6752
   22MOL   H177 6939   0.326   6.283   1.200  0.7522 -1.6354  0.5885
   22MOL   C178 6940   0.223   6.350   1.025  0.5511  0.1083  0.1883
   22MOL   O179 6941   0.238   6.494   1.032 -0.0102  0.1427  0.0318
   22MOL   C180 6942   0.199   6.534   1.162  0.2549  0.0753 -0.2081
   22MOL   C181 6943   0.213   6.685   1.179  0.0249  0.3475  0.6601
   22MOL   C182 6944   0.244   6.721   1.322  0.3445  0.2552 -0.4794
   22MOL   C183 6945   0.184   6.316   0.887  0.5348  0.3558  0.4241
   22MOL   H184 6946   0.137   6.316   1.082  1.1967 -1.2480  0.3563
   22MOL   H185 6947   0.099   6.494   1.182  0.8918 -0.1304  2.7819
   22MOL   H186 6948   0.262   6.479   1.232 -0.4641 -2.1592 -1.2816
   22MOL   H187 6949   0.120   6.734   1.150 -0.3701 -0.3695  0.6859
   22MOL   H188 6950   0.292   6.717   1.111 -0.5657 -2.4940 -1.4853
   22MOL   H189 6951   0.257   6.828   1.338 -1.1797  0.1906  1.3718
   22MOL   H190 6952   0.332   6.673   1.365  0.9445 -0.4412 -2.3943
   22MOL   H191 6953   0.161   6.699   1.390  0.0979  1.4309 -0.3991
   22MOL   H192 6954   0.091   6.371   0.871  0.8241  0.8264  0.3370
   22MOL   H193 6955   0.259   6.355   0.818 -0.7916  0.6286 -0.8937
   22MOL   C194 6956   0.149   6.176   0.837  0.2694  0.2925 -0.2462
   22MOL   O195 6957   0.073   6.122   0.942  0.4674 -0.0839  0.1821
   22MOL   C196 6958   0.069   5.982   0.956  0.4228  0.1530  0.4531
   22MOL   C197 6959   7.773   5.945   1.039 -0.2565 -0.2678 -0.4435
   22MOL   C198 6960   7.773   6.007   1.186  0.6270 -0.9576 -0.2413
   22MOL   C199 6961   0.074   6.173   0.705 -0.6466 -0.2885 -0.1278
   22MOL   H200 6962   0.240   6.117   0.831  0.9514  1.3385 -0.3280
   22MOL   H201 6963   0.067   5.926   0.862  2.7696  1.4574 -0.4031
   22MOL   H202 6964   0.161   5.946   1.002  1.2797  0.9638 -0.5941
   22MOL   H203 6965   7.767   5.836   1.043 -0.1733 -0.3108 -1.2431
   22MOL   H204 6966   7.680   5.966   0.986  0.4819 -1.2494 -2.1919
   22MOL   H205 6967   7.762   5.934   1.265 -0.9906  0.7625  1.1781
   22MOL   H206 6968   7.690   6.076   1.204  0.1103 -1.2985 -1.2940
   22MOL   H207 6969   0.035   6.069   1.194  0.3498 -0.7218  1.2838
   22MOL   H208 6970   0.021   6.077   0.710 -2.7295  0.8807  0.8043
   22MOL   H209 6971   0.006   6.257   0.707  1.2106  1.2492 -0.4517
   22MOL   C210 6972   0.157   6.170   0.582  0.2906  0.8388  0.4573
   22MOL   O211 6973   0.167   6.032   0.548  0.6246  0.2970  0.1290
   22MOL   C212 6974   0.299   5.979   0.520 -0.4036 -0.4413  0.0601
   22MOL   C213 6975   0.282   5.841   0.452  0.4214 -0.7202 -0.5403
   22MOL   C214 6976   0.204   5.754   0.545  0.2270  0.1142  0.2382
   22MOL   C215 6977   0.074   6.233   0.461 -0.6474  0.2680 -0.9035
   22MOL   H216 6978   0.257   6.212   0.584  0.7691 -0.1429 -1.5574
   22MOL   H217 6979   0.350   6.048   0.454 -2.1688  1.7531  0.9198
   22MOL   H218 6980   0.367   5.975   0.606  2.7211  0.2778 -2.3141
   22MOL   H219 6981   0.382   5.799   0.440  0.7291  0.0481 -0.6515
   22MOL   H220 6982   0.228   5.860   0.360  0.0065 -1.3365 -0.4303
   22MOL   H221 6983   0.270   5.740   0.630 -2.4919  3.4336  3.0017
   22MOL   H222 6984   0.183   5.664   0.486 -1.1880  0.2478  0.5248
   22MOL   H223 6985   0.113   5.801   0.582 -0.1064  1.6373 -2.3965
   22MOL   H224 6986   0.103   6.179   0.371  0.8450  0.1962 -0.3927
   22MOL   H225 6987   7.801   6.203   0.488 -0.2817 -0.9891 -0.9342
   22MOL   C226 6988   0.092   6.388   0.458 -0.3829  0.3742 -0.3978
   22MOL   O227 6989   0.229   6.417   0.422  0.1388  0.2289 -0.3691
   22MOL   C228 6990   0.280   6.531   0.497 -0.3434 -0.1313 -0.0803
   22MOL   C229 6991   0.423   6.558   0.454 -0.4651  0.1694  0.0903
   22MOL   C230 6992   0.453   6.586   0.305 -0.7548 -0.0873  0.7537
   22MOL   C231 6993   7.813   6.455   0.367 -0.5885  0.4070 -0.5670
   22MOL   H232 6994   0.079   6.425   0.560 -1.6121 -1.0159 -0.0354
   22MOL   H233 6995   0.221   6.616   0.462  0.9370  0.1441 -1.6382
   22MOL   H234 6996   0.263   6.521   0.604  1.7847 -0.5259  0.2487
   22MOL   H235 6997   0.492   6.481   0.489 -0.2073 -0.0989 -1.0113
   22MOL   H236 6998   0.462   6.644   0.508 -1.1712  1.7695 -1.9194
   22MOL   H237 6999   0.423   6.513   0.230 -0.8539 -0.0879  0.7928
   22MOL   H238 7000   0.561   6.599   0.299 -0.8653  0.2388 -0.5768
   22MOL   H239 7001   0.402   6.676   0.271  1.1153  0.8814  0.4451
   22MOL   H240 7002   0.021   6.555   0.343  1.1655 -0.3129 -1.0354
   22MOL   H241 7003   7.808   6.409   0.268 -0.0836  0.7824 -0.7719
   22MOL   C242 7004   7.667   6.473   0.425  0.3603 -0.7004  0.4404
   22MOL   O243 7005   7.610   6.349   0.454  0.0291 -0.0369 -0.2398
   22MOL   C244 7006   7.578   6.287   0.331 -0.0395 -0.0952  0.5101
   22MOL   C245 7007   7.480   6.174   0.370  0.8213 -0.0404  0.7076
   22MOL   C246 7008   7.545   6.072   0.455 -0.5636  0.1768  0.0266
   22MOL   C247 7009   7.650   6.562   0.543  1.2253  0.3725 -0.3293
   22MOL   H248 7010   7.614   6.515   0.341 -1.0146 -0.5443  1.3760
   22MOL   H249 7011   7.526   6.353   0.261 -0.3612  0.5140  1.3092
   22MOL   H250 7012   7.662   6.251   0.271 -1.0914  0.1942 -1.1649
   22MOL   H251 7013   7.434   6.128   0.283  0.7502 -0.3277  0.8951
   22MOL   H252 7014   7.398   6.218   0.426  0.1874  1.8597 -1.6391
   22MOL   H253 7015   7.633   6.042   0.398  0.3809 -1.7018  2.3622
   22MOL   H254 7016   7.473   5.991   0.467  0.3117 -0.4876  0.8504
   22MOL   H255 7017   7.575   6.110   0.552  0.7559 -0.3971 -0.1377
   22MOL   H256 7018   7.547   6.553   0.578  0.4407  0.6747 -2.4264
   22MOL   H257 7019   7.722   6.518   0.611  1.3720  0.9598 -0.1011
   22MOL   C258 7020   7.689   6.713   0.525  0.0149  0.5947  0.2124
   22MOL   O259 7021   7.606   6.764   0.423 -0.3368 -0.1910  0.1544
   22MOL   C260 7022   7.659   6.875   0.348 -0.0145  0.1963  0.3252
   22MOL   C261 7023   7.582   6.918   0.218  0.0516 -0.1600 -1.1045
   22MOL   C262 7024   7.601   7.065   0.182  0.5592  1.1011  0.3059
   22MOL   C263 7025   7.678   6.792   0.657  0.1277  0.2605  0.0604
   22MOL   H264 7026   7.791   6.709   0.487 -1.2139 -0.6552 -3.1803
   22MOL   H265 7027   7.652   6.959   0.416 -1.2762  2.0976 -2.0725
   22MOL   H266 7028   7.765   6.861   0.327 -0.1792  0.5554 -0.7629
   22MOL   H267 7029   7.477   6.889   0.216  0.2694 -1.0794  0.0872
   22MOL   H268 7030   7.629   6.862   0.138  2.7817 -0.4157  0.6196
   22MOL   H269 7031   7.708   7.074   0.162  0.6464 -0.2804  0.1289
   22MOL   H270 7032   7.568   7.128   0.265  0.8195  1.9659 -0.2474
   22MOL   H271 7033   7.551   7.076   0.086  2.0899 -0.5216 -0.6983
   22MOL   H272 7034   7.691   6.897   0.633  1.9412 -0.2456 -1.2673
   22MOL   H273 7035   7.576   6.785   0.694 -0.4969  2.2284 -1.2053
   22MOL   C274 7036   7.771   6.750   0.766  0.2359  0.0461 -0.1791
   22MOL   O275 7037   0.071   6.791   0.714 -0.1010  0.2288  0.2574
   22MOL   C276 7038   0.169   6.723   0.784  0.4033 -0.0170  0.2489
   22MOL   C277 7039   0.305   6.772   0.733 -0.2373  0.1946  0.6533
   22MOL   C278 7040   0.419   6.676   0.776 -0.6523  0.2320 -0.0084
   22MOL   C279 7041   7.731   6.818   0.899  0.2455  0.0387  0.2199
   22MOL   H280 7042   7.759   6.644   0.788 -1.0378  0.2590  0.1949
   22MOL   H281 7043   0.160   6.734   0.892  1.1492  0.2882  0.2855
   22MOL   H282 7044   0.158   6.616   0.765 -1.3248 -0.1090  1.6954
   22MOL   H283 7045   0.320   6.879   0.729 -0.3217  0.1475 -2.9559
   22MOL   H284 7046   0.300   6.762   0.624 -2.3303 -0.3613  0.7728
   22MOL   H285 7047   0.519   6.709   0.748 -0.1689  0.8288  2.2575
   22MOL   H286 7048   0.404   6.569   0.762  0.9965 -0.1410  0.9459
   22MOL   H287 7049   0.418   6.691   0.885 -1.4273  1.7957 -0.2077
   22MOL   H288 7050   7.634   6.782   0.933 -0.5628  0.7369 -1.3175
   22MOL   H289 7051   7.800   6.768   0.966  0.9875 -0.6345 -1.0361
   22MOL   C290 7052   7.745   6.974   0.903  0.0381  0.2047  0.3917
   22MOL   O291 7053   7.618   7.028   0.904  0.1767  0.2662  0.4405
   22MOL   C292 7054   7.594   7.155   0.838  0.9019 -0.2569  0.7390
   22MOL   C293 7055   7.452   7.215   0.870 -0.2588  0.8748 -0.1042
   22MOL   C294 7056   7.446   7.270   1.011 -1.0150 -0.3074 -0.7284
   22MOL   C295 7057   0.002   7.033   1.017  0.0305  0.0376 -0.4690
   22MOL   H296 7058   7.797   7.008   0.814  1.2612  2.1015  1.7979
   22MOL   H297 7059   7.669   7.224   0.875 -0.5684  1.8519 -0.0997
   22MOL   H298 7060   7.609   7.139   0.731  0.0269 -1.6873  0.8137
   22MOL   H299 7061   7.382   7.132   0.859  0.2996  0.6315 -2.0396
   22MOL   H300 7062   7.430   7.276   0.782  1.3521  0.5104 -0.7908
   22MOL   H301 7063   7.513   7.353   1.029 -1.7838  0.4696 -1.4514
   22MOL   H302 7064   7.487   7.194   1.078  1.1997  1.6244  0.1491
   22MOL   H303 7065   7.345   7.300   1.040 -0.8403 -0.6204  0.2348
   22MOL   H304 7066   0.103   6.993   1.019 -0.2853 -0.7861 -0.7429
   22MOL   H305 7067   0.009   7.141   1.004 -2.9684  0.3358 -0.0610
   22MOL   C306 7068   7.767   7.011   1.151  0.0312  0.3992  0.3805
   22MOL   O307 7069   7.759   6.873   1.187  0.0822  0.3700 -0.3376
   22MOL   C308 7070   7.654   6.838   1.272  0.4584 -0.0289 -0.3773
   22MOL   C309 7071   7.678   6.698   1.318  0.8998  0.2014  0.1209
   22MOL   C310 7072   7.630   6.590   1.220 -0.3206  0.3062  0.0660
   22MOL   C311 7073   0.015   7.085   1.262 -0.1956 -0.4845 -0.1219
   22MOL   H312 7074   7.663   7.044   1.146  0.0843  0.6334  0.8223
   22MOL   H313 7075   7.652   6.890   1.367  0.4880 -1.2725  0.3114
   22MOL   H314 7076   7.554   6.849   1.231 -0.7320  2.6836  3.0569
   22MOL   H315 7077   7.625   6.679   1.411 -0.6275  1.1045 -0.5310
   22MOL   H316 7078   7.785   6.694   1.334  0.5444 -0.7566  2.4175
   22MOL   H317 7079   7.595   6.500   1.270  0.2327 -0.6247 -1.1910
   22MOL   H318 7080   7.716   6.551   1.164  0.7968  0.1126  1.8888
   22MOL   H319 7081   7.558   6.623   1.145  0.7217  0.9698 -0.6674
   22MOL   H320 7082   0.031   7.185   1.222  0.5964  0.3385  2.1253
   22MOL   H321 7083   7.786   7.105   1.353  2.1110  0.6422  1.1371
   22MOL   H322 7084   0.112   7.042   1.289 -0.4263 -0.2594  1.1064
   23MOL     C1 7085   2.426   2.653   2.485  0.0595  0.6737  0.1350
   23MOL     O2 7086   2.366   2.672   2.614 -0.3039  0.5159 -0.2810
   23MOL     C3 7087   2.416   2.794   2.671 -0.2339  0.0927  0.1239
   23MOL     C4 7088   2.304   2.895   2.675  0.1156  0.9249 -1.0451
   23MOL     C5 7089   2.256   2.960   2.544 -0.1751  0.1591  0.0183
   23MOL     C6 7090   2.365   2.523   2.437  0.1182  0.2826  0.4962
   23MOL     H7 7091   2.533   2.636   2.481 -0.4387 -2.0281 -2.5258
   23MOL     H8 7092   2.447   2.763   2.771  1.1682 -1.6563 -0.8129
   23MOL     H9 7093   2.502   2.841   2.625  1.0378 -1.1161  1.2185
   23MOL    H10 7094   2.330   2.974   2.745 -1.9021 -0.0045  0.8165
   23MOL    H11 7095   2.208   2.858   2.710  1.9311 -1.2016  1.9935
   23MOL    H12 7096   2.231   3.066   2.551 -0.6844  0.1122 -0.9597
   23MOL    H13 7097   2.183   2.902   2.488 -0.1846 -1.5153  1.7043
   23MOL    H14 7098   2.344   2.966   2.481 -0.5508  0.1962 -0.5071
   23MOL    H15 7099   2.419   2.502   2.344 -1.5251  0.6766 -0.5755
   23MOL    H16 7100   2.386   2.443   2.507 -3.0538  1.6507  3.1341
   23MOL    H17 7101   2.395   2.732   2.417 -1.1552  0.4539  0.4087
   23MOL    C18 7102   2.204   2.530   2.413 -0.5218  0.1340  0.0486
   23MOL    O19 7103   2.170   2.619   2.304 -0.0424 -0.5751 -0.3227
   23MOL    C20 7104   2.036   2.675   2.302 -0.0773 -0.2031  0.0124
   23MOL    C21 7105   2.003   2.689   2.148  0.0996 -0.1160  0.4551
   23MOL    C22 7106   1.862   2.721   2.117  0.1943 -0.2754 -0.8666
   23MOL    C23 7107   2.145   2.391   2.393 -0.4471  0.1273 -0.0103
   23MOL    H24 7108   2.167   2.584   2.501  1.2251  1.5691 -0.0739
   23MOL    H25 7109   1.961   2.611   2.349  0.4103 -3.4987 -3.4212
   23MOL    H26 7110   2.039   2.768   2.357 -0.6680  0.3373 -0.8574
   23MOL    H27 7111   2.019   2.595   2.095  2.3456 -0.1541  1.1506
   23MOL    H28 7112   2.062   2.764   2.095 -1.6283  0.3081 -0.9277
   23MOL    H29 7113   1.819   2.810   2.160 -1.7694 -0.6337 -2.0197
   23MOL    H30 7114   1.805   2.636   2.154  1.7255 -1.2762 -0.7436
   23MOL    H31 7115   1.857   2.715   2.008  0.6941 -2.0223 -0.8245
   23MOL    H32 7116   2.047   2.392   2.347  0.8483 -1.6467 -2.9485
   23MOL    H33 7117   2.210   2.339   2.323 -2.4912 -0.5908 -1.4036
   23MOL    C34 7118   2.135   2.302   2.521 -0.3241  0.1223  0.1858
   23MOL    O35 7119   2.031   2.371   2.589  0.1191 -0.4960 -0.0711
   23MOL    C36 7120   2.041   2.380   2.729  0.5001 -0.3773  0.6551
   23MOL    C37 7121   1.915   2.439   2.780  0.3966 -0.3223 -0.3137
   23MOL    C38 7122   1.872   2.578   2.719 -0.2301  0.6363 -1.0040
   23MOL    C39 7123   2.099   2.156   2.494  0.4044 -0.3601 -0.4305
   23MOL    H40 7124   2.228   2.309   2.578  1.1406  2.9159 -2.4303
   23MOL    H41 7125   2.061   2.287   2.783 -0.6380 -0.5195  0.8630
   23MOL    H42 7126   2.122   2.448   2.754  0.6143 -1.5322  3.6421
   23MOL    H43 7127   1.933   2.472   2.882 -0.7327 -0.3886 -0.0820
   23MOL    H44 7128   1.834   2.367   2.774  0.7384 -0.7034 -0.3191
   23MOL    H45 7129   1.957   2.645   2.704  0.2693  0.1597 -0.3176
   23MOL    H46 7130   1.798   2.627   2.782 -0.8551 -0.4084 -0.9145
   23MOL    H47 7131   1.828   2.564   2.620 -0.1655 -0.7453 -0.8376
   23MOL    H48 7132   2.066   2.114   2.589  2.4262 -0.0245  0.4578
   23MOL    H49 7133   2.020   2.147   2.419 -1.1584  0.9971  1.0190
   23MOL    C50 7134   2.210   2.064   2.465  0.0775  0.1261  0.1176
   23MOL    O51 7135   2.268   2.089   2.331  0.5041 -0.6992  0.3482
   23MOL    C52 7136   2.185   2.046   2.219 -0.2160 -0.2461  0.0958
   23MOL    C53 7137   2.289   2.041   2.104  0.4100  0.5428  0.0923
   23MOL    C54 7138   2.346   2.184   2.078  0.0012 -0.1515  0.2906
   23MOL    C55 7139   2.319   2.058   2.577  0.0570  0.2864 -0.7614
   23MOL    H56 7140   2.155   1.971   2.454 -0.9844  0.7869 -0.1576
   23MOL    H57 7141   2.144   1.946   2.229  1.6629 -1.1806 -1.1400
   23MOL    H58 7142   2.106   2.120   2.202  0.9352  0.6056 -1.7758
   23MOL    H59 7143   2.226   2.004   2.023  0.2727 -1.2089  0.9723
   23MOL    H60 7144   2.374   1.973   2.121 -0.9171 -1.0232  0.6091
   23MOL    H61 7145   2.412   2.218   2.156  0.8078  0.1672 -0.5233
   23MOL    H62 7146   2.272   2.264   2.081  1.2907  1.0635 -0.2856
   23MOL    H63 7147   2.394   2.186   1.980  0.1990  0.9068  0.4044
   23MOL    H64 7148   2.376   2.151   2.585 -2.3999  1.7615  0.2304
   23MOL    H65 7149   2.275   2.051   2.677 -0.4988  2.4916 -0.8191
   23MOL    C66 7150   2.429   1.948   2.558  0.2639 -0.0994 -0.0218
   23MOL    O67 7151   2.529   1.956   2.657  0.4888 -0.3843 -0.7505
   23MOL    C68 7152   2.636   2.053   2.638 -0.2255 -0.2896 -0.0053
   23MOL    C69 7153   2.733   2.049   2.763  0.0928 -0.4352  0.1363
   23MOL    C70 7154   2.835   1.926   2.764 -0.2158  0.6474 -1.2018
   23MOL    C71 7155   2.380   1.805   2.562  0.7200 -0.6895  0.5168
   23MOL    H72 7156   2.482   1.970   2.465  0.3843  1.9293  0.5164
   23MOL    H73 7157   2.705   2.024   2.558 -0.2196 -0.2134 -0.0282
   23MOL    H74 7158   2.589   2.149   2.620 -0.7290 -0.6735 -0.8008
   23MOL    H75 7159   2.670   2.050   2.852 -0.0214 -2.3898  0.1105
   23MOL    H76 7160   2.795   2.138   2.766  0.0161 -0.3934  0.4821
   23MOL    H77 7161   2.872   1.903   2.864 -0.6172  0.2977 -1.1342
   23MOL    H78 7162   2.911   1.947   2.689 -1.3713  0.7419 -2.3732
   23MOL    H79 7163   2.771   1.841   2.739 -0.4844 -0.0629  1.7410
   23MOL    H80 7164   2.325   1.781   2.653 -1.2565  1.8773  0.0543
   23MOL    H81 7165   2.302   1.794   2.486 -0.5859 -1.5408  1.9628
   23MOL    C82 7166   2.493   1.695   2.553  0.6667  0.1415  0.7709
   23MOL    O83 7167   2.436   1.563   2.566  0.0496  0.4709  0.3642
   23MOL    C84 7168   2.413   1.519   2.697 -0.2029 -0.2157  0.8092
   23MOL    C85 7169   2.334   1.389   2.685  0.3770  0.5237 -0.2340
   23MOL    C86 7170   2.400   1.288   2.599 -0.1085 -0.2048  0.0767
   23MOL    C87 7171   2.567   1.694   2.417 -0.0768 -0.7684  0.1712
   23MOL    H88 7172   2.568   1.688   2.631 -0.2005 -1.1413  1.5141
   23MOL    H89 7173   2.509   1.505   2.746  1.6144  2.8048 -1.6563
   23MOL    H90 7174   2.358   1.588   2.761  1.2130  0.4720  1.3072
   23MOL    H91 7175   2.238   1.416   2.641 -0.1464 -0.7841  0.0527
   23MOL    H92 7176   2.322   1.347   2.786 -2.3818 -0.2879 -0.8611
   23MOL    H93 7177   2.331   1.252   2.522  0.0753  1.1557 -0.7505
   23MOL    H94 7178   2.436   1.194   2.641 -1.4333  0.3196  2.4964
   23MOL    H95 7179   2.484   1.323   2.539 -0.3912 -0.6082 -0.5545
   23MOL    H96 7180   2.495   1.695   2.336  1.8233 -1.2382 -1.5521
   23MOL    H97 7181   2.627   1.784   2.406 -0.4568 -0.7740 -2.0184
   23MOL    C98 7182   2.676   1.581   2.402 -0.6368  0.0012  0.1194
   23MOL    O99 7183   2.728   1.587   2.262  0.5942  0.6382  0.2465
   23MOL   C100 7184   2.677   1.479   2.194  0.4799 -0.8112 -0.9521
   23MOL   C101 7185   2.740   1.468   2.055 -0.0495  0.3762 -0.1460
   23MOL   C102 7186   2.717   1.330   1.989  0.5545 -0.1889  0.0171
   23MOL   C103 7187   2.802   1.590   2.493 -0.3361  0.0593 -0.7725
   23MOL   H104 7188   2.628   1.488   2.433 -0.9895  0.4670  0.9944
   23MOL   H105 7189   2.677   1.389   2.256 -0.0832 -0.3800 -0.3207
   23MOL   H106 7190   2.574   1.514   2.196  0.7910  0.0976  2.5356
   23MOL   H107 7191   2.848   1.483   2.056  0.3208 -2.1150  0.7093
   23MOL   H108 7192   2.708   1.547   1.986  1.6014  0.6532 -0.6237
   23MOL   H109 7193   2.768   1.265   2.058 -0.7252 -1.0715  0.1487
   23MOL   H110 7194   2.736   1.302   1.885 -0.9697 -3.4783  0.5727
   23MOL   H111 7195   2.610   1.316   2.004  0.5101  0.7455  0.6176
   23MOL   H112 7196   2.857   1.670   2.444 -1.0223 -1.0976 -3.5283
   23MOL   H113 7197   2.781   1.623   2.594 -0.0230  2.0996 -1.3632
   23MOL   C114 7198   2.893   1.471   2.500  0.3993  0.5297 -0.3484
   23MOL   O115 7199   3.015   1.518   2.550 -0.0185 -0.4895 -0.0608
   23MOL   C116 7200   3.109   1.542   2.447 -0.2306 -0.1570  0.0235
   23MOL   C117 7201   3.221   1.635   2.501 -0.1735  0.3509 -0.2345
   23MOL   C118 7202   3.181   1.787   2.526  0.0494 -0.1794 -0.6598
   23MOL   C119 7203   2.836   1.367   2.595 -0.4041 -0.2063 -0.2206
   23MOL   H120 7204   2.892   1.433   2.398  0.0205 -1.8644  0.5265
   23MOL   H121 7205   3.161   1.448   2.433  0.0390  0.2279 -1.6613
   23MOL   H122 7206   3.058   1.578   2.358  0.3368 -0.4930 -0.4323
   23MOL   H123 7207   3.305   1.630   2.432 -0.7856  1.2293 -1.0546
   23MOL   H124 7208   3.266   1.599   2.593 -1.9827  0.5088  0.7382
   23MOL   H125 7209   3.088   1.787   2.582  0.8487 -3.3179  0.7504
   23MOL   H126 7210   3.170   1.830   2.426  2.4420  2.4904  0.1640
   23MOL   H127 7211   3.249   1.856   2.576  0.2936 -0.1589 -1.0177
   23MOL   H128 7212   2.839   1.413   2.694 -0.0719  0.3903 -0.5043
   23MOL   H129 7213   2.732   1.350   2.568 -0.8720 -0.4894  1.6873
   23MOL   C130 7214   2.904   1.235   2.609 -0.4757  0.3645  0.3462
   23MOL   O131 7215   2.874   1.165   2.726 -0.1803  0.3356  0.1570
   23MOL   C132 7216   2.912   1.209   2.852  0.0046 -0.4741  0.1302
   23MOL   C133 7217   2.866   1.119   2.962 -0.2201  0.2431  0.2887
   23MOL   C134 7218   2.718   1.154   2.996 -0.4227 -0.0306  0.0087
   23MOL   C135 7219   2.878   1.149   2.490 -0.5955  0.3400 -0.9451
   23MOL   H136 7220   3.010   1.259   2.621 -0.0758 -1.3433  0.2913
   23MOL   H137 7221   3.021   1.201   2.852 -0.0773 -1.6606 -0.8958
   23MOL   H138 7222   2.875   1.309   2.874  0.4835 -0.2900  0.0887
   23MOL   H139 7223   2.929   1.145   3.047  0.6140 -1.2730  0.1551
   23MOL   H140 7224   2.878   1.011   2.952  0.4641  0.1824  1.7203
   23MOL   H141 7225   2.665   1.181   2.904 -0.7598  0.8691  0.4570
   23MOL   H142 7226   2.717   1.247   3.053  0.5895 -1.5692  2.6232
   23MOL   H143 7227   2.666   1.074   3.048 -0.1071 -1.8002 -2.3145
   23MOL   H144 7228   2.785   1.093   2.506  1.1266 -1.9685  1.4953
   23MOL   H145 7229   2.859   1.209   2.401 -1.5563  2.7970  0.8568
   23MOL   C146 7230   2.991   1.054   2.454 -0.2639  0.5293 -0.0856
   23MOL   O147 7231   3.103   1.125   2.406 -0.3264  0.0730  0.0000
   23MOL   C148 7232   3.152   1.074   2.284 -0.5407 -0.2694 -0.4714
   23MOL   C149 7233   3.222   1.182   2.204  0.2916  0.1089 -0.0677
   23MOL   C150 7234   3.133   1.297   2.157 -0.3269  0.0825 -0.3288
   23MOL   C151 7235   3.044   0.955   2.558  0.2633  0.6404 -0.2302
   23MOL   H152 7236   2.945   0.995   2.375  0.8798  0.1120 -0.4415
   23MOL   H153 7237   3.228   0.997   2.295 -0.7591 -0.0644  2.8055
   23MOL   H154 7238   3.076   1.031   2.219 -0.0484  2.0740 -2.6939
   23MOL   H155 7239   3.265   1.135   2.115 -0.4606  0.3495 -0.5601
   23MOL   H156 7240   3.313   1.223   2.249  0.2106 -1.1601  1.2889
   23MOL   H157 7241   3.074   1.268   2.070 -0.5626  1.3471 -0.6062
   23MOL   H158 7242   3.181   1.382   2.110  0.1574 -0.1769 -0.3029
   23MOL   H159 7243   3.066   1.325   2.238  1.5164  0.7979  0.9822
   23MOL   H160 7244   3.134   0.904   2.525 -0.7582 -0.5478 -1.2127
   23MOL   H161 7245   3.069   1.002   2.654 -1.4230  0.1541  0.4705
   23MOL   C162 7246   2.941   0.849   2.601 -0.2947  0.1105 -0.8213
   23MOL   O163 7247   2.933   0.755   2.492 -0.5765 -0.1597 -0.1257
   23MOL   C164 7248   2.797   0.727   2.452  0.2673 -0.0730  0.4273
   23MOL   C165 7249   2.786   0.618   2.347  1.3665 -0.2306 -0.7056
   23MOL   C166 7250   2.812   0.481   2.396  0.1263 -0.1580  0.2385
   23MOL   C167 7251   2.990   0.764   2.719  0.6558  0.1744  0.5800
   23MOL   H168 7252   2.847   0.896   2.629 -0.1603 -1.2726  2.2105
   23MOL   H169 7253   2.737   0.689   2.535 -0.6953 -2.5961 -1.3490
   23MOL   H170 7254   2.755   0.825   2.427  1.8658  0.5705  0.2269
   23MOL   H171 7255   2.847   0.643   2.260  0.3766  3.3573 -0.4642
   23MOL   H172 7256   2.683   0.626   2.313  0.1228 -1.9809  2.4236
   23MOL   H173 7257   2.914   0.470   2.433 -0.2532 -1.3844  0.9162
   23MOL   H174 7258   2.810   0.414   2.310 -0.6491  1.8423 -1.3563
   23MOL   H175 7259   2.750   0.435   2.472 -0.6249  1.6115  0.7231
   23MOL   H176 7260   3.070   0.702   2.678 -1.0367 -1.2537 -0.6005
   23MOL   H177 7261   3.030   0.834   2.793 -0.0923  0.7356  0.4645
   23MOL   C178 7262   2.889   0.661   2.778  0.0600 -0.5336  0.2681
   23MOL   O179 7263   2.954   0.590   2.883  0.1689 -0.6485  0.0719
   23MOL   C180 7264   3.009   0.464   2.851 -1.3131 -0.4085 -0.2109
   23MOL   C181 7265   3.070   0.412   2.983  0.3807 -0.0660  0.0970
   23MOL   C182 7266   2.971   0.400   3.099  0.3993  0.1263  0.6849
   23MOL   C183 7267   2.766   0.729   2.842  0.4650 -0.9087 -0.5261
   23MOL   H184 7268   2.849   0.597   2.699  2.8186  1.1737 -2.6077
   23MOL   H185 7269   2.930   0.397   2.816 -1.3227 -0.7664  0.4792
   23MOL   H186 7270   3.093   0.460   2.782 -0.8510  0.2649  0.2981
   23MOL   H187 7271   3.153   0.482   2.993 -0.5928  0.7656  2.5314
   23MOL   H188 7272   3.131   0.323   2.966  1.0200  0.2013  0.9985
   23MOL   H189 7273   2.913   0.308   3.091 -0.6104  0.8510 -0.3541
   23MOL   H190 7274   2.893   0.475   3.108  0.9934  0.5647  2.4553
   23MOL   H191 7275   3.038   0.398   3.185  1.4021 -0.6152 -0.1000
   23MOL   H192 7276   2.812   0.809   2.900  0.2596 -1.0353 -0.1889
   23MOL   H193 7277   2.714   0.773   2.757  0.3520  0.4680  0.2339
   23MOL   C194 7278   2.667   0.644   2.926  0.1323 -0.4185 -0.8747
   23MOL   O195 7279   2.599   0.732   3.017 -0.1798  1.0872 -0.1316
   23MOL   C196 7280   2.651   0.753   3.146 -0.2095  0.5302 -0.3900
   23MOL   C197 7281   2.623   0.634   3.241 -0.2783  0.3634  0.4297
   23MOL   C198 7282   2.642   0.671   3.391  0.7348  0.7564 -0.1410
   23MOL   C199 7283   2.562   0.575   2.835  0.2964 -0.0348  1.2145
   23MOL   H200 7284   2.716   0.569   2.988 -0.4672  1.1848  1.5703
   23MOL   H201 7285   2.759   0.763   3.148 -0.1588  0.2067  4.5369
   23MOL   H202 7286   2.601   0.843   3.179 -0.3627  0.6912 -1.0564
   23MOL   H203 7287   2.679   0.542   3.224  2.8488  1.9680  1.5667
   23MOL   H204 7288   2.518   0.621   3.215  0.0888  2.0353 -2.1077
   23MOL   H205 7289   2.585   0.755   3.429  1.2592  1.4487 -0.8754
   23MOL   H206 7290   2.749   0.692   3.401  0.6437  1.9178 -1.4991
   23MOL   H207 7291   2.612   0.582   3.447 -0.2481  1.2451  0.1250
   23MOL   H208 7292   2.496   0.650   2.793  1.9051  1.3367  1.1118
   23MOL   H209 7293   2.610   0.532   2.747  0.4005  0.5934  0.9667
   23MOL   C210 7294   2.477   0.472   2.902 -0.2982 -0.0840  0.0134
   23MOL   O211 7295   2.374   0.439   2.808 -0.2458  0.2520 -0.5192
   23MOL   C212 7296   2.267   0.524   2.787  0.0948 -0.2199  0.0959
   23MOL   C213 7297   2.139   0.458   2.857 -0.9701  0.2493 -0.2093
   23MOL   C214 7298   2.020   0.540   2.851 -0.2907  0.0285  0.3512
   23MOL   C215 7299   2.542   0.346   2.937  0.2498 -0.6118  0.2415
   23MOL   H216 7300   2.422   0.507   2.989 -0.3408  2.0675 -0.8318
   23MOL   H217 7301   2.275   0.626   2.824  0.7707  0.2063 -1.2149
   23MOL   H218 7302   2.240   0.543   2.683 -0.4548  1.0148  0.4566
   23MOL   H219 7303   2.162   0.442   2.963 -1.2051 -0.4692 -0.2707
   23MOL   H220 7304   2.113   0.364   2.809 -4.3808 -0.1980  2.2886
   23MOL   H221 7305   1.934   0.492   2.898  0.5593 -1.6274  0.2366
   23MOL   H222 7306   1.991   0.556   2.747  0.0991 -0.3636  0.1851
   23MOL   H223 7307   2.031   0.636   2.903 -0.9021 -0.1153  0.7594
   23MOL   H224 7308   2.590   0.302   2.850 -1.8146  0.5897 -1.5312
   23MOL   H225 7309   2.625   0.367   3.005 -0.9238  0.6065  1.3464
   23MOL   C226 7310   2.455   0.230   3.005 -0.2380 -0.3469  0.5927
   23MOL   O227 7311   2.543   0.118   3.042  0.2841  0.1673  0.0259
   23MOL   C228 7312   2.553   0.013   2.944 -0.1161  0.9631 -0.9352
   23MOL   C229 7313   2.640   7.728   2.996  0.3216  0.3671 -0.0552
   23MOL   C230 7314   2.575   7.642   3.115  0.2330 -0.2404  0.0652
   23MOL   C231 7315   2.352   0.265   3.116 -0.7581  0.1001  0.8080
   23MOL   H232 7316   2.394   0.202   2.919  0.8402  0.5766 -0.4901
   23MOL   H233 7317   2.452   7.811   2.917 -0.5261  1.5078 -0.0319
   23MOL   H234 7318   2.597   0.062   2.857 -1.3391 -0.4125 -2.3376
   23MOL   H235 7319   2.737   7.772   3.018  0.3549  0.5868 -0.6464
   23MOL   H236 7320   2.674   7.667   2.913  0.3542  0.4405 -0.0966
   23MOL   H237 7321   2.473   7.614   3.089 -0.2910  0.1213  1.7102
   23MOL   H238 7322   2.549   7.700   3.203 -0.3020 -1.1994  0.5489
   23MOL   H239 7323   2.632   7.553   3.143 -0.7192 -0.7971  0.2834
   23MOL   H240 7324   2.413   0.316   3.189 -1.2446  0.2563  1.1103
   23MOL   H241 7325   2.286   0.336   3.065 -0.4031  0.5834  1.0239
   23MOL   C242 7326   2.275   0.148   3.183 -0.5122  0.3240  0.2843
   23MOL   O243 7327   2.266   0.041   3.098  0.6917  0.6109  0.2290
   23MOL   C244 7328   2.158   0.048   2.999  0.5336 -0.0994 -0.7810
   23MOL   C245 7329   2.133   7.735   2.947 -0.0858 -0.3639 -0.2986
   23MOL   C246 7330   2.060   7.633   3.038  0.9106 -0.1679  0.1352
   23MOL   C247 7331   2.342   0.104   3.312 -0.4360 -0.0373 -0.0514
   23MOL   H248 7332   2.173   0.176   3.208 -0.4370  1.8666 -0.9766
   23MOL   H249 7333   2.067   0.071   3.054  1.3628 -0.2701  0.7153
   23MOL   H250 7334   2.165   0.127   2.924  1.4825  0.1746 -0.4199
   23MOL   H251 7335   2.223   7.680   2.921  1.4831  1.1621  1.6740
   23MOL   H252 7336   2.072   7.751   2.858  0.0574 -2.5991 -0.8328
   23MOL   H253 7337   1.966   7.667   3.081  0.1570 -1.8373 -0.1641
   23MOL   H254 7338   2.118   7.607   3.127 -0.9093 -2.7332  0.6311
   23MOL   H255 7339   2.039   7.537   2.990 -0.2041 -0.3350  0.9221
   23MOL   H256 7340   2.301   0.007   3.338 -2.3440  0.4793 -1.0964
   23MOL   H257 7341   2.449   0.084   3.306 -0.2639 -0.5586  3.4874
   23MOL   C258 7342   2.308   0.200   3.426  0.9392 -0.1363 -0.2585
   23MOL   O259 7343   2.168   0.236   3.451  0.1464  0.4013 -0.4085
   23MOL   C260 7344   2.084   0.120   3.461  0.1927 -0.3611 -0.3506
   23MOL   C261 7345   1.943   0.168   3.497 -0.1278  0.1107 -0.0510
   23MOL   C262 7346   1.948   0.259   3.621  0.0479 -0.5989  0.6540
   23MOL   C263 7347   2.379   0.164   3.561  0.0665 -0.8074  0.6786
   23MOL   H264 7348   2.357   0.292   3.395  0.3832  0.0400 -0.6248
   23MOL   H265 7349   2.082   0.065   3.367  1.2400 -0.6176 -0.2316
   23MOL   H266 7350   2.133   0.054   3.533  1.0248  0.0496 -0.5339
   23MOL   H267 7351   1.879   0.085   3.525 -0.9962  0.7419 -0.1456
   23MOL   H268 7352   1.892   0.220   3.416  2.1549  2.4000 -0.0987
   23MOL   H269 7353   1.851   0.307   3.640  0.4468  0.3653  0.3126
   23MOL   H270 7354   2.010   0.348   3.610  0.6783 -0.8895  1.8195
   23MOL   H271 7355   1.970   0.209   3.715  1.8151 -0.4813  0.3203
   23MOL   H272 7356   2.358   0.064   3.598 -0.4015 -1.4472 -1.2540
   23MOL   H273 7357   2.487   0.161   3.546 -0.0559 -1.5157 -0.0891
   23MOL   C274 7358   2.357   0.269   3.670  0.3275  0.2577 -0.5150
   23MOL   O275 7359   2.389   0.233   3.803  0.0030  0.7406 -0.1100
   23MOL   C276 7360   2.289   0.140   3.853  0.4754 -0.0286  0.3759
   23MOL   C277 7361   2.315   0.126   4.002  0.7032  0.4300  0.3000
   23MOL   C278 7362   2.277   0.258   4.084  0.6806  0.4139 -0.7245
   23MOL   C279 7363   2.425   0.399   3.630  0.5192 -0.3170 -0.6262
   23MOL   H280 7364   2.250   0.285   3.661  0.2069 -1.6457 -3.0599
   23MOL   H281 7365   2.187   0.178   3.845  0.0259 -1.3110 -0.0921
   23MOL   H282 7366   2.292   0.047   3.797 -0.9271 -0.0714  0.3551
   23MOL   H283 7367   2.418   0.091   4.007  0.0777 -1.8729 -1.7070
   23MOL   H284 7368   2.248   0.045   4.030  1.2795  0.7336  2.6260
   23MOL   H285 7369   2.186   0.302   4.044  0.3642 -1.0745 -1.6968
   23MOL   H286 7370   2.351   0.335   4.062  2.3408 -0.7021  0.8070
   23MOL   H287 7371   2.266   0.250   4.192 -2.0978 -2.2869 -1.1222
   23MOL   H288 7372   2.533   0.385   3.626  0.4410 -1.8567  1.7981
   23MOL   H289 7373   2.409   0.429   3.526  0.4660 -1.8649 -1.0790
   23MOL   C290 7374   2.397   0.519   3.726 -0.4742  0.6920  0.2846
   23MOL   O291 7375   2.491   0.626   3.702 -0.1401 -0.3284 -0.0321
   23MOL   C292 7376   2.519   0.719   3.813 -0.4625 -0.6094 -0.1395
   23MOL   C293 7377   2.666   0.703   3.853  0.0302  0.2334  0.0419
   23MOL   C294 7378   2.694   0.558   3.909 -0.3709 -0.3134 -0.1049
   23MOL   C295 7379   2.257   0.580   3.721  0.2525  0.3971  0.2997
   23MOL   H296 7380   2.414   0.486   3.829 -0.7011 -0.0545  0.0880
   23MOL   H297 7381   2.494   0.821   3.781 -0.2996  0.0855  1.9245
   23MOL   H298 7382   2.442   0.694   3.886 -1.1535 -0.5929 -0.8479
   23MOL   H299 7383   2.694   0.776   3.928  1.1859 -0.3007  0.1481
   23MOL   H300 7384   2.736   0.717   3.771  0.4200  1.3998  0.5606
   23MOL   H301 7385   2.800   0.545   3.932 -0.4583 -1.9474 -0.5528
   23MOL   H302 7386   2.680   0.493   3.822  4.5010  1.8966 -2.7215
   23MOL   H303 7387   2.634   0.532   3.996  1.3122  0.9207  1.4781
   23MOL   H304 7388   2.178   0.504   3.721  0.3388  0.3077  0.3729
   23MOL   H305 7389   2.247   0.634   3.815 -1.5892  0.0052  0.3490
   23MOL   C306 7390   2.220   0.670   3.606  0.7737  0.1436 -0.1891
   23MOL   O307 7391   2.193   0.585   3.492 -0.0810 -0.4758  0.1361
   23MOL   C308 7392   2.210   0.660   3.369 -0.8743 -0.3642 -0.1033
   23MOL   C309 7393   2.168   0.574   3.252  0.0313 -0.1231  1.0143
   23MOL   C310 7394   2.007   0.550   3.254  0.1342  0.2377 -0.5834
   23MOL   C311 7395   2.105   0.761   3.636  0.0942  0.1041  0.0360
   23MOL   H312 7396   2.306   0.728   3.573  0.4682  0.3228 -0.6694
   23MOL   H313 7397   2.154   0.753   3.370  0.1584  0.2844  2.0684
   23MOL   H314 7398   2.314   0.691   3.353 -1.1008 -0.8237 -2.5745
   23MOL   H315 7399   2.231   0.486   3.241  0.6905  0.1924  2.1021
   23MOL   H316 7400   2.190   0.634   3.164  0.2625 -1.9996 -0.2165
   23MOL   H317 7401   1.964   0.651   3.252  1.5444  0.8321 -1.2205
   23MOL   H318 7402   1.969   0.501   3.344 -0.4925  1.5875 -0.1003
   23MOL   H319 7403   1.960   0.492   3.176 -2.9243  0.9002  0.6654
   23MOL   H320 7404   2.014   0.703   3.652  1.1210 -1.6159 -0.3033
   23MOL   H321 7405   2.122   0.832   3.718 -0.2950 -1.1718  1.2398
   23MOL   H322 7406   2.077   0.823   3.551  0.8426 -0.5640 -0.6968
   24MOL     C1 7407   5.759   2.916   7.590 -0.0282 -0.2169  0.4591
   24MOL     O2 7408   5.837   3.032   7.550 -0.0901  0.6255  0.5318
   24MOL     C3 7409   5.965   3.043   7.626 -0.3940 -0.8133  0.0496
   24MOL     C4 7410   6.050   3.163   7.572  0.7085  0.7209  0.3458
   24MOL     C5 7411   6.126   3.114   7.444 -0.1118 -0.2149 -0.1004
   24MOL     C6 7412   5.628   2.946   7.524  1.1957  0.1057 -0.1747
   24MOL     H7 7413   5.761   2.912   7.699 -1.3442  1.0343  0.5456
   24MOL     H8 7414   5.956   3.068   7.731 -1.3636 -2.3680  0.3522
   24MOL     H9 7415   6.025   2.952   7.613  0.7572 -0.1589  0.7069
   24MOL    H10 7416   6.124   3.206   7.640 -0.3115  1.1620  1.1951
   24MOL    H11 7417   5.983   3.244   7.543 -1.3589 -0.5335  1.4940
   24MOL    H12 7418   6.177   3.195   7.391  1.5081  0.0977  1.8696
   24MOL    H13 7419   6.053   3.089   7.368 -1.5778  0.4869  1.0589
   24MOL    H14 7420   6.200   3.037   7.467  0.2105  0.1474  0.0792
   24MOL    H15 7421   5.588   3.042   7.558  0.1073 -0.2103 -0.5488
   24MOL    H16 7422   5.639   2.975   7.420  2.6543 -0.4226 -0.1783
   24MOL    H17 7423   5.809   2.826   7.555  2.9987  1.8013 -0.5484
   24MOL    C18 7424   5.527   2.835   7.543 -0.0743 -0.7443 -0.3169
   24MOL    O19 7425   5.424   2.886   7.622  0.2292 -0.2105  0.3016
   24MOL    C20 7426   5.394   2.819   7.745  0.1651 -0.2667 -0.1241
   24MOL    C21 7427   5.300   2.902   0.007  0.0042  0.5621 -0.5184
   24MOL    C22 7428   5.268   2.824   0.149 -0.0078  0.2216  0.2254
   24MOL    C23 7429   5.459   2.791   7.409 -0.6318 -0.1322  0.1712
   24MOL    H24 7430   5.576   2.753   7.596  1.0737  0.4146  0.4407
   24MOL    H25 7431   5.344   2.725   7.720  0.3728 -0.6681  0.9389
   24MOL    H26 7432   5.488   2.793   7.793  0.0581  1.2438  0.9645
   24MOL    H27 7433   5.207   2.921   7.781 -0.3590 -1.0612 -0.4933
   24MOL    H28 7434   5.340   3.000   0.035  1.4256  0.2083 -1.2793
   24MOL    H29 7435   5.344   2.846   0.224  0.7279 -1.6171  0.0487
   24MOL    H30 7436   5.250   2.718   0.131 -0.9156  0.2409  0.9833
   24MOL    H31 7437   5.176   2.867   0.188  1.2676  3.0046  0.3063
   24MOL    H32 7438   5.390   2.868   7.372 -0.5029  0.6156  1.4415
   24MOL    H33 7439   5.535   2.791   7.332 -1.4359  1.2020 -0.6597
   24MOL    C34 7440   5.390   2.659   7.415  0.0046 -0.2888 -0.7149
   24MOL    O35 7441   5.259   2.666   7.363  0.1246  0.3957 -0.3368
   24MOL    C36 7442   5.171   2.700   7.458  0.7814 -0.9555  0.5141
   24MOL    C37 7443   5.033   2.714   7.398  0.2022 -0.1151 -0.0980
   24MOL    C38 7444   5.030   2.819   7.286 -0.2229  0.8929 -0.3838
   24MOL    C39 7445   5.469   2.557   7.331  0.1215 -0.4835  0.2967
   24MOL    H40 7446   5.386   2.628   7.520  1.0692  0.9313 -0.3014
   24MOL    H41 7447   5.173   2.622   7.535 -1.4821 -1.4480  0.1031
   24MOL    H42 7448   5.190   2.792   7.513  0.6212 -2.9988  4.1729
   24MOL    H43 7449   4.967   2.747   7.478  0.0426  1.3366 -0.8097
   24MOL    H44 7450   5.007   2.613   7.367  0.3153  0.0528 -0.7459
   24MOL    H45 7451   5.108   2.892   7.310  1.6038 -1.6075  1.5606
   24MOL    H46 7452   4.931   2.862   7.272 -0.2520  0.5003 -1.4218
   24MOL    H47 7453   5.055   2.770   7.191 -0.9531  0.2954 -0.2746
   24MOL    H48 7454   5.425   2.458   7.327  0.7466 -0.7016 -1.3264
   24MOL    H49 7455   5.454   2.597   7.231 -2.7813  2.5681  1.8461
   24MOL    C50 7456   5.620   2.539   7.362 -0.0381 -0.1403  0.0061
   24MOL    O51 7457   5.638   2.457   7.480 -0.5234  0.7074 -0.3535
   24MOL    C52 7458   5.740   2.503   7.569 -0.6087 -0.7970  0.0726
   24MOL    C53 7459   5.742   2.411   7.688  0.2768 -0.2174  0.9347
   24MOL    C54 7460   5.851   2.442   7.794  0.1579 -0.3583  0.3754
   24MOL    C55 7461   5.701   2.472   7.252  0.7606  0.0475 -0.3653
   24MOL    H56 7462   5.666   2.634   7.389  2.9177 -1.3062 -0.7030
   24MOL    H57 7463   5.841   2.494   7.527 -0.0222 -0.1005  1.3059
   24MOL    H58 7464   5.732   2.607   7.600  0.4760 -0.4767 -0.6795
   24MOL    H59 7465   5.764   2.311   7.651 -1.5726  0.1531 -1.2470
   24MOL    H60 7466   5.647   2.411   7.741 -0.1923  0.1110  0.0908
   24MOL    H61 7467   5.813   2.526   0.023 -0.6701 -0.7234  0.3715
   24MOL    H62 7468   5.956   2.460   7.769 -0.6079  0.0676 -2.6612
   24MOL    H63 7469   5.848   2.360   0.038 -0.8133  0.7526  1.6209
   24MOL    H64 7470   5.792   2.422   7.285  2.1958  3.6619  1.3838
   24MOL    H65 7471   5.642   2.384   7.226 -1.4782  1.6654 -0.8207
   24MOL    C66 7472   5.734   2.569   7.142  0.4977 -0.0714 -0.4322
   24MOL    O67 7473   5.830   2.664   7.197  0.3757  0.0611  0.1038
   24MOL    C68 7474   5.808   2.802   7.174 -0.0227  0.4392 -0.0799
   24MOL    C69 7475   5.924   2.889   7.231 -0.1067 -0.0903  0.0952
   24MOL    C70 7476   6.054   2.882   7.149 -0.1971  0.2986  0.0402
   24MOL    C71 7477   5.787   2.507   7.016  0.1139 -0.3940  1.0502
   24MOL    H72 7478   5.645   2.625   7.116  1.6692  1.6103 -0.8952
   24MOL    H73 7479   5.791   2.810   7.066  0.2740 -0.5448 -0.2114
   24MOL    H74 7480   5.711   2.816   7.221  1.0900 -1.9917  3.0754
   24MOL    H75 7481   5.944   2.856   7.332 -0.9067  1.9136  0.9474
   24MOL    H76 7482   5.879   2.988   7.241  0.0362  0.3630 -3.2330
   24MOL    H77 7483   6.092   2.784   7.120 -3.7689 -0.8783 -0.8888
   24MOL    H78 7484   6.138   2.923   7.207 -0.6211  0.2999  0.6586
   24MOL    H79 7485   6.042   2.948   7.063 -1.3070 -0.6596 -0.5428
   24MOL    H80 7486   5.825   2.586   6.951 -2.2144 -1.3322 -1.5402
   24MOL    H81 7487   5.870   2.444   7.049 -0.3962 -2.6206 -1.6457
   24MOL    C82 7488   5.700   2.428   6.913  0.2058  0.2893 -0.1877
   24MOL    O83 7489   5.637   2.324   6.991 -0.2754 -0.5184 -0.1932
   24MOL    C84 7490   5.659   2.198   6.938  1.2617  0.3687  0.5335
   24MOL    C85 7491   5.571   2.106   7.023 -0.0659  0.2072  0.3698
   24MOL    C86 7492   5.610   2.073   7.170 -0.8237 -1.1960 -0.0532
   24MOL    C87 7493   5.583   2.503   6.857 -0.4949 -0.0700  0.4276
   24MOL    H88 7494   5.770   2.388   6.840  2.1327  0.2410  1.6569
   24MOL    H89 7495   5.647   2.201   6.829  2.8875 -1.2940  0.2940
   24MOL    H90 7496   5.763   2.165   6.935  2.1429  3.0788 -1.8481
   24MOL    H91 7497   5.598   2.010   6.980  1.1332 -0.1501  1.8879
   24MOL    H92 7498   5.463   2.124   7.021 -0.0531  0.3057  0.5677
   24MOL    H93 7499   5.714   2.046   7.184 -0.1773  0.0021 -2.2154
   24MOL    H94 7500   5.538   2.001   7.208 -1.7026 -0.6640 -0.6752
   24MOL    H95 7501   5.603   2.162   7.232  1.1481  0.2723 -1.8474
   24MOL    H96 7502   5.514   2.424   6.826  0.7360 -1.5077  1.3209
   24MOL    H97 7503   5.520   2.559   6.926 -0.8036 -1.6033  1.4007
   24MOL    C98 7504   5.592   2.598   6.729  0.0546 -0.1446  0.2961
   24MOL    O99 7505   5.662   2.715   6.763  0.7678 -0.5149 -0.1116
   24MOL   C100 7506   5.590   2.834   6.811 -0.2001  0.7001 -0.2085
   24MOL   C101 7507   5.539   2.923   6.693  0.4564 -0.3542  0.4776
   24MOL   C102 7508   5.639   2.964   6.592 -0.4903 -0.4572  0.0592
   24MOL   C103 7509   5.661   2.550   6.603  0.0440  0.2498 -0.1350
   24MOL   H104 7510   5.489   2.616   6.699 -0.2650 -0.3122  1.2984
   24MOL   H105 7511   5.508   2.792   6.869  0.1958  0.7778  0.4136
   24MOL   H106 7512   5.653   2.888   6.883 -0.5093  1.3000 -0.3847
   24MOL   H107 7513   5.502   3.015   6.740 -1.6078 -1.4047  0.9845
   24MOL   H108 7514   5.454   2.882   6.640 -0.4772 -1.4661  2.7566
   24MOL   H109 7515   5.728   3.015   6.628  0.5402 -1.3325 -1.2289
   24MOL   H110 7516   5.594   3.040   6.528 -0.3464 -0.5141 -0.1071
   24MOL   H111 7517   5.677   2.886   6.526  3.0911  1.6740 -0.5134
   24MOL   H112 7518   5.671   2.629   6.528  0.2706  1.1276  0.7992
   24MOL   H113 7519   5.763   2.531   6.636  0.7581 -0.3596 -2.6021
   24MOL   C114 7520   5.599   2.422   6.546 -0.6402  0.0543 -0.7741
   24MOL   O115 7521   5.458   2.456   6.530 -0.1509 -0.4521  0.2863
   24MOL   C116 7522   5.382   2.340   6.551  0.1593  0.0806  0.3344
   24MOL   C117 7523   5.250   2.354   6.478  0.0700 -0.1947  0.5142
   24MOL   C118 7524   5.140   2.269   6.533 -0.1104 -0.6234 -0.2190
   24MOL   C119 7525   5.665   2.391   6.407 -0.4805 -0.9559 -0.7414
   24MOL   H120 7526   5.614   2.344   6.621 -0.2173 -1.2864 -2.2225
   24MOL   H121 7527   5.450   2.263   6.515  1.8654  2.7705 -2.3938
   24MOL   H122 7528   5.360   2.326   6.657 -0.1580 -0.5728  0.1870
   24MOL   H123 7529   5.273   2.340   6.373 -1.1159  0.8946  0.0921
   24MOL   H124 7530   5.214   2.456   6.472  3.4816  0.8974 -2.8077
   24MOL   H125 7531   5.160   2.167   6.499  2.7102 -0.9139  2.2342
   24MOL   H126 7532   5.048   2.305   6.485  0.7465  0.4798 -1.0541
   24MOL   H127 7533   5.113   2.272   6.638 -1.7456 -2.1016 -0.5678
   24MOL   H128 7534   5.626   2.293   6.382 -2.1343 -0.7110  0.7445
   24MOL   H129 7535   5.622   2.464   6.338  1.0569  0.6386 -0.0743
   24MOL   C130 7536   5.815   2.391   6.397 -0.4698  0.0933 -0.4647
   24MOL   O131 7537   5.869   2.289   6.482 -0.3182  0.2380 -0.1345
   24MOL   C132 7538   6.006   2.298   6.521  0.7458 -0.2230  0.3518
   24MOL   C133 7539   6.009   2.330   6.669  0.8970 -1.1450  0.2183
   24MOL   C134 7540   5.962   2.209   6.760  0.0567 -0.0073 -0.2802
   24MOL   C135 7541   5.860   2.370   6.251 -0.6556  0.0471  0.7006
   24MOL   H136 7542   5.847   2.489   6.433  0.4777  0.6580 -2.7065
   24MOL   H137 7543   6.051   2.202   6.500  2.3180  0.6882 -0.5750
   24MOL   H138 7544   6.058   2.380   6.470 -0.4718  0.7553  0.6492
   24MOL   H139 7545   5.947   2.417   6.689  2.5721  0.2344 -0.4377
   24MOL   H140 7546   6.112   2.350   6.701  0.2307 -1.5340  2.6451
   24MOL   H141 7547   5.946   2.253   6.858 -0.6164  1.0223 -0.8372
   24MOL   H142 7548   6.030   2.125   6.769 -2.1085 -1.8017 -0.0427
   24MOL   H143 7549   5.867   2.164   6.731  0.2030  0.4677 -1.5159
   24MOL   H144 7550   5.913   2.275   6.255 -0.5043  0.1590  1.3813
   24MOL   H145 7551   5.779   2.344   6.182  1.2639 -0.0127 -1.6069
   24MOL   C146 7552   5.933   2.481   6.185 -0.6238  0.0271  0.0240
   24MOL   O147 7553   5.995   2.427   6.064 -0.0150 -0.2215 -0.5633
   24MOL   C148 7554   6.134   2.430   6.070 -0.3939 -0.5419 -0.4060
   24MOL   C149 7555   6.173   2.316   6.157 -0.2707  0.2741 -0.2898
   24MOL   C150 7556   6.325   2.289   6.159 -0.3916 -0.0728  0.1728
   24MOL   C151 7557   5.846   2.609   6.155  0.3567 -0.5727 -0.2542
   24MOL   H152 7558   6.003   2.511   6.263 -1.6565  3.7022 -0.3884
   24MOL   H153 7559   6.178   2.392   5.977  0.1281  0.2170 -0.4765
   24MOL   H154 7560   6.176   2.529   6.092  1.4084 -0.9375 -1.9103
   24MOL   H155 7561   6.117   2.225   6.137  0.5417 -0.3657  0.3174
   24MOL   H156 7562   6.147   2.352   6.256  1.9859 -0.0720  0.4574
   24MOL   H157 7563   6.371   2.388   6.149  0.3186 -0.4720 -0.5849
   24MOL   H158 7564   6.357   2.244   6.065 -1.0886  2.2572 -1.2136
   24MOL   H159 7565   6.361   2.234   6.246  2.4260  2.4483  0.6667
   24MOL   H160 7566   5.755   2.579   6.102  0.8286  0.1191 -1.4578
   24MOL   H161 7567   5.811   2.650   6.250  1.1460  0.7643 -0.5254
   24MOL   C162 7568   5.922   2.727   6.099  0.6630  0.1236  0.1981
   24MOL   O163 7569   5.939   2.690   5.962  0.0928  0.0080 -0.1901
   24MOL   C164 7570   6.030   2.767   5.884 -0.0274  0.1098  0.0051
   24MOL   C165 7571   6.060   2.707   5.744  0.0892 -0.0710 -0.1135
   24MOL   C166 7572   6.147   2.579   5.760  0.4622  0.2624 -0.2273
   24MOL   C167 7573   5.839   2.856   6.109  0.9557 -0.7366  0.0082
   24MOL   H168 7574   6.010   2.745   6.160  0.2883  2.7788  0.0271
   24MOL   H169 7575   5.996   2.869   5.864  2.9752  0.8746 -1.5232
   24MOL   H170 7576   6.116   2.768   5.951  0.0598 -0.1373 -0.1021
   24MOL   H171 7577   6.118   2.775   5.683 -2.6706  0.8104 -1.8241
   24MOL   H172 7578   5.974   2.678   5.684 -0.0416  1.0290 -0.4525
   24MOL   H173 7579   6.228   2.587   5.833  0.1713  1.9081 -0.0819
   24MOL   H174 7580   6.202   2.561   5.667 -0.7484  1.3031 -1.1582
   24MOL   H175 7581   6.088   2.495   5.796 -2.6557  4.3531  4.8815
   24MOL   H176 7582   5.868   2.935   6.040 -2.4439  0.3918 -0.1916
   24MOL   H177 7583   5.737   2.843   6.073  0.4065 -0.0571  1.2707
   24MOL   C178 7584   5.836   2.930   6.248 -0.2185  0.3509 -0.1243
   24MOL   O179 7585   5.971   2.961   6.281  0.1539  0.5418  0.3069
   24MOL   C180 7586   5.997   3.000   6.417 -0.5930 -0.5497 -0.2422
   24MOL   C181 7587   6.139   3.061   6.419  0.1508 -0.7905 -0.3530
   24MOL   C182 7588   6.149   3.175   6.323 -0.5318 -0.4129  0.4961
   24MOL   C183 7589   5.766   3.069   6.230  0.2237 -0.1248  0.9100
   24MOL   H184 7590   5.780   2.869   6.318  0.9032 -1.4010 -0.7163
   24MOL   H185 7591   5.921   3.073   6.446  0.5521  0.1521  1.0667
   24MOL   H186 7592   5.999   2.919   6.489 -1.6288  0.2109  0.6732
   24MOL   H187 7593   6.214   2.986   6.395  0.4126 -0.4092 -0.7270
   24MOL   H188 7594   6.155   3.089   6.523 -1.8220  2.0785 -0.7832
   24MOL   H189 7595   6.081   3.257   6.349  0.9610  1.6434 -1.8685
   24MOL   H190 7596   6.126   3.159   6.218  2.5576 -0.1180 -0.2643
   24MOL   H191 7597   6.245   3.226   6.326 -1.6006  1.8293 -1.0006
   24MOL   H192 7598   5.763   3.118   6.327  0.4960  0.0735  0.8200
   24MOL   H193 7599   5.839   3.122   6.169 -1.0043  3.2018  2.2593
   24MOL   C194 7600   5.625   3.070   6.164 -0.3942  0.0294 -0.2596
   24MOL   O195 7601   5.537   2.999   6.251 -0.2428  0.2957 -0.3051
   24MOL   C196 7602   5.438   2.927   6.181 -0.2850 -0.0076  0.0089
   24MOL   C197 7603   5.400   2.813   6.278  0.7215 -0.1653 -0.3130
   24MOL   C198 7604   5.510   2.712   6.302  0.5091  0.8342  0.1783
   24MOL   C199 7605   5.572   3.220   6.154  0.1733  0.6852  0.8328
   24MOL   H200 7606   5.633   3.024   6.065  1.7217  1.1117 -0.6227
   24MOL   H201 7607   5.358   3.002   6.177 -0.6834 -0.3857  0.9283
   24MOL   H202 7608   5.469   2.892   6.083  2.3841 -3.3210  1.9667
   24MOL   H203 7609   5.313   2.752   6.255  0.3305 -0.5228  1.9907
   24MOL   H204 7610   5.374   2.870   6.367  1.3671  2.5019 -1.7830
   24MOL   H205 7611   5.474   2.641   6.377 -1.2498  1.9772  0.4526
   24MOL   H206 7612   5.595   2.764   6.343 -0.4479  1.0090  1.9905
   24MOL   H207 7613   5.541   2.652   6.217  2.1444 -0.5768  1.7356
   24MOL   H208 7614   5.466   3.223   6.129  0.5739  1.3448 -0.9208
   24MOL   H209 7615   5.592   3.265   6.251 -0.0092 -0.7337  1.5522
   24MOL   C210 7616   5.639   3.302   6.048  0.7395  0.6832  0.0354
   24MOL   O211 7617   5.592   3.247   5.925  0.1061 -0.2615  0.4801
   24MOL   C212 7618   5.680   3.267   5.817  0.4834 -0.0915  0.1419
   24MOL   C213 7619   5.793   3.163   5.816 -0.2075  0.3353 -0.2033
   24MOL   C214 7620   5.735   3.039   5.756  0.0994  0.1739 -0.0213
   24MOL   C215 7621   5.611   3.459   6.043  0.0491 -0.2076  0.4586
   24MOL   H216 7622   5.748   3.299   6.050  0.7613  1.5536  0.1953
   24MOL   H217 7623   5.623   3.273   5.724  2.2209  0.5312 -0.8972
   24MOL   H218 7624   5.722   3.367   5.821  4.4061 -1.6526 -0.3017
   24MOL   H219 7625   5.835   3.138   5.914  0.5439 -0.1174 -0.6377
   24MOL   H220 7626   5.875   3.196   5.753  1.1680 -0.0592  1.3576
   24MOL   H221 7627   5.633   3.017   5.787  0.6011 -0.1171  1.4877
   24MOL   H222 7628   5.786   2.956   5.806 -2.7381  0.3297  3.3658
   24MOL   H223 7629   5.737   3.046   5.647  2.0032  0.0139 -0.0222
   24MOL   H224 7630   5.710   3.504   6.041 -0.0617  0.0232  0.1987
   24MOL   H225 7631   5.564   3.475   5.946 -1.8942  1.1171  1.6023
   24MOL   C226 7632   5.523   3.526   6.149  0.2702 -0.5717 -0.2080
   24MOL   O227 7633   5.616   3.554   6.258 -0.1965 -0.0588  0.4680
   24MOL   C228 7634   5.551   3.576   6.379 -0.9353 -0.2971 -0.4787
   24MOL   C229 7635   5.633   3.538   6.499  0.0816  0.4992  0.0589
   24MOL   C230 7636   5.678   3.392   6.500 -0.0818  0.7140  0.0876
   24MOL   C231 7637   5.445   3.652   6.100  0.5866  0.1122  0.3091
   24MOL   H232 7638   5.438   3.470   6.187 -0.7910  1.4484  0.4942
   24MOL   H233 7639   5.530   3.683   6.379 -1.5670 -0.4134  0.6907
   24MOL   H234 7640   5.453   3.529   6.388  0.7836 -3.7168  1.3971
   24MOL   H235 7641   5.588   3.569   6.593 -0.4986  1.1309 -0.4284
   24MOL   H236 7642   5.723   3.599   6.501  0.1209  0.3921  1.6179
   24MOL   H237 7643   5.589   3.329   6.508  0.5563 -0.2664 -0.4423
   24MOL   H238 7644   5.751   3.375   6.580 -0.6693  0.9477  0.6736
   24MOL   H239 7645   5.737   3.358   6.415 -0.1362 -1.0633  0.7340
   24MOL   H240 7646   5.377   3.611   6.026 -1.2413  1.8001  1.0020
   24MOL   H241 7647   5.368   3.685   6.170 -0.2221 -1.4951  0.1852
   24MOL   C242 7648   5.542   3.767   6.049  0.0132  0.3808 -0.5243
   24MOL   O243 7649   5.463   3.833   5.946 -0.0793 -0.3630  0.3610
   24MOL   C244 7650   5.467   3.787   5.809  0.0263 -0.0968  0.4198
   24MOL   C245 7651   5.344   3.856   5.748 -0.1326 -0.5173  0.5588
   24MOL   C246 7652   5.355   3.877   5.596 -0.0128 -0.3954 -0.3072
   24MOL   C247 7653   5.562   3.884   6.150 -0.4536  0.0676 -0.1859
   24MOL   H248 7654   5.637   3.737   6.005 -1.1972 -2.1299 -1.5276
   24MOL   H249 7655   5.564   3.822   5.775  1.1371 -0.4736  3.0877
   24MOL   H250 7656   5.459   3.679   5.792 -1.1902 -0.0142  0.4450
   24MOL   H251 7657   5.330   3.956   5.789  0.4159  0.4292 -1.4562
   24MOL   H252 7658   5.252   3.805   5.776 -0.6137  0.3593  0.6129
   24MOL   H253 7659   5.440   3.936   5.563 -1.3369 -0.4309 -3.9224
   24MOL   H254 7660   5.266   3.927   5.558  0.9258  0.5189 -1.3217
   24MOL   H255 7661   5.367   3.783   5.543 -1.0517 -1.3484  1.1020
   24MOL   H256 7662   5.460   3.918   6.170 -0.5624  0.8586 -2.0007
   24MOL   H257 7663   5.603   3.843   6.242 -3.2336  0.1092  1.1350
   24MOL   C258 7664   5.656   3.999   6.093 -0.2371 -0.1584 -0.1100
   24MOL   O259 7665   5.625   4.114   6.179  0.2404 -0.3652  0.2781
   24MOL   C260 7666   5.521   4.199   6.125 -0.4394 -0.1303 -0.0088
   24MOL   C261 7667   5.574   4.290   6.016  0.4845  0.2665 -0.0024
   24MOL   C262 7668   5.462   4.371   5.950  0.0726  1.4507  0.0375
   24MOL   C263 7669   5.803   3.961   6.106 -0.4040 -0.4332  0.1979
   24MOL   H264 7670   5.636   4.023   5.988 -0.5791 -0.0940 -0.0295
   24MOL   H265 7671   5.442   4.136   6.083  0.0151 -0.9605  0.3630
   24MOL   H266 7672   5.476   4.248   6.212 -1.4493 -1.1023  0.0364
   24MOL   H267 7673   5.624   4.235   5.936  0.7607  1.1168 -0.4269
   24MOL   H268 7674   5.648   4.365   6.043 -1.1396  1.9911 -0.2787
   24MOL   H269 7675   5.375   4.389   6.014  0.0803  1.0067  0.1749
   24MOL   H270 7676   5.412   4.327   5.864  0.6685  0.6798  0.0814
   24MOL   H271 7677   5.504   4.461   5.905 -0.3466  0.8864 -1.5121
   24MOL   H272 7678   5.848   3.945   6.204  2.2418 -2.3106 -1.2635
   24MOL   H273 7679   5.821   3.868   6.052 -0.1674 -1.3944  1.8867
   24MOL   C274 7680   5.885   4.073   6.042 -0.0939  0.2829  0.1161
   24MOL   O275 7681   5.966   4.145   6.138  0.2564 -0.5704  0.4664
   24MOL   C276 7682   5.898   4.227   6.232  0.2625  0.4001  1.0811
   24MOL   C277 7683   5.993   4.327   6.281  0.3937 -0.0382  0.5332
   24MOL   C278 7684   6.104   4.264   6.367 -0.0908  0.2429 -0.0171
   24MOL   C279 7685   5.987   4.017   5.949 -0.2873  0.0628 -0.3813
   24MOL   H280 7686   5.827   4.144   5.983 -0.0947 -0.2164 -0.4920
   24MOL   H281 7687   5.812   4.272   6.182 -1.1604 -3.4249 -0.1035
   24MOL   H282 7688   5.856   4.163   6.310 -1.4641  0.3808  0.1593
   24MOL   H283 7689   5.932   4.393   6.342  0.6233  0.4972  0.1900
   24MOL   H284 7690   6.036   4.374   6.192 -0.8124 -2.9538 -1.6900
   24MOL   H285 7691   6.069   4.180   6.427 -0.6124  0.1743 -0.4068
   24MOL   H286 7692   6.144   4.340   6.435 -0.1767  2.4710 -2.3738
   24MOL   H287 7693   6.188   4.226   6.309 -0.2986 -0.4942  0.1637
   24MOL   H288 7694   6.061   4.094   5.925 -1.7127  2.0156  1.3602
   24MOL   H289 7695   6.049   3.943   6.000  1.5897  0.2555 -2.2824
   24MOL   C290 7696   5.925   3.973   5.817 -0.6218 -0.5686  0.2085
   24MOL   O291 7697   5.870   4.091   5.762  0.3527  0.4583  0.4973
   24MOL   C292 7698   5.745   4.071   5.687 -0.2956  0.2182 -0.1930
   24MOL   C293 7699   5.679   4.205   5.655  0.4028  0.2137 -0.1977
   24MOL   C294 7700   5.567   4.206   5.547 -0.1259 -0.1210 -0.2824
   24MOL   C295 7701   6.022   3.915   5.702  0.7301  0.2465  0.4529
   24MOL   H296 7702   5.841   3.906   5.838 -0.3818 -1.1716 -0.7210
   24MOL   H297 7703   5.775   4.021   5.596  0.3535 -0.1923  0.2379
   24MOL   H298 7704   5.680   4.013   5.751 -1.9060  1.8025 -0.3529
   24MOL   H299 7705   5.758   4.267   5.612  3.5276 -2.2428  1.7650
   24MOL   H300 7706   5.650   4.261   5.745  0.0328  2.1075 -1.4636
   24MOL   H301 7707   5.541   4.305   5.509  1.8469  0.1720 -0.9371
   24MOL   H302 7708   5.484   4.144   5.582 -1.3354  2.2368  1.1627
   24MOL   H303 7709   5.609   4.150   5.463 -1.3761 -0.0947 -0.9325
   24MOL   H304 7710   5.963   3.890   5.614 -1.6100 -0.5157  2.1702
   24MOL   H305 7711   6.063   4.011   5.671  0.6392  0.1186 -0.0659
   24MOL   C306 7712   6.117   3.800   5.741 -1.1816 -0.1256  0.2164
   24MOL   O307 7713   6.046   3.691   5.793  0.2493 -0.1328 -0.1552
   24MOL   C308 7714   6.116   3.580   5.855  0.3148  0.0032 -0.6193
   24MOL   C309 7715   6.021   3.488   5.929  0.1716  0.1515 -0.0400
   24MOL   C310 7716   5.968   3.560   6.052 -0.5532 -0.4256  0.2470
   24MOL   C311 7717   6.199   3.756   5.631 -0.4617 -0.1851 -0.1544
   24MOL   H312 7718   6.178   3.840   5.822  0.7521  0.8313 -1.6404
   24MOL   H313 7719   6.177   3.529   5.781  1.1502  1.3925 -0.9224
   24MOL   H314 7720   6.192   3.626   5.918  0.0528 -0.7691  0.2753
   24MOL   H315 7721   6.073   3.397   5.958 -1.6617 -0.7330  0.5399
   24MOL   H316 7722   5.939   3.464   5.861  0.3644 -0.9411  0.1181
   24MOL   H317 7723   5.910   3.493   6.116  0.1044  0.0016  1.3001
   24MOL   H318 7724   5.912   3.648   6.022  1.3065  0.8410  0.4326
   24MOL   H319 7725   6.049   3.597   6.114  0.1217 -1.2410 -0.1222
   24MOL   H320 7726   6.271   3.677   5.654 -0.2225 -0.1933 -0.9211
   24MOL   H321 7727   6.143   3.709   5.550 -2.1004 -1.6532  1.7897
   24MOL   H322 7728   6.248   3.843   5.588 -2.0250  0.4593 -0.6377
   25MOL     C1 7729   0.961   7.812   0.824  0.0720 -0.4336 -0.0398
   25MOL     O2 7730   1.088   7.753   0.825  0.3827  0.2063  0.1544
   25MOL     C3 7731   1.158   7.770   0.947 -0.4890 -0.4844 -0.6708
   25MOL     C4 7732   1.305   7.732   0.941 -1.0618  0.6439  0.6037
   25MOL     C5 7733   1.377   7.748   1.073 -0.2834 -0.9041  0.2317
   25MOL     C6 7734   0.890   7.735   0.712 -0.3528  0.5157  0.0110
   25MOL     H7 7735   0.966   0.092   0.808  0.3790 -0.4739 -0.2273
   25MOL     H8 7736   1.160   0.047   0.977  0.8594 -0.1491 -1.8893
   25MOL     H9 7737   1.106   7.715   1.026  1.6001 -0.6788  0.6092
   25MOL    H10 7738   1.356   7.780   0.857  0.3689  0.9017  1.6064
   25MOL    H11 7739   1.315   7.628   0.910  0.1526  1.0853 -0.5407
   25MOL    H12 7740   1.339   7.672   1.141  1.1523 -1.1065  0.8208
   25MOL    H13 7741   1.352   0.018   1.114 -1.2646 -0.6900 -0.8358
   25MOL    H14 7742   1.485   7.742   1.070 -0.2959 -1.7798  1.1523
   25MOL    H15 7743   0.943   7.744   0.618  0.4448  2.3391  0.6116
   25MOL    H16 7744   0.892   7.628   0.734  0.0418  0.7022  0.8981
   25MOL    H17 7745   0.903   7.796   0.915 -1.1144 -0.6229 -0.8067
   25MOL    C18 7746   0.735   7.762   0.705  0.7160 -0.3313 -0.5074
   25MOL    O19 7747   0.723   0.075   0.679  0.3841 -0.1285 -0.0721
   25MOL    C20 7748   0.600   0.131   0.703  0.0513 -0.0257 -0.6170
   25MOL    C21 7749   0.633   0.269   0.765  0.1968  0.1378 -0.2243
   25MOL    C22 7750   0.739   0.348   0.691  0.1328  0.6745 -0.2627
   25MOL    C23 7751   0.680   7.663   0.594 -0.5815  0.4274 -0.1574
   25MOL    H24 7752   0.679   7.738   0.796 -0.7823 -2.5475 -1.9382
   25MOL    H25 7753   0.530   0.144   0.620  1.2754  0.3713 -1.6012
   25MOL    H26 7754   0.541   0.069   0.771 -2.2664  1.4939 -1.1835
   25MOL    H27 7755   0.648   0.258   0.872  1.2964  1.3041 -0.2562
   25MOL    H28 7756   0.541   0.327   0.756 -0.6257 -0.7072  2.3563
   25MOL    H29 7757   0.733   0.332   0.584 -2.4364 -1.9463  0.2095
   25MOL    H30 7758   0.839   0.310   0.716 -0.2774 -1.8913 -2.3128
   25MOL    H31 7759   0.733   0.452   0.723  0.0753  0.6865 -0.3141
   25MOL    H32 7760   0.724   7.699   0.501  2.3870 -2.0683  0.2028
   25MOL    H33 7761   0.717   7.562   0.607 -0.7472  0.6409  2.1260
   25MOL    C34 7762   0.531   7.647   0.577  0.0879 -0.2777 -0.6174
   25MOL    O35 7763   0.513   7.592   0.452 -0.3578 -0.7853  0.2113
   25MOL    C36 7764   0.498   7.686   0.341  0.0059  0.1520 -0.1772
   25MOL    C37 7765   0.493   7.603   0.213 -0.1726  0.2986 -0.1673
   25MOL    C38 7766   0.362   7.538   0.207  0.4156 -0.1202 -0.5870
   25MOL    C39 7767   0.459   7.563   0.685 -0.1137 -0.4257  0.2845
   25MOL    H40 7768   0.494   7.750   0.587  1.8094  0.2041  1.0735
   25MOL    H41 7769   0.407   7.745   0.344  0.8076  1.3448  1.0191
   25MOL    H42 7770   0.574   7.764   0.352 -1.6199  1.5886  1.0882
   25MOL    H43 7771   0.556   7.515   0.203 -0.1842  0.4797 -2.1611
   25MOL    H44 7772   0.512   7.679   0.137 -1.6150  2.4665  1.5883
   25MOL    H45 7773   0.347   7.467   0.126  1.5483 -1.9508  0.7696
   25MOL    H46 7774   0.279   7.609   0.201  0.9395  0.3496 -3.0385
   25MOL    H47 7775   0.342   7.480   0.297 -0.7533  1.0644 -0.0512
   25MOL    H48 7776   0.476   7.456   0.673 -2.7029 -0.9498  0.8197
   25MOL    H49 7777   0.505   7.596   0.778 -0.2744 -0.4254  0.3643
   25MOL    C50 7778   0.308   7.583   0.693 -0.7352  0.0253  0.6351
   25MOL    O51 7779   0.269   7.534   0.820  0.5429 -0.3715  0.1939
   25MOL    C52 7780   0.258   7.396   0.837 -0.1813  0.3021  0.1626
   25MOL    C53 7781   0.209   7.368   0.981 -0.2302 -0.0325  0.7268
   25MOL    C54 7782   0.278   7.249   1.049  0.3002  0.5607  0.3199
   25MOL    C55 7783   0.272   7.727   0.677  0.6461  0.0575  0.2068
   25MOL    H56 7784   0.262   7.521   0.616  0.8915  0.9090 -1.1049
   25MOL    H57 7785   0.183   7.356   0.769 -0.4151 -0.5976  0.9349
   25MOL    H58 7786   0.352   7.347   0.812 -0.5314 -0.7129  0.8157
   25MOL    H59 7787   0.101   7.362   0.981 -0.3354  1.4371 -1.2966
   25MOL    H60 7788   0.231   7.458   1.039  1.6035 -0.4924  0.7957
   25MOL    H61 7789   0.270   7.156   0.991 -1.0220  0.1545  1.1436
   25MOL    H62 7790   0.252   7.255   1.154  0.9401  1.8959  0.4127
   25MOL    H63 7791   0.386   7.268   1.043  0.6364 -0.6818  2.0011
   25MOL    H64 7792   0.346   7.782   0.735 -2.3503  0.8269  3.4191
   25MOL    H65 7793   0.270   7.757   0.572  0.8423 -1.2432 -0.1742
   25MOL    C66 7794   0.129   7.775   0.715 -0.8367 -0.0267  0.5682
   25MOL    O67 7795   0.122   0.090   0.690 -0.1152  0.1467 -0.2861
   25MOL    C68 7796   0.154   0.172   0.797 -0.7792 -0.1873 -0.5518
   25MOL    C69 7797   0.105   0.317   0.758  0.0063 -0.0633 -0.0571
   25MOL    C70 7798   0.097   0.409   0.877 -0.2570 -0.0407  0.1400
   25MOL    C71 7799   0.014   7.715   0.640  0.7049  0.1713  0.4581
   25MOL    H72 7800   0.110   7.752   0.820  3.1629  3.2919  2.1886
   25MOL    H73 7801   0.104   0.130   0.885  0.3563 -0.1155  0.1361
   25MOL    H74 7802   0.261   0.173   0.820 -0.8637 -2.6515  0.1124
   25MOL    H75 7803   0.009   0.306   0.708  0.3530  0.2095 -0.7945
   25MOL    H76 7804   0.171   0.355   0.680  0.7877 -1.4462 -0.0968
   25MOL    H77 7805   0.088   0.513   0.844 -1.6281  0.5036  2.1279
   25MOL    H78 7806   0.181   0.386   0.941  0.8118  0.6653 -0.9902
   25MOL    H79 7807   0.006   0.383   0.932 -0.8462  1.5431 -0.0465
   25MOL    H80 7808   7.767   7.791   0.619  1.7786  1.0696 -0.1984
   25MOL    H81 7809   0.066   7.670   0.556  2.2777 -0.6232  1.8246
   25MOL    C82 7810   7.769   7.595   0.711  0.8711  1.2537 -0.0965
   25MOL    O83 7811   7.720   7.653   0.827  0.1135 -0.2364  0.3133
   25MOL    C84 7812   7.688   7.567   0.932  0.2405 -0.0893 -0.1405
   25MOL    C85 7813   7.709   7.626   1.065 -0.3578  0.8316  0.5687
   25MOL    C86 7814   7.649   7.774   1.079 -0.0270  0.6944  0.1989
   25MOL    C87 7815   7.653   7.527   0.639 -0.2277 -0.6269 -0.4894
   25MOL    H88 7816   0.011   7.515   0.737  0.1634  0.4836 -0.5496
   25MOL    H89 7817   7.581   7.550   0.927  0.6162 -2.4587 -0.8341
   25MOL    H90 7818   7.741   7.472   0.919  0.5640  0.3176 -2.0101
   25MOL    H91 7819   7.818   7.631   1.063 -0.3169  0.1696  1.1111
   25MOL    H92 7820   7.667   7.565   1.144 -0.2296  0.0430  0.0384
   25MOL    H93 7821   7.690   0.018   1.008  1.0991  0.4037  0.5378
   25MOL    H94 7822   7.680   7.810   1.177  2.8338 -0.5784 -0.1703
   25MOL    H95 7823   7.541   7.765   1.083 -0.1494  2.1957  0.5958
   25MOL    H96 7824   7.609   7.450   0.702 -0.0379  1.2527  2.0272
   25MOL    H97 7825   7.577   7.603   0.619  0.0830  0.1149  1.0267
   25MOL    C98 7826   7.689   7.465   0.501  0.6016 -0.7291 -0.6465
   25MOL    O99 7827   7.798   7.366   0.520 -0.1394 -0.5011 -0.0459
   25MOL   C100 7828   0.011   7.294   0.410 -0.6868 -0.0630 -0.8497
   25MOL   C101 7829   0.137   7.227   0.460 -0.0810 -0.3388  0.2416
   25MOL   C102 7830   0.120   7.125   0.567  0.5531 -0.1458  0.1043
   25MOL   C103 7831   7.561   7.398   0.439 -0.0894 -0.3789 -0.0734
   25MOL   H104 7832   7.720   7.547   0.437 -0.2080  0.1667  0.0905
   25MOL   H105 7833   7.770   7.214   0.382 -0.4465 -0.3651 -0.5835
   25MOL   H106 7834   0.024   7.362   0.327 -0.7087  1.2575  0.2112
   25MOL   H107 7835   0.216   7.298   0.481 -0.5815 -0.1535  1.5517
   25MOL   H108 7836   0.160   7.165   0.373 -0.5034 -0.1484 -0.0085
   25MOL   H109 7837   0.089   7.172   0.660  0.0975 -1.4061  0.6048
   25MOL   H110 7838   0.210   7.068   0.591 -0.4061 -1.3964  0.7758
   25MOL   H111 7839   0.048   7.046   0.547 -0.7317  0.5681  1.7872
   25MOL   H112 7840   7.591   7.336   0.354  1.8879 -1.7356  1.5525
   25MOL   H113 7841   7.498   7.341   0.506 -0.4544  1.5877  1.2764
   25MOL   C114 7842   7.464   7.497   0.378  0.3765  0.3859  0.9256
   25MOL   O115 7843   7.517   7.540   0.250  0.5170 -0.5458  0.4879
   25MOL   C116 7844   7.469   7.649   0.181 -0.1709 -0.1812  0.2028
   25MOL   C117 7845   7.492   7.634   0.026  0.4985 -0.3047 -0.1285
   25MOL   C118 7846   7.379   7.544   7.804  0.3117  0.6132  0.2173
   25MOL   C119 7847   7.318   7.449   0.360  0.2648  0.3276 -0.3802
   25MOL   H120 7848   7.474   7.589   0.436 -0.5350 -0.1106  1.8830
   25MOL   H121 7849   7.362   7.664   0.197  0.1059  2.4097 -0.2714
   25MOL   H122 7850   7.528   7.735   0.212 -0.8079  0.7236 -1.0657
   25MOL   H123 7851   7.592   7.612   7.817  0.1156  0.0402 -1.3708
   25MOL   H124 7852   7.488   7.735   7.812 -1.4403 -0.5922 -0.7264
   25MOL   H125 7853   7.394   7.444   0.015 -2.8991 -0.0576 -0.0748
   25MOL   H126 7854   7.367   7.550   7.696 -1.6404 -0.3860  0.3463
   25MOL   H127 7855   7.285   7.585   0.015  0.5005  1.1993  0.0646
   25MOL   H128 7856   7.259   7.498   0.281 -0.1417 -0.0472 -0.3101
   25MOL   H129 7857   7.334   7.347   0.325  0.1799  0.1879 -0.0069
   25MOL   C130 7858   7.233   7.451   0.491 -0.3314  0.0789 -0.3456
   25MOL   O131 7859   7.167   7.579   0.499  1.0592  0.5135 -0.5338
   25MOL   C132 7860   7.202   7.663   0.609  0.3093  0.4539  0.6657
   25MOL   C133 7861   7.117   7.793   0.620 -0.1105 -0.5253 -0.2496
   25MOL   C134 7862   6.975   7.770   0.652 -0.1602 -0.3464  0.5386
   25MOL   C135 7863   7.119   7.346   0.482 -1.1003 -0.6643 -0.9551
   25MOL   H136 7864   7.295   7.422   0.577 -0.2256 -1.0992 -0.8151
   25MOL   H137 7865   7.197   7.616   0.707 -0.2364  0.6029  0.7111
   25MOL   H138 7866   7.309   7.684   0.610  0.5791 -0.8864  0.5273
   25MOL   H139 7867   7.125   0.018   0.525 -0.2557 -0.1220 -0.0396
   25MOL   H140 7868   7.161   0.028   0.698 -0.0750 -1.8418  0.8158
   25MOL   H141 7869   6.915   0.033   0.662  1.6095  0.8532  0.4514
   25MOL   H142 7870   6.981   7.714   0.745  1.4115 -1.1474 -0.0236
   25MOL   H143 7871   6.927   7.706   0.578 -1.7584  4.2835 -2.6904
   25MOL   H144 7872   7.061   7.377   0.396 -1.2340 -2.1114 -1.3967
   25MOL   H145 7873   7.166   7.253   0.450  1.2500  0.0628  0.2127
   25MOL   C146 7874   7.022   7.333   0.605  0.1537 -0.0276  0.2217
   25MOL   O147 7875   6.898   7.256   0.589  0.4855 -0.2449 -0.7355
   25MOL   C148 7876   6.803   7.300   0.501  0.0628 -0.7417  0.3686
   25MOL   C149 7877   6.674   7.371   0.550 -0.0112 -0.4352  0.6502
   25MOL   C150 7878   6.696   7.461   0.664  0.1145 -0.7377  0.0946
   25MOL   C151 7879   7.091   7.273   0.735  0.6242  0.7673 -0.1624
   25MOL   H152 7880   6.970   7.424   0.635 -0.8031 -0.2643 -0.6722
   25MOL   H153 7881   6.849   7.372   0.433 -0.4577 -0.0613  0.7265
   25MOL   H154 7882   6.766   7.222   0.434 -0.0209  1.2274 -1.9761
   25MOL   H155 7883   6.601   7.291   0.562  1.3235 -1.9672 -1.1959
   25MOL   H156 7884   6.638   7.427   0.464  0.4205  1.3603  1.6071
   25MOL   H157 7885   6.736   7.411   0.752  4.1884 -0.7591 -1.6762
   25MOL   H158 7886   6.602   7.514   0.680  0.7459  0.6152 -0.5734
   25MOL   H159 7887   6.767   7.540   0.640 -0.5236 -0.5514 -1.2320
   25MOL   H160 7888   7.108   7.167   0.714  2.4936  0.9243  0.5303
   25MOL   H161 7889   7.191   7.312   0.749  0.7762 -0.3659  2.0917
   25MOL   C162 7890   7.016   7.310   0.873 -0.9384 -0.5618 -0.2571
   25MOL   O163 7891   7.063   7.221   0.977 -0.1007 -0.2075  0.1436
   25MOL   C164 7892   6.994   7.088   0.992 -0.4879 -0.5950  0.0286
   25MOL   C165 7893   7.009   7.047   1.134  0.2392  0.2238 -0.3657
   25MOL   C166 7894   7.148   7.084   1.182  0.1257 -0.8908  0.7546
   25MOL   C167 7895   7.050   7.457   0.920  0.2363  0.0445  0.4873
   25MOL   H168 7896   6.908   7.304   0.858 -1.0175 -1.5765  0.6056
   25MOL   H169 7897   6.887   7.075   0.972 -1.0645  1.0773  1.8485
   25MOL   H170 7898   7.049   7.026   0.922 -0.9389 -1.9050  0.8329
   25MOL   H171 7899   6.998   6.940   1.148 -2.1074  0.2049 -1.9658
   25MOL   H172 7900   6.942   7.104   1.199 -0.8244  0.2215 -1.4395
   25MOL   H173 7901   7.151   7.191   1.198 -0.8033 -0.9345  1.2604
   25MOL   H174 7902   7.225   7.054   1.110  0.6809 -0.3280  1.1098
   25MOL   H175 7903   7.176   7.034   1.275 -0.0503 -3.2084 -0.4059
   25MOL   H176 7904   7.159   7.463   0.923  0.3790 -1.9320 -0.0115
   25MOL   H177 7905   7.018   7.529   0.844  1.0923 -1.9404 -1.8073
   25MOL   C178 7906   7.003   7.505   1.062 -0.4687  0.0889  0.0325
   25MOL   O179 7907   7.057   7.630   1.075 -0.3492  0.6904 -0.2537
   25MOL   C180 7908   7.178   7.626   1.144  0.2641  0.8916 -0.1444
   25MOL   C181 7909   7.240   7.766   1.160 -0.0771  0.0347  0.7389
   25MOL   C182 7910   7.267   0.002   1.029 -0.4325  0.1816  0.1515
   25MOL   C183 7911   6.850   7.524   1.073  0.2318  0.2437 -0.3632
   25MOL   H184 7912   7.028   7.439   1.145  0.7503  1.5351  0.8547
   25MOL   H185 7913   7.165   7.577   1.241  0.4598 -0.4412 -0.7850
   25MOL   H186 7914   7.247   7.572   1.079 -0.5144  2.5815 -2.4231
   25MOL   H187 7915   7.334   7.755   1.213  0.5972  1.0185 -0.2366
   25MOL   H188 7916   7.166   7.826   1.214 -2.4993 -2.7705  0.6805
   25MOL   H189 7917   7.317   7.764   0.957 -0.5710  0.1650  0.0710
   25MOL   H190 7918   7.320   0.094   1.050  1.6266 -1.0997  0.7399
   25MOL   H191 7919   7.167   0.027   0.994 -0.9147 -0.9705  0.6941
   25MOL   H192 7920   6.804   7.598   1.008  1.2221  0.9903 -0.2246
   25MOL   H193 7921   6.800   7.436   1.032  1.6628 -0.8806  0.2295
   25MOL   C194 7922   6.803   7.561   1.211 -0.1675  0.4704  0.4043
   25MOL   O195 7923   6.665   7.605   1.204 -0.5460 -1.2238  0.8337
   25MOL   C196 7924   6.646   7.741   1.163  0.6270  0.4477 -0.1006
   25MOL   C197 7925   6.494   7.744   1.139 -0.6371 -0.2145  0.7027
   25MOL   C198 7926   6.443   7.711   0.997 -0.6815 -0.5446 -0.2657
   25MOL   C199 7927   6.810   7.436   1.302  0.4870 -0.1417  0.1461
   25MOL   H200 7928   6.868   7.637   1.254 -0.6229  0.7556  0.5902
   25MOL   H201 7929   6.679   7.799   1.249  0.5475  1.0154 -0.4484
   25MOL   H202 7930   6.710   7.775   1.081  1.4247  0.1823  0.4086
   25MOL   H203 7931   6.462   0.020   1.152 -1.7146 -0.7022  2.0946
   25MOL   H204 7932   6.453   7.672   1.210  3.2027 -1.1840  2.0408
   25MOL   H205 7933   6.473   7.608   0.977  1.6275 -0.1172  0.8152
   25MOL   H206 7934   6.483   7.778   0.921  1.0088 -1.0604  0.1458
   25MOL   H207 7935   6.336   7.726   0.988 -1.0586 -2.7956 -0.0171
   25MOL   H208 7936   6.742   7.360   1.264 -0.2352  0.6360 -0.1278
   25MOL   H209 7937   6.911   7.395   1.307  0.1397 -0.8454  2.1384
   25MOL   C210 7938   6.772   7.451   1.448  0.4001 -0.3558 -0.4743
   25MOL   O211 7939   6.790   7.323   1.506 -0.1397 -0.2584  0.3313
   25MOL   C212 7940   6.686   7.232   1.502  0.4509  0.4287 -0.4877
   25MOL   C213 7941   6.744   7.094   1.553 -0.1864  0.6354  0.7362
   25MOL   C214 7942   6.829   7.028   1.444 -0.3149 -0.0547  0.1560
   25MOL   C215 7943   6.876   7.532   1.528  0.2048 -0.5744  0.0455
   25MOL   H216 7944   6.676   7.503   1.460 -0.1117 -0.8453 -2.2991
   25MOL   H217 7945   6.617   7.273   1.575 -1.1470  0.2041 -1.8575
   25MOL   H218 7946   6.638   7.231   1.404 -0.5867  0.2518  0.0214
   25MOL   H219 7947   6.657   7.029   1.556 -1.5127  2.1438 -2.3929
   25MOL   H220 7948   6.795   7.102   1.649  1.4048  3.2044 -0.2585
   25MOL   H221 7949   6.777   7.048   1.350  2.4530  0.3134 -1.3373
   25MOL   H222 7950   6.827   6.919   1.437  0.1583 -0.1634  1.6019
   25MOL   H223 7951   6.929   7.070   1.434 -0.2565 -0.0421  0.7912
   25MOL   H224 7952   6.963   7.467   1.527 -1.2629 -2.6588  1.5499
   25MOL   H225 7953   6.898   7.628   1.482  1.4324 -0.0740  1.6236
   25MOL   C226 7954   6.842   7.567   1.671 -0.4510 -0.3437  0.8505
   25MOL   O227 7955   6.948   7.641   1.747 -0.0571  0.2934  0.5756
   25MOL   C228 7956   7.032   7.561   1.816 -0.1642 -0.7726 -0.8413
   25MOL   C229 7957   6.973   7.522   1.952  0.4710  0.5345 -0.1902
   25MOL   C230 7958   6.904   7.639   2.022 -0.0404  0.3989  0.6280
   25MOL   C231 7959   6.719   7.651   1.686 -0.5018 -0.1399 -0.0142
   25MOL   H232 7960   6.830   7.473   1.723 -0.0974 -0.5712  0.5202
   25MOL   H233 7961   7.072   7.472   1.768  0.0701 -0.4842 -1.1786
   25MOL   H234 7962   7.116   7.628   1.831  0.2259 -1.3178 -0.5515
   25MOL   H235 7963   7.056   7.484   2.011 -1.3767 -1.0584  1.4288
   25MOL   H236 7964   6.909   7.435   1.946  0.1899  0.6670  0.8032
   25MOL   H237 7965   6.870   7.620   2.123  0.8792 -1.4988  0.6031
   25MOL   H238 7966   6.818   7.679   1.969 -0.3361 -1.8237 -0.6463
   25MOL   H239 7967   6.979   7.718   2.027  0.4468  0.3282 -3.6474
   25MOL   H240 7968   6.754   7.745   1.728 -0.5345 -0.2526  0.2629
   25MOL   H241 7969   6.686   7.686   1.588 -1.1471  2.4966  1.1105
   25MOL   C242 7970   6.596   7.583   1.745  0.5781  0.7665 -0.0492
   25MOL   O243 7971   6.629   7.531   1.876 -0.1001  0.1557 -0.3153
   25MOL   C244 7972   6.547   7.426   1.917  0.2850  0.9551  0.3569
   25MOL   C245 7973   6.643   7.311   1.959 -0.7406  0.1095 -0.0820
   25MOL   C246 7974   6.568   7.205   2.034 -0.0063  0.0626  0.6415
   25MOL   C247 7975   6.484   7.679   1.774  0.0495 -0.1027 -0.1177
   25MOL   H248 7976   6.567   7.498   1.683 -3.0247  0.6206  1.7082
   25MOL   H249 7977   6.492   7.437   2.011 -1.0733 -1.9935 -0.0206
   25MOL   H250 7978   6.485   7.380   1.839 -0.0445  1.4232  0.3410
   25MOL   H251 7979   6.723   7.347   2.024  0.1621 -1.6844 -0.1772
   25MOL   H252 7980   6.697   7.268   1.875  0.0181  1.0485 -0.0924
   25MOL   H253 7981   6.618   7.108   2.031  1.7394  0.8501  2.7260
   25MOL   H254 7982   6.469   7.185   1.993 -1.2073  1.2266  2.8798
   25MOL   H255 7983   6.549   7.228   2.139 -0.6304 -0.9898  0.7661
   25MOL   H256 7984   6.413   7.621   1.835  0.9363 -1.6580 -0.5325
   25MOL   H257 7985   6.520   7.768   1.825 -2.2806  0.6889  0.2394
   25MOL   C258 7986   6.423   7.737   1.651 -0.2077  0.2436  0.3615
   25MOL   O259 7987   6.304   7.665   1.631 -0.3029  0.0280  0.1217
   25MOL   C260 7988   6.290   7.587   1.513 -0.4392 -0.2872 -0.4334
   25MOL   C261 7989   6.296   7.446   1.554  0.2138  0.0768  0.0655
   25MOL   C262 7990   6.318   7.354   1.435  0.1862 -0.6085  0.3797
   25MOL   C263 7991   6.386   0.064   1.674  0.5940 -0.1401  0.4560
   25MOL   H264 7992   6.482   7.724   1.561 -0.7869 -0.2083  0.0452
   25MOL   H265 7993   6.195   7.600   1.463 -0.4209 -2.5118 -1.1035
   25MOL   H266 7994   6.362   7.611   1.435 -2.1748  2.9047 -1.1321
   25MOL   H267 7995   6.204   7.414   1.602 -1.2857  0.0640 -2.6772
   25MOL   H268 7996   6.376   7.429   1.626  0.6584 -0.8854 -0.6433
   25MOL   H269 7997   6.325   7.250   1.467 -1.2639 -0.3053  1.7149
   25MOL   H270 7998   6.413   7.375   1.385 -1.1249  0.1082 -1.8514
   25MOL   H271 7999   6.237   7.368   1.364 -0.6944 -0.0758  1.4681
   25MOL   H272 8000   6.316   0.097   1.597 -1.2944 -2.4060  1.1457
   25MOL   H273 8001   6.326   0.086   1.762 -0.2483 -0.6741  0.0258
   25MOL   C274 8002   6.508   0.155   1.665  0.7119 -0.4057 -0.0093
   25MOL   O275 8003   6.592   0.147   1.549  0.3649  0.3315 -0.1676
   25MOL   C276 8004   6.730   0.154   1.571  0.1739  0.0502 -0.0711
   25MOL   C277 8005   6.807   0.102   1.446  0.2041  0.0416  0.3158
   25MOL   C278 8006   6.960   0.122   1.456 -0.1017  0.0748  0.0848
   25MOL   C279 8007   6.477   0.307   1.670 -0.2724 -0.0505 -0.3629
   25MOL   H280 8008   6.570   0.134   1.752  1.2574  1.1637 -0.0112
   25MOL   H281 8009   6.749   0.260   1.591  1.6308 -0.1559 -0.3243
   25MOL   H282 8010   6.761   0.104   1.662  2.3910  1.0646 -0.2416
   25MOL   H283 8011   6.778   0.156   1.356 -0.2661  0.5577  0.7733
   25MOL   H284 8012   6.806   7.822   1.431  2.2687 -0.4342  3.1120
   25MOL   H285 8013   6.998   0.055   1.533 -0.2645  0.5692  0.5960
   25MOL   H286 8014   6.999   0.221   1.483 -1.7383  0.5050  0.9646
   25MOL   H287 8015   7.007   0.103   1.360  0.2784  0.3286  0.2147
   25MOL   H288 8016   6.564   0.366   1.640 -0.9289  1.9900  1.5662
   25MOL   H289 8017   6.400   0.340   1.600 -0.4107 -0.1624 -0.2616
   25MOL   C290 8018   6.442   0.355   1.809 -0.4063  0.5597 -0.2004
   25MOL   O291 8019   6.551   0.320   1.895 -0.7530 -0.4262 -0.4492
   25MOL   C292 8020   6.520   0.312   2.037 -0.2898 -0.3017  0.7929
   25MOL   C293 8021   6.647   0.281   2.125 -0.3083  0.0671 -0.2526
   25MOL   C294 8022   6.691   0.143   2.114 -1.3219 -0.5257 -0.4700
   25MOL   C295 8023   6.431   0.506   1.812  0.4719 -0.6694  0.2680
   25MOL   H296 8024   6.362   0.297   1.856  0.0871 -0.3907 -0.5276
   25MOL   H297 8025   6.478   0.405   2.076  1.6095  0.9333 -0.0366
   25MOL   H298 8026   6.451   0.232   2.065 -0.4054 -0.1247  1.0192
   25MOL   H299 8027   6.641   0.307   2.231  0.0841  0.0820 -0.2336
   25MOL   H300 8028   6.726   0.342   2.080 -2.4998  1.3347 -2.4912
   25MOL   H301 8029   6.640   0.077   2.185 -0.1336  1.8408  2.6524
   25MOL   H302 8030   6.796   0.136   2.141 -0.9069 -0.2291 -1.9837
   25MOL   H303 8031   6.690   0.112   2.009  2.2272 -0.3915 -0.5891
   25MOL   H304 8032   6.420   0.543   1.914  2.1352 -2.2353  1.0420
   25MOL   H305 8033   6.531   0.545   1.796  0.0061 -0.7720 -3.1478
   25MOL   C306 8034   6.339   0.588   1.710 -0.0182  0.2153  0.2801
   25MOL   O307 8035   6.200   0.572   1.736  0.0193 -0.1143  0.3694
   25MOL   C308 8036   6.127   0.641   1.839  0.2083 -0.2114 -0.1776
   25MOL   C309 8037   5.972   0.610   1.811 -0.5954  0.1757 -0.1141
   25MOL   C310 8038   5.939   0.461   1.844 -0.2736  0.0418  0.0700
   25MOL   C311 8039   6.365   0.733   1.680  0.1906 -0.1134  0.0611
   25MOL   H312 8040   6.349   0.548   1.610  2.0330  1.0417  0.1266
   25MOL   H313 8041   6.149   0.601   1.938  0.1197 -0.2346 -0.1675
   25MOL   H314 8042   6.148   0.747   1.847  1.1181 -0.2357 -1.8644
   25MOL   H315 8043   5.941   0.624   1.708 -1.0125  2.2133  0.2625
   25MOL   H316 8044   5.901   0.670   1.869 -0.6312  1.5122 -1.4965
   25MOL   H317 8045   6.012   0.394   1.800  0.8374  0.5960  1.0295
   25MOL   H318 8046   5.835   0.450   1.814  0.1027  0.7176 -1.5125
   25MOL   H319 8047   5.947   0.444   1.952  0.9349  0.3492  0.0358
   25MOL   H320 8048   6.351   0.798   1.767 -0.4976 -0.7593  0.4392
   25MOL   H321 8049   6.468   0.749   1.646 -0.5254 -0.8932 -2.5543
   25MOL   H322 8050   6.304   0.766   1.596 -0.1450 -1.3678 -0.1844
   26MOL     C1 8051   3.978   5.547   3.935 -0.2074  0.5344  0.1298
   26MOL     O2 8052   3.926   5.619   3.819  0.1391 -0.1660 -0.1201
   26MOL     C3 8053   3.992   5.741   3.780  1.1277  0.5503  0.0670
   26MOL     C4 8054   3.939   5.790   3.640 -0.2281  0.0007  0.6650
   26MOL     C5 8055   3.781   5.811   3.649  0.4975  0.4771 -0.6213
   26MOL     C6 8056   3.883   5.431   3.968 -0.7628  0.3918  0.0171
   26MOL     H7 8057   3.967   5.625   4.009  0.6773 -2.0253  3.0853
   26MOL     H8 8058   3.958   5.817   3.849 -0.9141  1.5312 -1.9727
   26MOL     H9 8059   4.101   5.744   3.787  1.4502 -3.5712 -1.3341
   26MOL    H10 8060   3.957   5.726   3.554  0.6147  1.7267 -0.4515
   26MOL    H11 8061   3.996   5.880   3.616 -0.7277 -0.4698 -2.5342
   26MOL    H12 8062   3.730   5.723   3.686  0.7748  0.5297 -0.1118
   26MOL    H13 8063   3.735   5.841   3.555 -0.5407 -0.3559 -0.3857
   26MOL    H14 8064   3.758   5.885   3.726 -0.1641  0.9062 -1.2239
   26MOL    H15 8065   3.778   5.460   3.965 -0.1406  2.6230 -2.2677
   26MOL    H16 8066   3.890   5.363   3.883 -3.8152  1.2085 -0.9471
   26MOL    H17 8067   4.079   5.505   3.928 -0.2264  0.9123 -3.4607
   26MOL    C18 8068   3.918   5.343   4.102  0.3703 -0.5423 -0.2819
   26MOL    O19 8069   3.926   5.436   4.203  0.7326  0.2464 -0.8811
   26MOL    C20 8070   4.057   5.423   4.278 -1.5101  0.0823  0.0453
   26MOL    C21 8071   4.043   5.487   4.420 -0.3452 -0.4469  0.6746
   26MOL    C22 8072   4.147   5.445   4.521  0.8588 -0.1630  0.8131
   26MOL    C23 8073   3.816   5.232   4.150 -0.4785 -0.1824 -0.4962
   26MOL    H24 8074   4.014   5.292   4.095  0.9738  0.3851  0.9529
   26MOL    H25 8075   4.068   5.315   4.285  0.8039  0.3670  1.1025
   26MOL    H26 8076   4.144   5.462   4.226 -1.4374  0.2023  0.2557
   26MOL    H27 8077   3.948   5.452   4.460 -1.5959  0.8798 -1.0769
   26MOL    H28 8078   4.041   5.595   4.427 -0.0709 -0.5015  1.7951
   26MOL    H29 8079   4.160   5.337   4.525 -0.3064 -0.4657 -1.9996
   26MOL    H30 8080   4.125   5.473   4.624 -1.7800 -0.5115  0.3718
   26MOL    H31 8081   4.246   5.488   4.502  1.2857 -2.2037 -2.0533
   26MOL    H32 8082   3.862   5.197   4.243  2.5228  4.2544 -0.1132
   26MOL    H33 8083   3.724   5.281   4.180  0.1505 -0.3884  1.9300
   26MOL    C34 8084   3.784   5.134   4.036  0.3432 -0.7573 -0.0834
   26MOL    O35 8085   3.899   5.064   3.995  0.0077  0.3207  0.3161
   26MOL    C36 8086   3.891   5.032   3.853  0.5612  0.0120  0.0803
   26MOL    C37 8087   4.016   4.943   3.821  0.3049  0.2688 -0.6497
   26MOL    C38 8088   3.993   4.880   3.684 -0.3300  0.3451 -0.3821
   26MOL    C39 8089   3.690   5.022   4.088  0.0350  0.1107 -0.7056
   26MOL    H40 8090   3.745   5.192   3.952  1.6596 -1.1005 -0.9648
   26MOL    H41 8091   3.799   4.979   3.829  1.8042 -2.1743 -0.0065
   26MOL    H42 8092   3.899   5.125   3.798  1.0201  0.9685  1.7459
   26MOL    H43 8093   4.028   4.863   3.894  3.3228  1.4316  0.2088
   26MOL    H44 8094   4.108   5.002   3.819 -0.3443  1.3698  0.7382
   26MOL    H45 8095   3.951   4.949   3.611 -1.9923 -0.8190 -0.5767
   26MOL    H46 8096   3.906   4.814   3.689 -0.7445  0.9016 -0.1926
   26MOL    H47 8097   4.086   4.832   3.656 -0.1820 -0.6880  1.8032
   26MOL    H48 8098   3.706   4.930   4.033  1.2286 -2.2109  3.3203
   26MOL    H49 8099   3.717   5.006   4.193 -2.1179  2.0022  0.1962
   26MOL    C50 8100   3.533   5.060   4.103 -0.8081 -0.6571 -0.6856
   26MOL    O51 8101   3.480   5.106   3.980 -0.4795  1.0694 -0.0666
   26MOL    C52 8102   3.474   5.251   3.959 -0.4613  0.3736 -0.3443
   26MOL    C53 8103   3.478   5.286   3.811  0.0550  0.8735 -0.1331
   26MOL    C54 8104   3.377   5.211   3.736 -0.4388 -0.3468 -0.0155
   26MOL    C55 8105   3.460   4.934   4.140 -0.2841  0.8694  0.3622
   26MOL    H56 8106   3.520   5.137   4.179 -0.2574  0.7300 -1.9596
   26MOL    H57 8107   3.381   5.288   4.002  0.5196  1.3040  1.0062
   26MOL    H58 8108   3.548   5.302   4.020  1.9701 -2.0996 -1.1378
   26MOL    H59 8109   3.574   5.266   3.764 -0.7890  2.8863 -2.8634
   26MOL    H60 8110   3.468   5.393   3.792  1.2960  1.0397  0.1016
   26MOL    H61 8111   3.273   5.243   3.747 -0.6682 -2.0463  3.5004
   26MOL    H62 8112   3.378   5.103   3.751  2.3233 -0.1628  1.2736
   26MOL    H63 8113   3.405   5.229   3.632  2.2282 -0.8792  0.5913
   26MOL    H64 8114   3.494   4.865   4.062 -1.0493  1.3622 -0.4089
   26MOL    H65 8115   3.496   4.909   4.240 -1.1044  2.0875  0.9577
   26MOL    C66 8116   3.307   4.943   4.138 -0.4623 -0.0942  0.4888
   26MOL    O67 8117   3.247   4.824   4.182 -0.0072 -0.2868  0.0516
   26MOL    C68 8118   3.187   4.750   4.082  0.3678 -0.4066 -0.5192
   26MOL    C69 8119   3.105   4.641   4.145 -0.0857 -0.5648 -0.9911
   26MOL    C70 8120   2.997   4.690   4.242 -0.4192  0.4104 -0.3806
   26MOL    C71 8121   3.245   5.060   4.221 -0.2191 -0.5311  0.5720
   26MOL    H72 8122   3.274   4.959   4.035 -3.0656 -0.4001  1.2474
   26MOL    H73 8123   3.125   4.810   4.016 -1.0461 -0.9110  0.3239
   26MOL    H74 8124   3.275   4.714   4.030 -0.6294 -1.9285 -1.1859
   26MOL    H75 8125   3.176   4.577   4.198  0.6844  2.4317  1.7282
   26MOL    H76 8126   3.065   4.582   4.062 -0.4879 -1.0306 -0.4745
   26MOL    H77 8127   2.927   4.610   4.266 -0.6539  0.3812 -1.1517
   26MOL    H78 8128   2.936   4.772   4.205  0.9321  1.4829 -0.2828
   26MOL    H79 8129   3.038   4.729   4.336  1.1221 -1.0283 -0.4374
   26MOL    H80 8130   3.270   5.043   4.326 -0.8111  0.4852  0.8759
   26MOL    H81 8131   3.302   5.149   4.196  0.2216 -0.9602  0.0260
   26MOL    C82 8132   3.093   5.085   4.202 -0.3140  0.4190 -0.3472
   26MOL    O83 8133   3.049   5.191   4.288  0.0795  0.6436 -0.6814
   26MOL    C84 8134   3.048   5.163   4.432 -0.6329 -0.9726 -0.0952
   26MOL    C85 8135   3.030   5.305   4.501  0.1611 -0.7388  0.3208
   26MOL    C86 8136   2.877   5.351   4.492 -0.3543  0.0857 -0.7003
   26MOL    C87 8137   3.067   5.133   4.049  0.2233  0.7356  0.1587
   26MOL    H88 8138   3.046   4.990   4.226  1.8830 -0.7521 -0.5333
   26MOL    H89 8139   2.970   5.092   4.460 -1.1798 -0.8399 -1.2381
   26MOL    H90 8140   3.146   5.132   4.468 -0.0222  0.7399 -0.2523
   26MOL    H91 8141   3.095   5.373   4.446 -2.5164  2.0181  0.3945
   26MOL    H92 8142   3.067   5.303   4.604 -1.0734  2.2041  0.8656
   26MOL    H93 8143   2.881   5.454   4.529  2.0601  0.3261 -1.5357
   26MOL    H94 8144   2.813   5.295   4.560 -0.4337  0.6425 -0.3177
   26MOL    H95 8145   2.830   5.354   4.394 -0.4990  0.0341 -0.6322
   26MOL    H96 8146   3.128   5.222   4.030 -1.0209  1.2082 -1.8822
   26MOL    H97 8147   3.111   5.062   3.979 -2.4528 -2.4728  1.6123
   26MOL    C98 8148   2.916   5.144   4.028  0.3491 -0.9965  0.1139
   26MOL    O99 8149   2.892   5.228   3.912  0.6551 -0.0774  0.0226
   26MOL   C100 8150   2.888   5.365   3.946  0.4023  0.4273  0.1735
   26MOL   C101 8151   2.914   5.446   3.813  0.3569 -0.4069 -0.1013
   26MOL   C102 8152   2.798   5.427   3.719  0.8588 -0.0611  0.4017
   26MOL   C103 8153   2.855   5.012   3.994  0.2070  0.1956 -0.5395
   26MOL   H104 8154   2.866   5.189   4.113 -1.2032  0.5915 -1.6017
   26MOL   H105 8155   2.790   5.381   3.989  0.3420  1.9780 -0.4892
   26MOL   H106 8156   2.964   5.387   4.021  0.5103  1.0389 -0.1111
   26MOL   H107 8157   3.011   5.435   3.767  0.5819  2.8379 -0.5470
   26MOL   H108 8158   2.924   5.551   3.842 -0.8617 -0.8290  1.9628
   26MOL   H109 8159   2.780   5.323   3.694 -0.8977 -0.2013  2.1283
   26MOL   H110 8160   2.840   5.482   3.634  1.9367  0.1555  1.0564
   26MOL   H111 8161   2.708   5.485   3.737  0.5536 -0.2771 -0.4361
   26MOL   H112 8162   2.867   4.986   3.889  0.1278  0.5017 -0.6245
   26MOL   H113 8163   2.918   4.941   4.048 -1.0718 -0.7942 -0.3124
   26MOL   C114 8164   2.711   4.973   4.047  1.1903  0.5415 -0.7303
   26MOL   O115 8165   2.622   5.042   3.963  0.6042 -0.6894 -0.0745
   26MOL   C116 8166   2.532   5.127   4.033 -0.3399  0.4587  0.2121
   26MOL   C117 8167   2.448   5.214   3.944  0.9184 -0.9690  0.2431
   26MOL   C118 8168   2.364   5.151   3.829 -0.3765  0.6385 -0.6003
   26MOL   C119 8169   2.688   4.820   4.029  0.2030  0.1520 -0.8724
   26MOL   H120 8170   2.715   5.016   4.147 -0.2759  0.0204 -0.4403
   26MOL   H121 8171   2.471   5.064   4.098 -0.2676  0.6015  0.4193
   26MOL   H122 8172   2.585   5.192   4.102  1.5708  0.6271 -1.3789
   26MOL   H123 8173   2.517   5.287   3.901 -0.8472  0.4568 -0.2492
   26MOL   H124 8174   2.381   5.272   4.008  2.2127 -1.4874  2.1252
   26MOL   H125 8175   2.428   5.090   3.765 -1.1556 -1.2753  0.4120
   26MOL   H126 8176   2.330   5.236   3.769  2.4744  3.1835  1.1779
   26MOL   H127 8177   2.281   5.088   3.858  0.2623 -0.2619 -0.7051
   26MOL   H128 8178   2.652   4.797   3.928  0.5174  1.9058 -1.3872
   26MOL   H129 8179   2.790   4.783   4.033 -0.1467 -0.7674 -0.0797
   26MOL   C130 8180   2.600   4.754   4.135 -0.1995 -0.1429 -0.4070
   26MOL   O131 8181   2.458   4.779   4.121 -0.1317 -0.2875  0.0558
   26MOL   C132 8182   2.403   4.783   3.993 -0.2128  0.0611 -0.0619
   26MOL   C133 8183   2.262   4.836   4.017  0.3335  0.7645  0.4501
   26MOL   C134 8184   2.171   4.725   4.082  0.3279 -0.3479 -0.1614
   26MOL   C135 8185   2.614   4.597   4.145  0.0928  0.2306 -0.4292
   26MOL   H136 8186   2.649   4.788   4.227  0.9508 -2.5133 -0.1008
   26MOL   H137 8187   2.455   4.861   3.936 -0.9208  1.2023  0.8272
   26MOL   H138 8188   2.407   4.692   3.933  0.1558 -0.5184  0.8349
   26MOL   H139 8189   2.212   4.884   3.933  0.9662  1.0020  0.2063
   26MOL   H140 8190   2.278   4.915   4.091  2.1344 -0.7252  1.7227
   26MOL   H141 8191   2.208   4.691   4.179  1.1792  0.0829 -0.3327
   26MOL   H142 8192   2.148   4.638   4.021 -0.5368 -0.8433  0.8477
   26MOL   H143 8193   2.072   4.771   4.084  0.0591 -0.9450  0.5527
   26MOL   H144 8194   2.590   4.560   4.045  1.4066  1.8323 -1.3582
   26MOL   H145 8195   2.716   4.579   4.179 -0.7911 -2.1733  1.1313
   26MOL   C146 8196   2.521   4.533   4.245  0.6715  0.1037 -0.2227
   26MOL   O147 8197   2.540   4.389   4.252  0.4842  0.3332 -0.0337
   26MOL   C148 8198   2.477   4.322   4.150 -0.9544 -0.3770  0.2770
   26MOL   C149 8199   2.527   4.173   4.161 -0.0377 -0.3359 -0.0739
   26MOL   C150 8200   2.471   4.096   4.038  0.1455  0.0733 -0.2569
   26MOL   C151 8201   2.540   4.587   4.387 -0.2971 -0.2615 -0.0080
   26MOL   H152 8202   2.414   4.551   4.229  0.6157 -0.0292  0.0008
   26MOL   H153 8203   2.369   4.324   4.163 -1.1033  1.5610 -1.0792
   26MOL   H154 8204   2.495   4.361   4.050 -2.5496 -2.4965 -0.8830
   26MOL   H155 8205   2.510   4.121   4.255 -1.5734  0.4765  0.1273
   26MOL   H156 8206   2.635   4.181   4.147 -0.0364  3.8341  1.4223
   26MOL   H157 8207   2.480   3.987   4.037 -0.7785 -0.0157  0.5398
   26MOL   H158 8208   2.522   4.132   3.948 -0.9652 -0.4565 -1.1119
   26MOL   H159 8209   2.363   4.113   4.035  0.5720  3.2465  0.8064
   26MOL   H160 8210   2.635   4.556   4.429 -0.1993  1.3159  0.9989
   26MOL   H161 8211   2.553   4.695   4.385 -0.8390 -0.2005 -0.4415
   26MOL   C162 8212   2.418   4.545   4.477  0.0583 -0.2278  0.1936
   26MOL   O163 8213   2.471   4.543   4.610 -0.6562  0.0826  0.1735
   26MOL   C164 8214   2.511   4.409   4.641  0.3067  0.3279  0.4943
   26MOL   C165 8215   2.599   4.423   4.766  0.5446  0.5165  0.8888
   26MOL   C166 8216   2.524   4.440   4.906  0.8593  0.4256 -0.2546
   26MOL   C167 8217   2.312   4.665   4.466 -0.5484  0.2340 -0.2000
   26MOL   H168 8218   2.365   4.454   4.450 -1.9370  0.2174  2.3908
   26MOL   H169 8219   2.420   4.352   4.661 -0.2986  1.2533  0.4016
   26MOL   H170 8220   2.575   4.367   4.563 -1.3576 -1.6139  0.1346
   26MOL   H171 8221   2.658   4.513   4.750  1.0757 -0.1163 -0.8687
   26MOL   H172 8222   2.668   4.340   4.775 -1.1084 -0.7375  2.4126
   26MOL   H173 8223   2.449   4.363   4.922 -0.4271  1.7290  0.1634
   26MOL   H174 8224   2.473   4.536   4.911  1.2377  0.6095  0.0504
   26MOL   H175 8225   2.589   4.433   4.993  1.4120  0.4320 -0.6676
   26MOL   H176 8226   2.347   4.746   4.531  1.2533  1.1301 -2.2434
   26MOL   H177 8227   2.322   4.709   4.367 -0.1681  1.1017  0.2163
   26MOL   C178 8228   2.163   4.629   4.491 -0.7520  0.0097 -1.0781
   26MOL   O179 8229   2.127   4.605   4.627  0.2021  0.1995  0.5290
   26MOL   C180 8230   2.128   4.468   4.672 -0.2597 -0.6016  0.7978
   26MOL   C181 8231   2.148   4.468   4.824  0.2275 -0.5734 -0.2558
   26MOL   C182 8232   2.125   4.337   4.897 -0.8919 -0.3909 -0.3685
   26MOL   C183 8233   2.069   4.746   4.443 -0.9012 -0.1950 -0.0254
   26MOL   H184 8234   2.135   4.548   4.424  0.2905 -0.2067 -1.2683
   26MOL   H185 8235   2.027   4.435   4.649 -0.1341  0.1788 -0.8888
   26MOL   H186 8236   2.205   4.402   4.634  0.1953 -0.8973  2.1786
   26MOL   H187 8237   2.088   4.547   4.869  2.2228  0.6630  0.3190
   26MOL   H188 8238   2.244   4.513   4.852 -0.9676  1.7027  0.2725
   26MOL   H189 8239   2.147   4.343   5.003  1.2168 -0.2366 -0.7895
   26MOL   H190 8240   2.178   4.259   4.842  1.3208 -0.0800  1.2283
   26MOL   H191 8241   2.025   4.296   4.886 -0.5893 -0.8251 -1.6939
   26MOL   H192 8242   2.075   4.760   4.335 -1.7825 -0.3138 -0.0966
   26MOL   H193 8243   1.966   4.717   4.461 -0.9067 -0.2253 -0.1037
   26MOL   C194 8244   2.100   4.883   4.500  0.2084 -0.7834 -0.4091
   26MOL   O195 8245   2.185   4.951   4.409  0.4089 -0.0898 -0.4630
   26MOL   C196 8246   2.260   5.045   4.478 -0.7441 -0.1548  0.2503
   26MOL   C197 8247   2.366   5.105   4.384  0.3981  0.5494  0.1000
   26MOL   C198 8248   2.429   5.223   4.448 -1.4866 -0.1476  0.4806
   26MOL   C199 8249   1.967   4.957   4.531 -0.1788  0.1194 -0.5394
   26MOL   H200 8250   2.141   4.867   4.600 -0.0413 -1.8329 -0.4711
   26MOL   H201 8251   2.193   5.127   4.505 -1.3689 -1.3994  2.6550
   26MOL   H202 8252   2.313   5.013   4.568  1.3768 -1.0361 -1.2655
   26MOL   H203 8253   2.306   5.142   4.301  0.5431  0.9916  0.1931
   26MOL   H204 8254   2.428   5.027   4.341  1.2223  0.7095  0.9824
   26MOL   H205 8255   2.467   5.205   4.549 -2.1398  0.2176  0.7961
   26MOL   H206 8256   2.357   5.305   4.452  0.6075  1.6833  2.3553
   26MOL   H207 8257   2.511   5.264   4.389 -2.4248 -1.0386 -1.4672
   26MOL   H208 8258   1.900   4.890   4.584 -0.5456  0.7642 -0.1912
   26MOL   H209 8259   1.981   5.034   4.607 -1.1123 -0.9260  0.6946
   26MOL   C210 8260   1.886   5.007   4.413  0.7891  0.3373  0.2007
   26MOL   O211 8261   1.751   4.971   4.426 -0.5518 -0.4580  0.5267
   26MOL   C212 8262   1.703   4.843   4.399  0.0828  0.0750 -0.0130
   26MOL   C213 8263   1.549   4.852   4.397 -0.0061 -0.7803 -0.2477
   26MOL   C214 8264   1.463   4.737   4.354  0.2186  0.1229  0.0980
   26MOL   C215 8265   1.904   5.161   4.399  0.5900  0.1896  0.6213
   26MOL   H216 8266   1.934   4.952   4.332 -2.8356 -3.6001  0.5792
   26MOL   H217 8267   1.740   4.803   4.305  2.8847  0.2611  0.9783
   26MOL   H218 8268   1.746   4.778   4.475  1.9741  0.6103 -0.6124
   26MOL   H219 8269   1.539   4.937   4.329 -0.2673  0.0182  0.7894
   26MOL   H220 8270   1.505   4.880   4.492  0.0538 -1.8627  0.1025
   26MOL   H221 8271   1.357   4.764   4.348  0.4959  1.1854 -0.1117
   26MOL   H222 8272   1.469   4.651   4.420  1.3599  1.0744  1.2625
   26MOL   H223 8273   1.475   4.703   4.251  1.5941  0.1106  0.2588
   26MOL   H224 8274   1.901   5.212   4.495  2.5600  1.9419 -0.2104
   26MOL   H225 8275   2.005   5.179   4.362  0.2937 -1.4947 -1.0420
   26MOL   C226 8276   1.805   5.243   4.312  0.6924 -0.4428 -0.1655
   26MOL   O227 8277   1.819   5.379   4.350  0.5883  0.1396  0.1059
   26MOL   C228 8278   1.710   5.426   4.434  0.9179 -0.1634  0.0459
   26MOL   C229 8279   1.577   5.457   4.364  0.9787  0.8851  0.5651
   26MOL   C230 8280   1.601   5.542   4.241 -0.0256 -0.0466 -0.7493
   26MOL   C231 8281   1.838   5.230   4.159  0.3817  0.1716 -0.4926
   26MOL   H232 8282   1.701   5.213   4.325  0.7273 -0.5932 -0.2400
   26MOL   H233 8283   1.677   5.354   4.508 -0.9384  0.1932 -0.4011
   26MOL   H234 8284   1.740   5.505   4.503  0.1713 -0.4136  0.6656
   26MOL   H235 8285   1.510   5.504   4.435 -1.7274 -0.6451 -0.9042
   26MOL   H236 8286   1.523   5.366   4.342  1.2440  0.6373  0.9257
   26MOL   H237 8287   1.619   5.480   4.153 -1.8438 -1.4813 -0.1523
   26MOL   H238 8288   1.694   5.597   4.251 -0.4971  0.3299  1.9484
   26MOL   H239 8289   1.521   5.613   4.222 -1.1930 -0.7448  1.4178
   26MOL   H240 8290   1.818   5.314   4.092  1.6181  2.2672  1.7082
   26MOL   H241 8291   1.947   5.225   4.159  0.3005 -2.8987 -0.6250
   26MOL   C242 8292   1.781   5.107   4.097 -0.4357  0.1090  0.1566
   26MOL   O243 8293   1.683   5.138   3.997 -0.0340  0.5055  0.1329
   26MOL   C244 8294   1.561   5.182   4.051 -0.7323 -0.7441  0.0548
   26MOL   C245 8295   1.452   5.202   3.945 -0.7945  0.1600  0.2838
   26MOL   C246 8296   1.458   5.085   3.844  0.4125 -0.0613  0.6660
   26MOL   C247 8297   1.889   5.032   4.013  0.2121  0.7762  0.5353
   26MOL   H248 8298   1.738   5.047   4.177 -1.3888 -2.7522 -2.3800
   26MOL   H249 8299   1.522   5.106   4.119 -0.6182 -0.3613  0.5541
   26MOL   H250 8300   1.586   5.277   4.098 -0.3503  0.0359 -1.6664
   26MOL   H251 8301   1.467   5.292   3.886  0.6441 -2.5123 -3.6440
   26MOL   H252 8302   1.351   5.195   3.986 -0.6905  2.3413  0.9783
   26MOL   H253 8303   1.500   4.994   3.886  0.1000 -1.8707 -2.7965
   26MOL   H254 8304   1.512   5.122   3.756 -0.3890  0.1705  0.2717
   26MOL   H255 8305   1.365   5.067   3.792 -0.3313  1.6174  1.3632
   26MOL   H256 8306   1.930   5.108   3.947 -3.0927  0.0815 -2.4817
   26MOL   H257 8307   1.960   4.998   4.088  0.4242  0.7045  0.3011
   26MOL   C258 8308   1.849   4.905   3.933  0.1187  0.9861 -0.6103
   26MOL   O259 8309   1.959   4.846   3.860  0.1612  0.0630  0.3390
   26MOL   C260 8310   2.006   4.917   3.747 -0.6329  0.1971  0.0642
   26MOL   C261 8311   2.103   4.831   3.667 -0.1618 -0.4057  0.3311
   26MOL   C262 8312   2.152   4.907   3.547 -0.7712  0.6212  0.5425
   26MOL   C263 8313   1.774   4.801   4.024  0.0923  0.0727 -0.0993
   26MOL   H264 8314   1.771   4.931   3.861 -1.2417  1.0052  0.8313
   26MOL   H265 8315   1.929   4.947   3.677 -0.6600 -0.8472 -0.3547
   26MOL   H266 8316   2.057   5.006   3.784 -1.1985 -0.2885  2.1006
   26MOL   H267 8317   2.054   4.746   3.621  2.6768 -1.3372 -1.0971
   26MOL   H268 8318   2.188   4.800   3.728 -1.1257  0.6753  2.2682
   26MOL   H269 8319   2.238   4.974   3.557  0.0713 -0.3122 -0.3794
   26MOL   H270 8320   2.072   4.953   3.490 -0.8808 -0.4712 -0.1971
   26MOL   H271 8321   2.191   4.832   3.478  0.8303  1.3137  0.6612
   26MOL   H272 8322   1.846   4.750   4.088  0.6178  1.1453  0.1754
   26MOL   H273 8323   1.705   4.862   4.082  1.8422  1.6476  0.4154
   26MOL   C274 8324   1.701   4.688   3.960 -0.2258  0.5015  0.5334
   26MOL   O275 8325   1.680   4.593   4.061  0.3343  0.0619  0.6580
   26MOL   C276 8326   1.786   4.497   4.079  0.2193  0.2945  0.4159
   26MOL   C277 8327   1.823   4.490   4.232  0.6345 -0.1162  0.0642
   26MOL   C278 8328   1.719   4.405   4.304 -0.3162 -0.1137 -0.5760
   26MOL   C279 8329   1.555   4.728   3.918  0.0969 -0.5541 -0.4430
   26MOL   H280 8330   1.759   4.646   3.878  1.4285 -1.5469  2.6976
   26MOL   H281 8331   1.762   4.400   4.034  0.5637  1.0047 -1.3349
   26MOL   H282 8332   1.874   4.533   4.026 -0.4328  0.0375 -0.8812
   26MOL   H283 8333   1.826   4.594   4.266  2.0450 -0.2135  0.2312
   26MOL   H284 8334   1.925   4.454   4.242  1.0641  0.5981 -1.5864
   26MOL   H285 8335   1.613   4.423   4.286  0.2207  1.9088 -1.8719
   26MOL   H286 8336   1.735   4.432   4.408  0.8165 -0.3115 -0.6924
   26MOL   H287 8337   1.749   4.302   4.282  0.0273 -0.1975  0.2817
   26MOL   H288 8338   1.502   4.792   3.988  1.7005  0.4978 -0.1685
   26MOL   H289 8339   1.565   4.800   3.836 -3.2532 -2.9754 -3.1023
   26MOL   C290 8340   1.465   4.608   3.877 -0.8983 -1.0143 -0.1152
   26MOL   O291 8341   1.332   4.640   3.846  0.1439  0.0316  0.6067
   26MOL   C292 8342   1.246   4.631   3.953 -0.1333 -0.0296 -0.7776
   26MOL   C293 8343   1.110   4.685   3.904 -0.7812 -0.2589  0.7454
   26MOL   C294 8344   1.054   4.605   3.791  0.0279 -0.1855  0.0950
   26MOL   C295 8345   1.515   4.520   3.762 -0.1122  0.2694  0.1618
   26MOL   H296 8346   1.455   4.535   3.957  0.5632  0.9931  1.9652
   26MOL   H297 8347   1.249   4.524   3.977 -1.2242  0.1524  0.1875
   26MOL   H298 8348   1.266   4.682   4.047  3.6078 -2.1293 -0.2945
   26MOL   H299 8349   1.127   4.789   3.876  0.0717 -0.6774 -0.3329
   26MOL   H300 8350   1.031   4.694   3.979 -1.2007 -3.2019  0.7068
   26MOL   H301 8351   1.118   4.586   3.705 -2.6379 -2.6720 -1.4263
   26MOL   H302 8352   0.976   4.671   3.754  0.0843  0.2843  0.7963
   26MOL   H303 8353   1.012   4.507   3.814  2.4360 -1.3892 -0.5285
   26MOL   H304 8354   1.618   4.497   3.792 -0.8125 -0.9153  1.7568
   26MOL   H305 8355   1.452   4.432   3.751 -1.0507  1.0446 -0.7495
   26MOL   C306 8356   1.517   4.591   3.623  0.6720 -0.1218 -0.5931
   26MOL   O307 8357   1.602   4.701   3.620  0.1499 -0.1557  0.4700
   26MOL   C308 8358   1.560   4.823   3.562 -0.5015 -0.0940 -0.6242
   26MOL   C309 8359   1.681   4.896   3.511 -0.6381  0.4059 -0.1325
   26MOL   C310 8360   1.795   4.812   3.465 -0.1893 -0.5758  0.3872
   26MOL   C311 8361   1.560   4.495   3.510  0.3115 -0.1875 -0.4492
   26MOL   H312 8362   1.411   4.619   3.617  1.0095  0.9795 -1.5518
   26MOL   H313 8363   1.487   4.816   3.481  0.1788 -1.0481 -1.1692
   26MOL   H314 8364   1.507   4.882   3.637 -0.4125 -0.6352 -0.1320
   26MOL   H315 8365   1.706   4.962   3.595 -1.7400  2.8456 -1.6897
   26MOL   H316 8366   1.642   4.959   3.432 -2.0794 -1.2199 -0.7483
   26MOL   H317 8367   1.839   4.752   3.545  1.3529 -1.3075 -0.9896
   26MOL   H318 8368   1.865   4.873   3.407 -1.7546 -0.1540 -1.0890
   26MOL   H319 8369   1.749   4.740   3.398  1.1460 -0.7568 -0.3471
   26MOL   H320 8370   1.663   4.458   3.513  0.2326 -0.3099  1.0872
   26MOL   H321 8371   1.491   4.412   3.499  0.5369  0.0996 -4.5856
   26MOL   H322 8372   1.551   4.548   3.416  0.9609  0.8749  0.0673
   27MOL     C1 8373   2.595   6.586   2.851 -0.6332 -0.0404 -0.3783
   27MOL     O2 8374   2.585   6.447   2.865  0.3029 -0.4598  0.5709
   27MOL     C3 8375   2.471   6.395   2.921  0.3453  0.2516 -0.4630
   27MOL     C4 8376   2.480   6.240   2.936  1.0354  0.0102  0.5510
   27MOL     C5 8377   2.348   6.164   2.983  0.0776 -0.8650 -1.6816
   27MOL     C6 8378   2.714   6.614   2.760  0.2450 -0.1963  0.4276
   27MOL     H7 8379   2.620   6.618   2.953  0.0224 -2.5106  0.2663
   27MOL     H8 8380   2.471   6.438   3.022  1.3549 -0.8146 -0.0064
   27MOL     H9 8381   2.378   6.422   2.871  0.7272 -1.2052 -1.9729
   27MOL    H10 8382   2.551   6.214   3.015  1.4736 -1.4150 -0.2920
   27MOL    H11 8383   2.509   6.198   2.840 -0.5790  1.5156 -0.6180
   27MOL    H12 8384   2.346   6.178   3.091  0.0790 -1.0445 -1.6585
   27MOL    H13 8385   2.327   6.060   2.959 -0.2245 -0.9271 -1.1534
   27MOL    H14 8386   2.265   6.226   2.947  0.8062  0.6758 -0.7598
   27MOL    H15 8387   2.786   6.535   2.779  0.4353 -0.0332  0.3943
   27MOL    H16 8388   2.685   6.591   2.658  0.6364 -0.1048  0.2927
   27MOL    H17 8389   2.501   6.623   2.811 -0.9406  1.1269  1.3764
   27MOL    C18 8390   2.770   6.759   2.752 -0.2489 -0.2617  0.4076
   27MOL    O19 8391   2.667   6.855   2.715 -0.6601  0.1828  0.0384
   27MOL    C20 8392   2.607   6.845   2.585  0.6549 -0.1918  0.0425
   27MOL    C21 8393   2.532   6.973   2.558 -0.7570 -0.6644 -0.2838
   27MOL    C22 8394   2.415   6.980   2.650 -0.4972  0.2026  0.5446
   27MOL    C23 8395   2.859   6.814   2.864  0.5291  0.3597  0.7626
   27MOL    H24 8396   2.844   6.751   2.673 -1.5529  0.7728 -0.9321
   27MOL    H25 8397   2.682   6.847   2.506  0.7356 -0.5617  0.1095
   27MOL    H26 8398   2.542   6.759   2.570  1.4344 -0.5437 -1.4349
   27MOL    H27 8399   2.509   6.985   2.452  0.7180 -0.5566 -0.5944
   27MOL    H28 8400   2.598   7.056   2.582 -1.1203 -0.7094  0.9366
   27MOL    H29 8401   2.345   7.059   2.625 -0.0422  0.1963 -0.7909
   27MOL    H30 8402   2.456   6.988   2.751  1.2794  3.0638 -0.3551
   27MOL    H31 8403   2.353   6.891   2.638 -0.9906  0.4586  1.1822
   27MOL    H32 8404   2.918   6.901   2.833  2.0363 -0.6565  0.7311
   27MOL    H33 8405   2.783   6.845   2.936 -2.3038  0.9540 -2.3427
   27MOL    C34 8406   2.954   6.708   2.930  0.0705  0.5799 -0.6317
   27MOL    O35 8407   3.029   6.653   2.828 -1.4529  0.1217  0.5236
   27MOL    C36 8408   3.089   6.528   2.852  1.0068  0.1380 -0.7089
   27MOL    C37 8409   3.141   6.468   2.723  0.4295  0.1231  0.1538
   27MOL    C38 8410   3.213   6.336   2.737 -0.2432  0.6039 -0.4311
   27MOL    C39 8411   3.038   6.770   3.046  0.1505  1.2964  1.0941
   27MOL    H40 8412   2.887   6.634   2.973  3.0726 -1.3789  0.8918
   27MOL    H41 8413   3.170   6.543   2.923 -0.2164  2.2475  0.3202
   27MOL    H42 8414   3.023   6.470   2.917  0.0197  1.1354 -0.7976
   27MOL    H43 8415   3.197   6.534   2.656 -0.3095  0.5512 -0.0464
   27MOL    H44 8416   3.050   6.439   2.670  1.1642 -0.6408 -0.7040
   27MOL    H45 8417   3.255   6.303   2.642  2.0904  1.5840  0.2229
   27MOL    H46 8418   3.164   6.270   2.808 -0.1937  0.0404 -0.9146
   27MOL    H47 8419   3.301   6.372   2.791 -1.2032  1.8139  0.3387
   27MOL    H48 8420   3.109   6.695   3.080 -0.6690 -0.2525 -0.4963
   27MOL    H49 8421   3.110   6.847   3.020  0.4785  0.2270 -1.3417
   27MOL    C50 8422   2.956   6.821   3.162 -0.4399 -0.2539 -0.3827
   27MOL    O51 8423   2.893   6.710   3.225 -0.1551  0.5889  0.8033
   27MOL    C52 8424   2.753   6.706   3.207  0.5156  0.6815 -0.3907
   27MOL    C53 8425   2.702   6.567   3.256 -0.6177  0.0124 -0.2212
   27MOL    C54 8426   2.554   6.570   3.284  0.2799  0.1071 -0.0335
   27MOL    C55 8427   3.045   6.880   3.274  0.5967 -1.3279  1.1997
   27MOL    H56 8428   2.893   6.900   3.121 -0.3941 -1.8046 -3.5259
   27MOL    H57 8429   2.710   6.791   3.259 -1.3863  0.7092 -1.9163
   27MOL    H58 8430   2.720   6.730   3.106 -1.6694  2.5823  0.7331
   27MOL    H59 8431   2.758   6.550   3.348  1.8169 -1.6158 -1.9357
   27MOL    H60 8432   2.738   6.487   3.191  0.2027  0.8273 -0.7815
   27MOL    H61 8433   2.512   6.473   3.309  0.6793  0.0079  0.2578
   27MOL    H62 8434   2.497   6.617   3.204  1.7846 -1.6210 -2.1799
   27MOL    H63 8435   2.539   6.634   3.371 -0.7691 -2.0955  1.4532
   27MOL    H64 8436   3.094   6.800   3.328  1.6678 -0.7294  1.1161
   27MOL    H65 8437   3.130   6.917   3.217  0.1962 -1.4131  0.5334
   27MOL    C66 8438   2.992   6.991   3.369 -0.3095 -0.2320  0.3351
   27MOL    O67 8439   2.948   7.096   3.286  0.1577 -0.5020  0.0141
   27MOL    C68 8440   2.984   7.225   3.336  0.0745  0.3224 -0.1006
   27MOL    C69 8441   2.885   7.334   3.291 -0.8525  0.8146  0.6569
   27MOL    C70 8442   2.747   7.307   3.355  0.0847 -0.8183  0.1474
   27MOL    C71 8443   2.866   6.941   3.451 -0.2886 -0.8099  0.0023
   27MOL    H72 8444   3.073   7.016   3.438 -0.8910  0.0574  0.9261
   27MOL    H73 8445   2.993   7.227   3.445  2.2290 -2.1482 -0.1832
   27MOL    H74 8446   3.074   7.259   3.284 -0.6327 -0.7484 -2.0805
   27MOL    H75 8447   2.892   7.325   3.182  2.2126  1.0116  0.7775
   27MOL    H76 8448   2.924   7.433   3.313 -2.4844  1.9745 -1.5481
   27MOL    H77 8449   2.677   7.375   3.306  0.4552 -1.0012 -0.6317
   27MOL    H78 8450   2.757   7.327   3.462  0.0347 -1.5787  0.2981
   27MOL    H79 8451   2.715   7.203   3.344  1.2472 -0.9842 -1.8051
   27MOL    H80 8452   2.825   7.021   3.512  1.6142 -0.2466  0.5654
   27MOL    H81 8453   2.777   6.916   3.394 -1.8089  1.6183  1.2482
   27MOL    C82 8454   2.897   6.814   3.546 -1.0850  0.3224 -0.1283
   27MOL    O83 8455   2.978   6.854   3.656  0.5970  0.5114  0.0493
   27MOL    C84 8456   3.060   6.760   3.726 -0.1570  0.4435 -0.3995
   27MOL    C85 8457   3.118   6.825   3.851  0.5464  0.5347  0.4567
   27MOL    C86 8458   3.240   6.912   3.836  0.2379 -0.6814 -0.2680
   27MOL    C87 8459   2.776   6.745   3.591 -0.1316 -0.2568  0.4834
   27MOL    H88 8460   2.957   6.734   3.502 -0.0967  1.0066 -0.0405
   27MOL    H89 8461   2.993   6.679   3.754  0.1037  0.2519 -0.3325
   27MOL    H90 8462   3.147   6.728   3.669 -0.5980 -0.0538 -0.7966
   27MOL    H91 8463   3.139   6.751   3.928  1.9424  0.3153 -0.1199
   27MOL    H92 8464   3.042   6.898   3.880  1.8412  2.1278 -0.0836
   27MOL    H93 8465   3.328   6.851   3.815 -0.2000 -0.5810 -2.5518
   27MOL    H94 8466   3.256   6.954   3.935  2.2832 -2.9114  0.3900
   27MOL    H95 8467   3.245   6.997   3.769  0.9114  0.6805  1.4759
   27MOL    H96 8468   2.712   6.722   3.505  1.3725 -2.7214 -0.0164
   27MOL    H97 8469   2.822   6.652   3.625  3.3621  0.5902 -1.6663
   27MOL    C98 8470   2.686   6.814   3.703 -0.1009 -0.4917  0.2083
   27MOL    O99 8471   2.624   6.931   3.651  0.5917 -0.1636  0.3356
   27MOL   C100 8472   2.628   7.049   3.734 -0.3883 -0.3869 -0.0152
   27MOL   C101 8473   2.563   7.162   3.666  0.0747 -1.3777 -0.2113
   27MOL   C102 8474   2.598   7.300   3.724  0.1875  0.3283  0.2456
   27MOL   C103 8475   2.584   6.720   3.760  1.0349  0.9264  0.2662
   27MOL   H104 8476   2.757   6.847   3.780  0.1310  1.0442 -0.6288
   27MOL   H105 8477   2.574   7.040   3.828 -0.5615 -3.1105 -0.3364
   27MOL   H106 8478   2.731   7.073   3.761  0.2610 -1.5747 -1.3760
   27MOL   H107 8479   2.455   7.151   3.681 -0.2604  0.8258 -0.7817
   27MOL   H108 8480   2.598   7.163   3.563  0.2181 -1.4592 -0.1621
   27MOL   H109 8481   2.576   7.389   3.664  0.5732 -1.1743 -2.2261
   27MOL   H110 8482   2.707   7.304   3.731  0.1901 -0.9867  1.1403
   27MOL   H111 8483   2.556   7.315   3.823  0.4377  0.9888  0.2530
   27MOL   H112 8484   2.508   6.767   3.823 -0.1199 -1.6419  0.8517
   27MOL   H113 8485   2.518   6.677   3.685  0.5063  0.9073  0.7359
   27MOL   C114 8486   2.657   6.604   3.848 -0.4973  0.0512  0.0259
   27MOL   O115 8487   2.689   6.663   3.972  0.0035  0.5329 -0.5846
   27MOL   C116 8488   2.817   6.637   4.023  0.1527  0.4253  0.7377
   27MOL   C117 8489   2.820   6.667   4.175 -0.1429  0.7347  0.5998
   27MOL   C118 8490   2.716   6.578   4.246  0.0299  0.3863 -0.1450
   27MOL   C119 8491   2.567   6.481   3.875 -0.4703 -0.3310  0.1117
   27MOL   H120 8492   2.743   6.561   3.796 -1.2032 -1.6121  0.2022
   27MOL   H121 8493   2.844   6.532   4.013 -3.1891 -0.4004 -0.1134
   27MOL   H122 8494   2.896   6.694   3.973  1.7639 -3.9739 -2.0052
   27MOL   H123 8495   2.803   6.774   4.192  0.8211  1.3224 -1.9584
   27MOL   H124 8496   2.921   6.651   4.215 -0.1643 -0.5619  0.1506
   27MOL   H125 8497   2.722   6.472   4.222  0.8618  0.2198  0.7447
   27MOL   H126 8498   2.614   6.616   4.240 -0.7173 -1.8818 -3.0231
   27MOL   H127 8499   2.742   6.591   4.351 -0.7138 -0.7315  0.1813
   27MOL   H128 8500   2.603   6.411   3.951 -3.0361 -3.9912 -1.8844
   27MOL   H129 8501   2.474   6.516   3.919 -1.0563 -1.0614 -0.5314
   27MOL   C130 8502   2.525   6.398   3.749 -0.3416  0.4280 -0.2925
   27MOL   O131 8503   2.643   6.338   3.705 -0.0285 -0.0368 -0.1370
   27MOL   C132 8504   2.657   6.322   3.561 -0.7848  0.3125 -0.1396
   27MOL   C133 8505   2.803   6.300   3.532 -0.8350  0.1561 -0.0558
   27MOL   C134 8506   2.836   6.155   3.488 -0.4040  0.3303  0.2241
   27MOL   C135 8507   2.417   6.295   3.793  0.3723  0.1848 -1.0979
   27MOL   H136 8508   2.493   6.469   3.673  0.9128  3.1706  1.6320
   27MOL   H137 8509   2.594   6.239   3.528 -0.4116 -0.3055  0.7210
   27MOL   H138 8510   2.630   6.413   3.506  0.1592 -0.0186 -1.1637
   27MOL   H139 8511   2.859   6.326   3.621 -1.5590  0.4443  0.3135
   27MOL   H140 8512   2.840   6.362   3.449  1.2012  0.5263  1.0860
   27MOL   H141 8513   2.790   6.143   3.389 -1.6453  1.2939  0.6766
   27MOL   H142 8514   2.779   6.084   3.547 -0.6784  1.7164  1.6403
   27MOL   H143 8515   2.942   6.129   3.496 -0.8884 -2.5834 -1.8001
   27MOL   H144 8516   2.410   6.222   3.712  0.5012 -1.1201  0.0514
   27MOL   H145 8517   2.456   6.237   3.877 -0.2168  0.8954 -0.3241
   27MOL   C146 8518   2.273   6.347   3.821 -0.4404  0.4180  0.9858
   27MOL   O147 8519   2.218   6.388   3.694  0.0977 -0.3039  0.1185
   27MOL   C148 8520   2.131   6.507   3.694 -0.1017 -0.3297 -0.3416
   27MOL   C149 8521   2.210   6.631   3.664  0.3339 -0.1608  0.1764
   27MOL   C150 8522   2.260   6.612   3.520 -0.3287 -0.0850 -0.6328
   27MOL   C151 8523   2.177   6.240   3.867  0.1120 -0.4481  0.5491
   27MOL   H152 8524   2.266   6.431   3.890 -0.2530  1.0963  0.1770
   27MOL   H153 8525   2.058   6.489   3.615 -2.6751 -1.2349  2.1553
   27MOL   H154 8526   2.055   6.514   3.772 -0.9629  1.7672 -1.3631
   27MOL   H155 8527   2.285   6.645   3.742 -0.0359 -0.8298  0.6603
   27MOL   H156 8528   2.150   6.720   3.682  0.7550  0.1090  0.2692
   27MOL   H157 8529   2.183   6.618   3.444 -0.2563  1.9176 -0.5636
   27MOL   H158 8530   2.317   6.520   3.506 -2.4758 -1.3945 -1.0436
   27MOL   H159 8531   2.318   6.700   3.494  1.6188 -0.4364  2.2295
   27MOL   H160 8532   2.078   6.284   3.858  0.6004  0.7741  1.0297
   27MOL   H161 8533   2.171   6.161   3.793 -1.4952 -1.0701  1.3083
   27MOL   C162 8534   2.187   6.186   4.013 -0.1098  0.2031 -0.1283
   27MOL   O163 8535   2.197   6.295   4.095  0.3371  0.0334  0.0836
   27MOL   C164 8536   2.247   6.284   4.226  0.6467 -0.1699  0.3701
   27MOL   C165 8537   2.263   6.426   4.283 -0.4156  0.0083 -0.3734
   27MOL   C166 8538   2.313   6.537   4.191  0.0459  0.3486  0.8375
   27MOL   C167 8539   2.066   6.103   4.062  0.8128  0.6314  0.1378
   27MOL   H168 8540   2.285   6.140   4.021  1.3281  2.9938 -0.8865
   27MOL   H169 8541   2.171   6.240   4.290  0.1282  0.1068 -0.0552
   27MOL   H170 8542   2.336   6.222   4.220  1.3759  0.8411  0.5690
   27MOL   H171 8543   2.322   6.421   4.374 -0.7514  1.0420 -0.0886
   27MOL   H172 8544   2.174   6.466   4.332  0.0558  1.4929 -0.7040
   27MOL   H173 8545   2.230   6.567   4.127  0.5560 -1.4130 -0.6895
   27MOL   H174 8546   2.411   6.515   4.149  0.3020  1.7371  0.6919
   27MOL   H175 8547   2.320   6.625   4.254 -1.1222  1.4508 -0.5418
   27MOL   H176 8548   2.079   6.066   4.164  0.6094  1.8028  0.5950
   27MOL   H177 8549   1.976   6.165   4.057  0.2318 -0.2538 -0.3801
   27MOL   C178 8550   2.030   5.979   3.983 -0.3000 -0.0023 -0.4229
   27MOL   O179 8551   2.154   5.905   3.983 -0.1943  0.3032  0.0180
   27MOL   C180 8552   2.173   5.842   3.864  0.4877 -0.2495  0.1111
   27MOL   C181 8553   2.286   5.732   3.871  0.2332 -0.0178 -0.1160
   27MOL   C182 8554   2.424   5.803   3.872  0.3625 -0.3079  0.0576
   27MOL   C183 8555   1.919   5.896   4.048 -0.1074 -0.0662  0.1611
   27MOL   H184 8556   1.986   6.007   3.888 -1.2293 -0.7824 -0.2317
   27MOL   H185 8557   2.078   5.792   3.847  0.2852  0.4032 -0.7219
   27MOL   H186 8558   2.196   5.911   3.783 -0.3828 -0.0133  0.0612
   27MOL   H187 8559   2.282   5.662   3.787  1.6793 -1.4678  0.9910
   27MOL   H188 8560   2.280   5.677   3.965  0.1176 -0.1374 -0.1928
   27MOL   H189 8561   2.510   5.736   3.864  0.3406 -0.2563 -0.6006
   27MOL   H190 8562   2.434   5.853   3.968 -0.1181  2.5712 -1.3419
   27MOL   H191 8563   2.439   5.884   3.801  1.5806  0.4038  1.1014
   27MOL   H192 8564   1.923   5.793   4.013 -2.9217 -0.2136  0.1412
   27MOL   H193 8565   1.934   5.891   4.156  1.5193 -1.2401 -0.0976
   27MOL   C194 8566   1.776   5.958   4.026  0.0651 -0.1478  0.2367
   27MOL   O195 8567   1.747   5.956   3.885 -0.9121  0.3169 -0.3299
   27MOL   C196 8568   1.725   6.089   3.833 -0.0700 -0.1818 -0.1485
   27MOL   C197 8569   1.725   6.083   3.678 -0.6358  0.5046  0.1340
   27MOL   C198 8570   1.868   6.077   3.629  0.3909 -0.0915  0.6112
   27MOL   C199 8571   1.667   5.879   4.103 -0.2791 -0.1025  0.0418
   27MOL   H200 8572   1.774   6.060   4.066  0.7786  1.2266 -3.1139
   27MOL   H201 8573   1.634   6.129   3.877  1.6253  1.4714  1.9252
   27MOL   H202 8574   1.801   6.160   3.866  0.7275 -0.6785 -0.8802
   27MOL   H203 8575   1.669   6.164   3.632 -0.2163  0.6799 -0.0705
   27MOL   H204 8576   1.668   6.000   3.638  0.1590 -0.3018  0.6415
   27MOL   H205 8577   1.920   5.985   3.657  0.8933 -0.3029 -0.9722
   27MOL   H206 8578   1.926   6.162   3.665 -0.4019  0.8045 -0.1917
   27MOL   H207 8579   1.875   6.074   3.520  0.8823  1.0213  0.6122
   27MOL   H208 8580   1.628   5.805   4.033  0.5435 -2.0873  1.6300
   27MOL   H209 8581   1.718   5.825   4.183 -0.7545  1.2580  1.2747
   27MOL   C210 8582   1.554   5.956   4.159 -0.5710 -0.0395  0.0246
   27MOL   O211 8583   1.450   5.857   4.188  0.2896 -0.5068  0.4154
   27MOL   C212 8584   1.325   5.908   4.218  0.0860  0.7150 -0.2604
   27MOL   C213 8585   1.239   5.783   4.237 -0.2220 -0.3117  0.5044
   27MOL   C214 8586   1.256   5.720   4.376 -0.4830 -0.0493  0.3272
   27MOL   C215 8587   1.590   6.025   4.293 -0.2092  0.3472  0.3478
   27MOL   H216 8588   1.527   6.022   4.077 -1.0547 -1.9335 -1.3656
   27MOL   H217 8589   1.322   5.972   4.306 -1.4951  0.2979  0.0169
   27MOL   H218 8590   1.281   5.954   4.130 -0.7594 -0.8332 -0.6752
   27MOL   H219 8591   1.266   5.705   4.165 -0.7776  1.9535 -2.2171
   27MOL   H220 8592   1.138   5.815   4.212  0.3695 -0.0443 -1.6710
   27MOL   H221 8593   1.194   5.631   4.382  0.8212 -0.8894  1.4923
   27MOL   H222 8594   1.220   5.785   4.456 -0.1183  0.7701 -0.1580
   27MOL   H223 8595   1.357   5.685   4.398 -1.1858 -1.9313  0.6153
   27MOL   H224 8596   1.522   5.996   4.373 -0.7944  0.4574 -0.1029
   27MOL   H225 8597   1.684   5.985   4.330  0.4277 -0.7296 -2.2717
   27MOL   C226 8598   1.587   6.178   4.279 -0.2308 -0.1474  0.0358
   27MOL   O227 8599   1.450   6.219   4.288 -0.4036  0.0307 -0.3000
   27MOL   C228 8600   1.423   6.350   4.232 -0.2238  0.6021 -0.9370
   27MOL   C229 8601   1.271   6.372   4.225 -0.8946 -0.0007  0.3040
   27MOL   C230 8602   1.204   6.374   4.362  0.1948 -0.1769 -0.0558
   27MOL   C231 8603   1.678   6.253   4.393 -1.2054  0.3160  0.3586
   27MOL   H232 8604   1.617   6.214   4.181 -4.9673  0.4650 -1.3345
   27MOL   H233 8605   1.473   6.423   4.295  4.4302 -1.4262 -2.0768
   27MOL   H234 8606   1.470   6.360   4.134 -1.6481 -0.1011 -1.7142
   27MOL   H235 8607   1.227   6.297   4.160 -0.2002 -0.1009 -0.0523
   27MOL   H236 8608   1.252   6.470   4.182 -0.4718  0.4643  1.1699
   27MOL   H237 8609   1.096   6.386   4.351  0.5070 -0.1418 -3.4036
   27MOL   H238 8610   1.237   6.460   4.420 -0.0014 -2.3400  3.4691
   27MOL   H239 8611   1.232   6.285   4.420  1.1052 -1.9376 -3.0752
   27MOL   H240 8612   1.654   6.355   4.422  3.4189  1.1867  1.5511
   27MOL   H241 8613   1.653   6.202   4.486 -0.4185 -0.5158  0.1205
   27MOL   C242 8614   1.837   6.245   4.361 -0.0192 -0.4913 -0.5370
   27MOL   O243 8615   1.882   6.321   4.255  0.2080 -0.5237  0.5175
   27MOL   C244 8616   1.875   6.463   4.265 -0.7363  0.0770  0.1088
   27MOL   C245 8617   1.902   6.519   4.119  0.0087  0.0585  0.6708
   27MOL   C246 8618   1.820   6.454   4.011  0.0769  0.8335 -0.2400
   27MOL   C247 8619   1.915   6.276   4.492  0.1338 -0.4004  0.1614
   27MOL   H248 8620   1.853   6.142   4.332 -0.2196  0.0077 -2.4562
   27MOL   H249 8621   1.769   6.473   4.287 -0.3779  0.5297  1.7305
   27MOL   H250 8622   1.928   6.517   4.343 -0.3178 -0.1553 -0.0134
   27MOL   H251 8623   2.007   6.496   4.102  0.7151  2.5821  1.4066
   27MOL   H252 8624   1.898   6.627   4.108  1.1067  0.1884  1.4156
   27MOL   H253 8625   1.825   6.521   3.926 -0.2473  0.8196 -0.2714
   27MOL   H254 8626   1.711   6.453   4.022 -0.1374  0.3833 -2.2703
   27MOL   H255 8627   1.846   6.352   3.982 -0.6007  0.7424 -0.5389
   27MOL   H256 8628   2.019   6.278   4.459  0.0921 -0.9637 -0.0068
   27MOL   H257 8629   1.901   6.376   4.534  0.4681  0.4027 -1.6196
   27MOL   C258 8630   1.894   6.174   4.612 -0.2729  0.5492  0.3732
   27MOL   O259 8631   1.921   6.042   4.573  0.4807  0.3879  0.1509
   27MOL   C260 8632   1.841   5.943   4.636 -0.1225 -0.0429  0.5786
   27MOL   C261 8633   1.892   5.797   4.617  0.9539  0.0515 -0.2731
   27MOL   C262 8634   1.877   5.765   4.468  0.0827  0.4291  0.2294
   27MOL   C263 8635   1.996   6.205   4.724 -0.6477  0.0392  0.5375
   27MOL   H264 8636   1.795   6.187   4.656 -0.5575 -0.2813 -0.0311
   27MOL   H265 8637   1.846   5.961   4.744 -0.6894  0.9468  0.4416
   27MOL   H266 8638   1.736   5.956   4.608  0.2818  0.6953 -0.6042
   27MOL   H267 8639   1.835   5.718   4.666 -0.5806  2.0547  1.2515
   27MOL   H268 8640   1.995   5.790   4.651 -0.7179 -2.9770  4.5970
   27MOL   H269 8641   1.931   5.674   4.439  0.7761  0.4243  1.5241
   27MOL   H270 8642   1.908   5.851   4.409  0.2489 -0.7989 -1.5099
   27MOL   H271 8643   1.772   5.748   4.445  0.2239  1.1700 -1.0059
   27MOL   H272 8644   2.029   6.121   4.787  0.9222  0.2675  0.0523
   27MOL   H273 8645   2.089   6.243   4.682  0.0857 -1.6966  0.5355
   27MOL   C274 8646   1.942   6.312   4.813 -0.3498 -0.5488  0.5258
   27MOL   O275 8647   1.875   6.245   4.917 -0.8301 -0.1276  0.1265
   27MOL   C276 8648   1.751   6.301   4.959  0.1935 -0.2827  0.0294
   27MOL   C277 8649   1.682   6.209   5.059  0.1858  0.6057  0.0206
   27MOL   C278 8650   1.631   6.078   5.000  0.5459 -0.5258 -0.3078
   27MOL   C279 8651   2.041   6.407   4.871 -0.1672 -0.7700  0.1034
   27MOL   H280 8652   1.859   6.369   4.770  2.4598  1.9648 -1.7358
   27MOL   H281 8653   1.770   6.394   5.011 -0.9617 -1.1089  1.9799
   27MOL   H282 8654   1.678   6.315   4.879  1.1029  1.5391 -0.4895
   27MOL   H283 8655   1.597   6.266   5.097  0.2108  0.9723 -0.4700
   27MOL   H284 8656   1.753   6.193   5.140 -0.9272  1.2681  1.1439
   27MOL   H285 8657   1.563   6.099   4.917 -0.5518 -1.0718  0.4383
   27MOL   H286 8658   1.593   6.010   5.075  3.7900  1.2253  3.0834
   27MOL   H287 8659   1.717   6.021   4.966 -0.4051 -1.6420 -0.8718
   27MOL   H288 8660   1.998   6.479   4.941 -1.0702 -0.9671 -0.2359
   27MOL   H289 8661   2.113   6.345   4.923  2.4930 -0.4680 -3.0950
   27MOL   C290 8662   2.126   6.487   4.764 -0.0551 -0.3126 -0.1264
   27MOL   O291 8663   2.043   6.590   4.721  0.5822  0.3185 -0.2643
   27MOL   C292 8664   2.065   6.646   4.593 -0.9135 -0.2896  0.3082
   27MOL   C293 8665   1.959   6.755   4.558  0.1564 -0.3377 -0.1827
   27MOL   C294 8666   1.980   6.892   4.617  0.2565  0.5554 -0.4727
   27MOL   C295 8667   2.252   6.558   4.825  0.6356 -0.0116  0.6230
   27MOL   H296 8668   2.164   6.431   4.678 -0.9625  0.2861 -0.9216
   27MOL   H297 8669   2.165   6.691   4.593 -0.5811 -1.0087 -0.7388
   27MOL   H298 8670   2.065   6.572   4.513 -1.5099 -1.1900  1.1325
   27MOL   H299 8671   1.871   6.716   4.610  0.5601 -0.6077  0.2995
   27MOL   H300 8672   1.942   6.782   4.454 -0.1285 -0.5585 -0.1921
   27MOL   H301 8673   1.891   6.953   4.605 -0.5447 -0.6790 -0.8706
   27MOL   H302 8674   2.067   6.955   4.597  0.2899 -0.0790 -2.3472
   27MOL   H303 8675   1.982   6.876   4.725 -1.7786  1.9769 -0.1969
   27MOL   H304 8676   2.282   6.645   4.767 -0.4078  0.5508  0.8982
   27MOL   H305 8677   2.225   6.611   4.916  3.8409  0.4922  1.3280
   27MOL   C306 8678   2.374   6.463   4.847 -0.2864  0.1400 -0.6288
   27MOL   O307 8679   2.488   6.481   4.764  0.1636  0.1422 -0.1284
   27MOL   C308 8680   2.483   6.393   4.650 -0.4316  0.1653  0.4166
   27MOL   C309 8681   2.591   6.420   4.548  0.3776  0.1561  0.8030
   27MOL   C310 8682   2.738   6.414   4.598  0.0252  0.3758 -0.0704
   27MOL   C311 8683   2.433   6.493   4.987 -0.0422  0.5804 -0.2904
   27MOL   H312 8684   2.345   6.358   4.852  1.7396 -0.3573  1.2312
   27MOL   H313 8685   2.486   6.289   4.683  1.5341 -0.0772 -0.4741
   27MOL   H314 8686   2.383   6.407   4.608 -0.1680  2.0279  0.3593
   27MOL   H315 8687   2.567   6.519   4.510  0.9813  0.2799  0.7451
   27MOL   H316 8688   2.578   6.354   4.462 -0.0113  1.4341 -0.1340
   27MOL   H317 8689   2.807   6.436   4.517 -0.4842  0.3136 -0.5303
   27MOL   H318 8690   2.760   6.314   4.637  1.0772  0.0872 -1.3655
   27MOL   H319 8691   2.755   6.493   4.671 -2.5117 -1.0509  2.1921
   27MOL   H320 8692   2.464   6.597   4.989  1.1284  0.2562 -0.8788
   27MOL   H321 8693   2.364   6.472   5.069 -0.4859 -2.6403 -1.3971
   27MOL   H322 8694   2.522   6.433   5.007  0.0163  1.5324  2.4331
   28MOL     C1 8695   3.471   0.920   1.643 -0.2915  0.2683 -0.3014
   28MOL     O2 8696   3.485   0.879   1.504  0.1463 -0.5281  0.4569
   28MOL     C3 8697   3.611   0.843   1.460  0.3644 -0.6050  0.1260
   28MOL     C4 8698   3.588   0.785   1.316  0.3688 -0.1060 -0.2207
   28MOL     C5 8699   3.504   0.656   1.313 -0.0621 -0.1371 -0.4412
   28MOL     C6 8700   3.570   1.034   1.687 -0.0228  0.2101  0.2576
   28MOL     H7 8701   3.504   0.836   1.704 -0.6692  0.5800  0.3370
   28MOL     H8 8702   3.680   0.928   1.457 -1.3864  0.8443  0.1332
   28MOL     H9 8703   3.648   0.770   1.532 -1.6171  0.2662  2.0939
   28MOL    H10 8704   3.689   0.760   1.285  0.2915 -2.4819  1.2985
   28MOL    H11 8705   3.538   0.863   1.258 -1.3665 -0.7534  0.3521
   28MOL    H12 8706   3.543   0.576   1.375 -0.2291  0.5795  0.6018
   28MOL    H13 8707   3.489   0.624   1.210 -0.2577 -0.0383 -0.4441
   28MOL    H14 8708   3.401   0.678   1.341  0.0221 -1.6996  1.1436
   28MOL    H15 8709   3.573   1.052   1.794  1.4037 -0.9490  0.4159
   28MOL    H16 8710   3.674   1.007   1.673  0.4205  3.1110 -2.7748
   28MOL    H17 8711   3.364   0.925   1.661 -0.5083 -0.3258 -1.3550
   28MOL    C18 8712   3.550   1.173   1.620  0.9335 -0.0215  0.2036
   28MOL    O19 8713   3.615   1.272   1.691 -0.4960 -0.1670 -0.6471
   28MOL    C20 8714   3.543   1.340   1.790  0.6629 -0.4862  0.0387
   28MOL    C21 8715   3.633   1.447   1.838 -0.4265 -0.4535 -0.6468
   28MOL    C22 8716   3.745   1.391   1.930 -0.5484 -0.3502  0.1141
   28MOL    C23 8717   3.601   1.170   1.480  0.1215 -0.2044  0.4208
   28MOL    H24 8718   3.443   1.195   1.626  0.7647 -1.1262  1.3264
   28MOL    H25 8719   3.460   1.392   1.743  0.5950 -1.0700 -0.4853
   28MOL    H26 8720   3.508   1.278   1.873 -1.1651  2.1242  1.2754
   28MOL    H27 8721   3.573   1.518   1.896  1.7470 -0.9909  2.3944
   28MOL    H28 8722   3.679   1.496   1.752  1.2429 -0.1698  0.3824
   28MOL    H29 8723   3.716   1.357   2.029  1.6514  0.6123  1.1078
   28MOL    H30 8724   3.829   1.460   1.937 -0.8221  0.0253 -0.2803
   28MOL    H31 8725   3.791   1.309   1.875  0.1565 -0.1654  0.4308
   28MOL    H32 8726   3.709   1.173   1.485  0.1441  2.6034 -0.6883
   28MOL    H33 8727   3.544   1.098   1.421 -0.1927  1.9554 -1.9864
   28MOL    C34 8728   3.577   1.307   1.409 -0.2429 -0.0059  0.2971
   28MOL    O35 8729   3.684   1.326   1.314  1.0737  0.5478 -0.4426
   28MOL    C36 8730   3.776   1.433   1.338  0.5650 -0.2701 -0.0359
   28MOL    C37 8731   3.865   1.458   1.213  1.1105 -0.3322  0.1078
   28MOL    C38 8732   3.938   1.332   1.179 -0.3525  0.3637 -0.1280
   28MOL    C39 8733   3.440   1.299   1.334  0.4553  0.7643 -0.9801
   28MOL    H40 8734   3.574   1.383   1.487 -0.2665 -1.6891  1.9724
   28MOL    H41 8735   3.725   1.528   1.351  1.3535  0.3241 -1.2181
   28MOL    H42 8736   3.841   1.417   1.425  1.8651  1.7281 -0.5945
   28MOL    H43 8737   3.929   1.545   1.229  0.2833  0.1898  0.6018
   28MOL    H44 8738   3.809   1.486   1.124  0.8650 -4.0470 -0.9944
   28MOL    H45 8739   3.874   1.271   1.115 -0.8071  0.2230  0.4517
   28MOL    H46 8740   3.966   1.278   1.270  0.8071  2.7890  1.0002
   28MOL    H47 8741   4.030   1.372   1.138 -0.2165  0.8098  0.6007
   28MOL    H48 8742   3.445   1.213   1.267 -1.2407  0.7195 -1.0756
   28MOL    H49 8743   3.356   1.282   1.401  0.8613  2.4745  0.0045
   28MOL    C50 8744   3.390   1.427   1.267  0.1309 -0.0403 -0.0169
   28MOL    O51 8745   3.400   1.534   1.360 -0.1074 -0.3476 -0.7509
   28MOL    C52 8746   3.301   1.538   1.461  0.4030 -0.8587  0.2385
   28MOL    C53 8747   3.293   1.671   1.530 -0.6093 -0.5583 -0.1470
   28MOL    C54 8748   3.428   1.691   1.604  0.1647 -0.5496  0.2702
   28MOL    C55 8749   3.456   1.463   1.135 -0.4268 -0.0574  0.0780
   28MOL    H56 8750   3.286   1.403   1.245  0.2245 -0.6916  0.2381
   28MOL    H57 8751   3.200   1.514   1.426 -0.4976  0.4318  1.8876
   28MOL    H58 8752   3.313   1.459   1.535  1.7102 -0.1832  0.7467
   28MOL    H59 8753   3.210   1.686   1.600 -1.3286 -2.4488 -0.5607
   28MOL    H60 8754   3.267   1.753   1.463 -1.4902 -0.4838  0.2735
   28MOL    H61 8755   3.450   1.624   1.687 -1.9481 -0.5154  0.9004
   28MOL    H62 8756   3.416   1.793   1.639  1.9380 -0.7307  1.4515
   28MOL    H63 8757   3.507   1.695   1.529 -2.3704  1.9893 -2.3922
   28MOL    H64 8758   3.565   1.459   1.139 -0.4760 -1.4185  0.1712
   28MOL    H65 8759   3.427   1.382   1.069  1.8520  0.2575 -1.3763
   28MOL    C66 8760   3.407   1.601   1.080  0.7808 -0.0718 -0.2442
   28MOL    O67 8761   3.448   1.599   0.939  0.3101  0.3526 -0.2814
   28MOL    C68 8762   3.580   1.656   0.916  0.5921  0.4434  0.4691
   28MOL    C69 8763   3.579   1.811   0.924  0.6633  0.0424  0.4751
   28MOL    C70 8764   3.628   1.877   0.797  0.9176 -0.1345 -0.4592
   28MOL    C71 8765   3.252   1.619   1.088 -0.2472 -0.2330  0.1457
   28MOL    H72 8766   3.454   1.688   1.126  0.8625  0.1658 -0.7764
   28MOL    H73 8767   3.655   1.610   0.980  1.0508 -0.1486 -0.4818
   28MOL    H74 8768   3.609   1.631   0.814  0.4700 -2.5216  1.1130
   28MOL    H75 8769   3.644   1.845   1.005  0.1995 -2.6957  2.0849
   28MOL    H76 8770   3.471   1.826   0.931  0.9077  1.2242  1.9677
   28MOL    H77 8771   3.724   1.840   0.762  2.0379  1.2041  1.1190
   28MOL    H78 8772   3.648   1.983   0.816  0.3775 -0.4179  1.8551
   28MOL    H79 8773   3.553   1.880   0.717 -1.1904  1.1129  1.4907
   28MOL    H80 8774   3.213   1.535   1.030 -0.0106 -0.2250 -0.0269
   28MOL    H81 8775   3.227   1.601   1.192  0.3657  2.0971  0.7232
   28MOL    C82 8776   3.199   1.759   1.051 -0.0065  0.2721  0.4019
   28MOL    O83 8777   3.058   1.760   1.023 -0.3315  0.0698  0.0177
   28MOL    C84 8778   3.029   1.712   0.892  0.2299 -0.5072  0.5582
   28MOL    C85 8779   2.875   1.709   0.872  0.4886  0.2814 -0.2807
   28MOL    C86 8780   2.810   1.604   0.958 -0.3317 -0.2050 -0.2218
   28MOL    C87 8781   3.230   1.868   1.167  0.4739  0.0246 -0.4538
   28MOL    H88 8782   3.238   1.791   0.954 -0.7696 -1.9760 -0.6877
   28MOL    H89 8783   3.074   1.778   0.818  0.8453 -1.1510  0.3539
   28MOL    H90 8784   3.072   1.614   0.872  4.4303  1.4110 -0.2969
   28MOL    H91 8785   2.843   1.677   0.772 -2.2691 -2.0400  1.2486
   28MOL    H92 8786   2.839   1.811   0.885 -1.4887 -0.5795  1.1569
   28MOL    H93 8787   2.858   1.506   0.961  3.1475  1.4501 -0.2460
   28MOL    H94 8788   2.707   1.582   0.928  0.4463 -1.9040 -1.7691
   28MOL    H95 8789   2.799   1.646   1.057 -3.5286  3.0650 -1.8361
   28MOL    H96 8790   3.160   1.835   1.245 -1.6868  1.3811 -1.7638
   28MOL    H97 8791   3.333   1.855   1.201  0.2345 -2.9728 -0.7559
   28MOL    C98 8792   3.213   2.021   1.133 -0.2938 -0.0655 -0.1280
   28MOL    O99 8793   3.266   2.102   1.240  0.4546 -0.4716 -0.9630
   28MOL   C100 8794   3.189   2.083   1.360 -0.8219 -0.0949  0.5103
   28MOL   C101 8795   3.231   2.193   1.457  0.0078  0.6546 -0.1619
   28MOL   C102 8796   3.371   2.187   1.504  0.6516 -0.0479  0.4301
   28MOL   C103 8797   3.277   2.064   1.005 -0.0807  0.3821  0.0656
   28MOL   H104 8798   3.107   2.043   1.127 -0.0442  0.7487 -1.7063
   28MOL   H105 8799   3.083   2.096   1.340 -0.5652 -1.7887 -2.2793
   28MOL   H106 8800   3.207   1.986   1.408 -0.0937  0.6786  1.8216
   28MOL   H107 8801   3.167   2.180   1.544  1.8540  0.2404  1.1597
   28MOL   H108 8802   3.217   2.295   1.421  1.3969  1.3203  1.1325
   28MOL   H109 8803   3.395   2.082   1.489  1.3107  0.2042 -0.3786
   28MOL   H110 8804   3.384   2.208   1.610 -3.3604 -0.8769  1.1697
   28MOL   H111 8805   3.446   2.246   1.450  0.3750 -1.1804 -1.2029
   28MOL   H112 8806   3.379   2.025   1.007 -0.6281 -1.0794 -0.3328
   28MOL   H113 8807   3.220   2.012   0.928 -0.4557 -2.0701  1.9562
   28MOL   C114 8808   3.282   2.209   0.973  0.2869  0.0818  0.2156
   28MOL   O115 8809   3.327   2.232   0.842  0.3156 -0.2736 -0.5991
   28MOL   C116 8810   3.468   2.250   0.835  0.1292  1.0673 -0.0531
   28MOL   C117 8811   3.502   2.223   0.694  0.0767 -0.2630 -0.4189
   28MOL   C118 8812   3.644   2.266   0.657  0.1178  0.6639 -0.1993
   28MOL   C119 8813   3.150   2.282   0.991  0.4421  0.2806 -0.5960
   28MOL   H120 8814   3.348   2.261   1.043 -0.0364  1.9441 -0.8162
   28MOL   H121 8815   3.493   2.353   0.860 -0.9957  0.8431  2.0578
   28MOL   H122 8816   3.525   2.186   0.903 -0.4264  0.1053 -0.4887
   28MOL   H123 8817   3.442   2.267   0.614 -1.3289 -1.6341 -0.1463
   28MOL   H124 8818   3.499   2.115   0.680 -0.5916 -0.0584 -2.0389
   28MOL   H125 8819   3.667   2.219   0.562  2.4276  1.4045 -0.0330
   28MOL   H126 8820   3.724   2.258   0.731  0.0892  1.5253 -0.0658
   28MOL   H127 8821   3.639   2.374   0.644  0.0946  0.5334 -1.3003
   28MOL   H128 8822   3.123   2.285   1.096  1.6913 -1.4496 -0.2112
   28MOL   H129 8823   3.169   2.384   0.956 -3.1422  1.0144 -0.6046
   28MOL   C130 8824   3.024   2.239   0.915  0.7268 -0.3102 -0.5828
   28MOL   O131 8825   2.897   2.268   0.979 -0.2891  0.1676  0.2232
   28MOL   C132 8826   2.867   2.195   1.097  0.1917 -0.2297 -0.5846
   28MOL   C133 8827   2.720   2.209   1.133 -0.3383 -0.2239 -0.4087
   28MOL   C134 8828   2.680   2.150   1.270 -0.0486  0.2127 -0.3321
   28MOL   C135 8829   3.025   2.280   0.767 -0.6028  0.2362 -0.1622
   28MOL   H136 8830   3.028   2.130   0.913  0.7060 -0.3841  2.2515
   28MOL   H137 8831   2.883   2.088   1.085  0.0841 -0.5554  1.9633
   28MOL   H138 8832   2.933   2.234   1.175 -0.2312  0.0176 -0.3527
   28MOL   H139 8833   2.660   2.164   1.054  4.9737 -2.9273 -3.1784
   28MOL   H140 8834   2.694   2.314   1.128 -1.3347 -0.5287 -1.8754
   28MOL   H141 8835   2.662   2.043   1.257 -2.2764  0.4533  0.6549
   28MOL   H142 8836   2.578   2.180   1.291 -0.2853 -0.9272  0.1686
   28MOL   H143 8837   2.742   2.178   1.355 -1.1653  1.1798  0.1805
   28MOL   H144 8838   3.042   2.387   0.760  0.1685  0.1845  0.8750
   28MOL   H145 8839   3.097   2.233   0.700 -0.0367  1.6784 -0.5744
   28MOL   C146 8840   2.880   2.255   0.705  0.8696  0.2879  0.1051
   28MOL   O147 8841   2.870   2.303   0.569  0.2414 -0.6237  0.6770
   28MOL   C148 8842   2.860   2.445   0.559 -0.3364 -0.5898  0.5303
   28MOL   C149 8843   2.839   2.474   0.406  0.0742  0.4972  1.3975
   28MOL   C150 8844   2.737   2.398   0.331  0.4537  0.3056 -0.3431
   28MOL   C151 8845   2.846   2.101   0.691 -0.1448  0.0483  0.4440
   28MOL   H152 8846   2.808   2.316   0.759 -0.5621 -2.7055  1.6963
   28MOL   H153 8847   2.780   2.493   0.617  0.4981 -0.1256  1.3267
   28MOL   H154 8848   2.948   2.502   0.590 -0.0242 -0.4015 -0.7143
   28MOL   H155 8849   2.933   2.473   0.352  0.5737  0.6609  2.2570
   28MOL   H156 8850   2.824   2.582   0.394 -0.6107  0.5436  2.6338
   28MOL   H157 8851   2.759   2.291   0.330 -0.1682  0.1771 -0.3544
   28MOL   H158 8852   2.727   2.441   0.232  0.0871 -3.0862 -1.8550
   28MOL   H159 8853   2.636   2.407   0.373  0.8429  0.8545  0.4928
   28MOL   H160 8854   2.926   2.060   0.630  0.3389  1.1315  0.3281
   28MOL   H161 8855   2.854   2.062   0.793  1.8550  0.7004  0.5770
   28MOL   C162 8856   2.720   2.069   0.614 -0.3827  0.1498 -0.1107
   28MOL   O163 8857   2.724   1.928   0.589 -0.0976 -0.0695  0.0899
   28MOL   C164 8858   2.776   1.880   0.467 -0.0090  0.1827  0.0389
   28MOL   C165 8859   2.757   1.731   0.476 -0.3714  0.0930 -0.5888
   28MOL   C166 8860   2.728   1.674   0.339 -0.3551 -0.1438  0.1224
   28MOL   C167 8861   2.587   2.105   0.690  0.0373  0.0084 -0.2984
   28MOL   H168 8862   2.722   2.113   0.515 -0.5056 -1.8008 -0.9987
   28MOL   H169 8863   2.716   1.920   0.386  2.1522  1.6699 -0.8714
   28MOL   H170 8864   2.880   1.910   0.454  0.6357 -2.4119 -1.0741
   28MOL   H171 8865   2.660   1.708   0.518  1.4551  0.3927  4.0467
   28MOL   H172 8866   2.840   1.682   0.527  1.4769  1.0083 -2.6134
   28MOL   H173 8867   2.695   1.571   0.353 -0.3635 -0.1376  0.1488
   28MOL   H174 8868   2.818   1.669   0.278 -1.6555 -0.2031 -1.8562
   28MOL   H175 8869   2.650   1.724   0.282 -1.6573 -0.1162  1.8885
   28MOL   H176 8870   2.583   2.041   0.778  3.5907  1.2709  0.8920
   28MOL   H177 8871   2.588   2.207   0.728 -0.0425 -0.0327 -0.1870
   28MOL   C178 8872   2.456   2.097   0.607  0.2574 -0.4828 -0.3088
   28MOL   O179 8873   2.346   2.117   0.688  0.0152  0.1008  0.0194
   28MOL   C180 8874   2.245   2.019   0.683  0.6146  0.4964  0.3985
   28MOL   C181 8875   2.140   2.046   0.799  0.0424  0.2782  0.4974
   28MOL   C182 8876   2.081   2.192   0.784 -0.1392  0.2865 -0.0639
   28MOL   C183 8877   2.465   2.199   0.492 -0.3681 -0.1302 -0.3516
   28MOL   H184 8878   2.453   1.997   0.563  1.4626 -1.8817  2.6158
   28MOL   H185 8879   2.199   2.025   0.584  2.3681  0.1633 -0.4477
   28MOL   H186 8880   2.269   1.913   0.692 -1.5355  0.1258  2.5506
   28MOL   H187 8881   2.195   2.046   0.893  1.7226  1.9054 -0.4557
   28MOL   H188 8882   2.063   1.971   0.812 -0.0242  0.0195 -1.2082
   28MOL   H189 8883   2.022   2.208   0.694 -1.8072  0.9818  1.1336
   28MOL   H190 8884   2.161   2.267   0.788 -1.0912  1.2975  0.2093
   28MOL   H191 8885   2.018   2.217   0.870 -0.5369  0.6355 -0.4521
   28MOL   H192 8886   2.472   2.302   0.527 -2.0494 -0.3144  0.5584
   28MOL   H193 8887   2.554   2.191   0.429 -1.5558  0.8587 -2.2003
   28MOL   C194 8888   2.346   2.190   0.392 -0.5791  0.6112  0.2308
   28MOL   O195 8889   2.350   2.319   0.334  0.3408 -0.3958 -0.3230
   28MOL   C196 8890   2.218   2.369   0.309  0.3863  0.4022 -0.1246
   28MOL   C197 8891   2.241   2.497   0.228 -0.5751  0.4254 -0.1033
   28MOL   C198 8892   2.099   2.569   0.226 -0.1152 -0.0745 -0.4828
   28MOL   C199 8893   2.357   2.065   0.282 -0.9527 -0.1627 -0.2085
   28MOL   H200 8894   2.250   2.176   0.441 -0.9456 -0.5414 -0.7862
   28MOL   H201 8895   2.172   2.288   0.252 -1.0268  0.5807  0.7355
   28MOL   H202 8896   2.168   2.386   0.404  0.3234 -0.4364 -0.0053
   28MOL   H203 8897   2.270   2.481   0.124  1.7597  2.8593  0.1141
   28MOL   H204 8898   2.314   2.566   0.269 -0.7922  0.5055  0.1463
   28MOL   H205 8899   2.092   2.658   0.165 -2.5345 -0.7774 -1.2819
   28MOL   H206 8900   2.081   2.589   0.332 -0.6332 -2.6124 -0.0428
   28MOL   H207 8901   2.028   2.496   0.186  0.1106  0.2290 -1.4445
   28MOL   H208 8902   2.378   2.100   0.181  1.7960 -2.4363 -0.4973
   28MOL   H209 8903   2.440   1.997   0.300  0.2833  0.8730 -1.8266
   28MOL   C210 8904   2.235   1.971   0.275 -0.4429 -0.1931  0.5746
   28MOL   O211 8905   2.119   2.051   0.241 -0.9508  0.0750  0.3710
   28MOL   C212 8906   2.000   2.016   0.312 -0.1450  0.2139  0.3037
   28MOL   C213 8907   1.875   2.073   0.236  0.5344  0.0773  0.1652
   28MOL   C214 8908   1.857   2.022   0.089 -0.6988 -0.2536 -0.4183
   28MOL   C215 8909   2.244   1.860   0.166  0.3950  0.0786  0.0614
   28MOL   H216 8910   2.213   1.934   0.375  0.5664 -0.7304  0.6031
   28MOL   H217 8911   1.993   1.908   0.323  1.1457 -0.1367 -1.8937
   28MOL   H218 8912   1.998   2.057   0.412 -0.5113 -0.6966  0.6756
   28MOL   H219 8913   1.895   2.180   0.227 -0.3649  0.2498  0.2029
   28MOL   H220 8914   1.786   2.064   0.297 -0.7039  1.0297 -1.4487
   28MOL   H221 8915   1.838   1.915   0.097 -1.2256 -0.3113 -2.1868
   28MOL   H222 8916   1.951   2.033   0.035 -0.7610  2.2001 -0.0854
   28MOL   H223 8917   1.782   2.079   0.034 -0.4145  0.6784  0.1428
   28MOL   H224 8918   2.143   1.821   0.156  0.2579  0.9145 -1.9674
   28MOL   H225 8919   2.283   1.893   0.070  0.0699  1.6766  0.4542
   28MOL   C226 8920   2.334   1.743   0.214  0.5823  0.3202 -0.1380
   28MOL   O227 8921   2.276   1.680   0.321  0.3351 -0.5015 -0.0610
   28MOL   C228 8922   2.355   1.675   0.436  0.7912  0.7734 -0.3118
   28MOL   C229 8923   2.288   1.571   0.536 -0.2057  0.5688  0.3831
   28MOL   C230 8924   2.351   1.571   0.678  0.8414  0.8147 -0.4265
   28MOL   C231 8925   2.357   1.639   0.104 -0.2687  0.6344  0.3344
   28MOL   H232 8926   2.434   1.774   0.244  1.6204 -1.7626 -1.3593
   28MOL   H233 8927   2.456   1.643   0.412 -0.1384  0.2543 -3.7448
   28MOL   H234 8928   2.354   1.775   0.480 -1.7006  0.2684  0.8725
   28MOL   H235 8929   2.287   1.469   0.498 -1.4138  0.3887  0.8676
   28MOL   H236 8930   2.183   1.598   0.549 -0.1453  0.8124  0.3768
   28MOL   H237 8931   2.277   1.530   0.747  0.3703  1.2378 -0.6739
   28MOL   H238 8932   2.357   1.676   0.704 -2.7997  1.0853 -0.4035
   28MOL   H239 8933   2.442   1.512   0.685  0.1712 -0.0912  0.9396
   28MOL   H240 8934   2.389   1.690   0.014  0.4672  1.4318  1.0324
   28MOL   H241 8935   2.444   1.589   0.147 -0.1187  0.6075 -0.0057
   28MOL   C242 8936   2.242   1.545   0.065 -0.2235 -0.1122 -0.2356
   28MOL   O243 8937   2.148   1.632   0.019  0.0413  0.0212 -0.5759
   28MOL   C244 8938   2.022   1.564   0.014  0.6005 -0.2047 -0.5495
   28MOL   C245 8939   1.906   1.655   0.016 -0.7542 -0.3866  0.1205
   28MOL   C246 8940   1.769   1.601   0.030 -0.3929 -0.2675 -0.1816
   28MOL   C247 8941   2.288   1.436   7.802  0.0018 -0.1976  0.3386
   28MOL   H248 8942   2.217   1.506   0.164 -1.0296 -1.4622 -0.9523
   28MOL   H249 8943   2.022   1.494   7.759  0.9285 -1.1729  0.2527
   28MOL   H250 8944   2.002   1.503   0.103 -0.7043 -0.0194 -0.7076
   28MOL   H251 8945   1.918   1.731   7.766  2.2024 -0.5866  0.3307
   28MOL   H252 8946   1.929   1.712   0.105  0.0754  1.3456 -1.1723
   28MOL   H253 8947   1.739   1.549   0.121  1.1190 -0.6033  0.1254
   28MOL   H254 8948   1.747   1.537   7.772 -4.0326 -1.7021  1.7082
   28MOL   H255 8949   1.700   1.683   0.012  0.9451  0.3348 -2.7457
   28MOL   H256 8950   2.198   1.394   7.757 -0.6709  2.0671 -0.5120
   28MOL   H257 8951   2.342   1.485   7.721 -2.0357  2.9911  0.8264
   28MOL   C258 8952   2.382   1.322   0.028 -0.1226 -0.1740 -0.3304
   28MOL   O259 8953   2.311   1.242   0.118  0.5907 -0.4146 -0.4924
   28MOL   C260 8954   2.342   1.264   0.257  1.1664  0.2941 -0.3488
   28MOL   C261 8955   2.216   1.200   0.322 -0.8303 -0.5482 -0.0637
   28MOL   C262 8956   2.085   1.274   0.305  0.0443  0.2195 -0.0645
   28MOL   C263 8957   2.419   1.224   7.741  0.1842 -0.4561  0.1671
   28MOL   H264 8958   2.470   1.366   0.075 -0.3339  0.7082 -0.7639
   28MOL   H265 8959   2.429   1.205   0.287 -0.9390 -2.3178  0.8228
   28MOL   H266 8960   2.345   1.369   0.286 -0.6500  0.0798  0.6779
   28MOL   H267 8961   2.241   1.176   0.425  1.1488  0.7738 -0.2053
   28MOL   H268 8962   2.197   1.104   0.273 -3.1386 -0.0332 -0.2260
   28MOL   H269 8963   2.020   1.222   0.376 -2.9134 -0.5826 -3.2284
   28MOL   H270 8964   2.031   1.268   0.211  1.9068  0.0289 -1.1488
   28MOL   H271 8965   2.111   1.378   0.324 -0.5405  0.2323  0.6706
   28MOL   H272 8966   2.333   1.174   7.696  1.4893 -2.0381 -0.6082
   28MOL   H273 8967   2.462   1.285   7.661  0.2035 -0.4104  0.2123
   28MOL   C274 8968   2.526   1.118   7.771  0.4918  0.2155  0.3201
   28MOL   O275 8969   2.490   0.996   7.715 -0.2288  0.2130  0.3719
   28MOL   C276 8970   2.381   0.920   7.775  0.3352  0.1763 -0.2894
   28MOL   C277 8971   2.311   0.822   7.673 -0.2794 -0.4915 -0.5500
   28MOL   C278 8972   2.409   0.737   7.584 -0.1495  0.3392  0.2145
   28MOL   C279 8973   2.669   1.149   7.723  0.0069  0.6185  0.0038
   28MOL   H280 8974   2.530   1.097   0.051 -1.4563 -0.2637  0.3301
   28MOL   H281 8975   2.436   0.874   0.029  0.6051  3.2218  1.2894
   28MOL   H282 8976   2.305   0.989   7.811  1.1642  0.4611  0.9378
   28MOL   H283 8977   2.248   0.886   7.611 -2.9827 -1.3864  1.1903
   28MOL   H284 8978   2.242   0.765   7.735 -0.6816 -0.8970 -1.3649
   28MOL   H285 8979   2.460   0.688   7.667 -1.4167  0.3241  1.0069
   28MOL   H286 8980   2.474   0.790   7.515  0.2756 -0.1109  0.2630
   28MOL   H287 8981   2.359   0.658   7.527  1.9974  0.2905 -1.6628
   28MOL   H288 8982   2.729   1.059   7.739  1.2276  1.4754  0.3651
   28MOL   H289 8983   2.654   1.164   7.616 -0.8106  0.1689  0.0493
   28MOL   C290 8984   2.732   1.277   7.779  0.7754  0.5747 -0.2662
   28MOL   O291 8985   2.768   1.243   0.084 -0.3048  0.1274 -0.0358
   28MOL   C292 8986   2.788   1.354   0.172 -0.8024  0.0433 -0.3942
   28MOL   C293 8987   2.815   1.304   0.313  0.2387  0.6491  0.2960
   28MOL   C294 8988   2.699   1.259   0.406  0.5060 -0.6990 -0.5672
   28MOL   C295 8989   2.860   1.319   7.695 -0.1045 -0.3649  0.1627
   28MOL   H296 8990   2.656   1.355   7.787  0.7398  0.2481  2.9478
   28MOL   H297 8991   2.872   1.417   0.142 -0.6787 -0.3625 -0.9090
   28MOL   H298 8992   2.704   1.423   0.167  1.3190  2.8225  0.9486
   28MOL   H299 8993   2.872   1.380   0.366  0.4350 -0.0698  1.1323
   28MOL   H300 8994   2.892   1.228   0.307 -2.3620 -2.1146  0.3088
   28MOL   H301 8995   2.629   1.339   0.426  1.0135 -0.5510  0.7251
   28MOL   H302 8996   2.726   1.217   0.504  1.2129 -3.2402 -1.8160
   28MOL   H303 8997   2.655   1.172   0.357 -0.7995  0.5621 -1.6422
   28MOL   H304 8998   2.920   1.394   7.746  0.8704  0.6853 -2.4811
   28MOL   H305 8999   2.935   1.240   7.702 -0.2525 -0.7611 -2.2702
   28MOL   C306 9000   2.839   1.375   7.555 -1.0771  0.3403 -0.7362
   28MOL   O307 9001   2.806   1.517   7.569 -0.3646  0.5289 -0.2828
   28MOL   C308 9002   2.722   1.570   7.465  0.0548  0.1352 -0.8602
   28MOL   C309 9003   2.672   1.708   7.508  0.0228 -0.2406  0.7210
   28MOL   C310 9004   2.561   1.696   7.614 -0.3315  0.0900 -0.3365
   28MOL   C311 9005   2.976   1.376   7.471 -0.4763 -0.1846 -0.0889
   28MOL   H312 9006   2.761   1.317   7.505  0.0133 -0.5113 -1.4635
   28MOL   H313 9007   2.783   1.588   7.376  1.8901  2.9200  0.8638
   28MOL   H314 9008   2.643   1.502   7.435 -0.0123 -0.7188  1.2120
   28MOL   H315 9009   2.623   1.763   7.427  1.2096 -1.2019 -0.6940
   28MOL   H316 9010   2.758   1.772   7.524 -0.7538  1.3361 -1.1600
   28MOL   H317 9011   2.470   1.661   7.566 -1.2100 -2.8283  3.2170
   28MOL   H318 9012   2.535   1.791   7.659 -0.4629  0.1105 -0.4550
   28MOL   H319 9013   2.580   1.628   7.697 -0.7649 -0.2145 -0.4838
   28MOL   H320 9014   3.057   1.431   7.520  0.3467  0.3165 -1.9533
   28MOL   H321 9015   3.022   1.279   7.451  3.0090  1.6138 -1.3376
   28MOL   H322 9016   2.952   1.416   7.373 -1.0890  0.8190  0.4654
   29MOL     C1 9017   5.215   6.817   3.250  0.3141  0.4581 -0.5157
   29MOL     O2 9018   5.197   6.956   3.271 -0.4714  0.8013  0.1231
   29MOL     C3 9019   5.086   7.007   3.201  1.1934  0.0124 -0.8850
   29MOL     C4 9020   5.057   7.150   3.244 -0.4306  0.6623 -0.2176
   29MOL     C5 9021   5.194   7.227   3.257  0.2325  0.7273  0.2187
   29MOL     C6 9022   5.369   6.791   3.235  0.1495 -0.3276 -0.3447
   29MOL     H7 9023   5.174   6.790   3.153 -0.6931  1.6775 -0.4565
   29MOL     H8 9024   5.107   6.992   3.095  1.4900  0.3987 -0.8797
   29MOL     H9 9025   4.991   6.960   3.224  2.0043 -1.7056 -0.9363
   29MOL    H10 9026   5.011   7.150   3.343 -0.2730 -1.1877 -0.1359
   29MOL    H11 9027   4.992   7.197   3.171 -1.1175 -2.5298 -1.7255
   29MOL    H12 9028   5.172   7.331   3.282  1.1710  0.6568  1.3403
   29MOL    H13 9029   5.251   7.225   3.165 -0.2838  0.9096 -0.1080
   29MOL    H14 9030   5.245   7.180   3.341 -2.4808 -1.0729  0.9278
   29MOL    H15 9031   5.396   6.708   3.170 -0.5933 -0.4999 -0.4368
   29MOL    H16 9032   5.419   6.875   3.188  0.3480  0.2794  0.9166
   29MOL    H17 9033   5.165   6.764   3.331  2.3344 -3.1682 -1.5669
   29MOL    C18 9034   5.436   6.750   3.367  0.3395  0.8859  0.5587
   29MOL    O19 9035   5.408   6.616   3.396  0.0352  0.5280 -0.3374
   29MOL    C20 9036   5.428   6.587   3.535 -0.2829  0.2826 -0.2281
   29MOL    C21 9037   5.426   6.434   3.561 -0.4745  0.8745 -0.1880
   29MOL    C22 9038   5.291   6.373   3.533  0.4734 -0.1123 -0.2696
   29MOL    C23 9039   5.588   6.745   3.347 -0.6058 -0.0537 -0.1773
   29MOL    H24 9040   5.401   6.819   3.444 -0.0828  0.5050  0.7077
   29MOL    H25 9041   5.516   6.632   3.580  0.5383 -0.7267 -0.7967
   29MOL    H26 9042   5.347   6.628   3.595 -0.2430  0.7019 -0.4610
   29MOL    H27 9043   5.455   6.404   3.662 -0.2763  1.3228 -0.1101
   29MOL    H28 9044   5.494   6.387   3.490  1.7258  2.1698  1.0179
   29MOL    H29 9045   5.207   6.410   3.590 -0.3705 -1.3553 -0.6824
   29MOL    H30 9046   5.301   6.264   3.539 -1.2827 -0.2370  0.8308
   29MOL    H31 9047   5.252   6.399   3.435  1.0639 -0.0001 -0.4811
   29MOL    H32 9048   5.637   6.698   3.432 -0.9273 -1.9582 -1.0138
   29MOL    H33 9049   5.596   6.680   3.260 -2.6128  0.8335 -1.0738
   29MOL    C34 9050   5.666   6.879   3.303 -0.1991  0.2611  0.3715
   29MOL    O35 9051   5.636   6.970   3.398  0.5136 -0.1887  0.0803
   29MOL    C36 9052   5.610   7.093   3.347  0.8652 -0.1407  0.2769
   29MOL    C37 9053   5.556   7.185   3.460  0.0166 -0.4178 -0.3197
   29MOL    C38 9054   5.524   7.332   3.414  0.4445 -0.1416  0.4560
   29MOL    C39 9055   5.821   6.874   3.288 -0.0181  0.6128  0.3358
   29MOL    H40 9056   5.638   6.912   3.203 -0.1864 -2.6051 -0.6129
   29MOL    H41 9057   5.696   7.130   3.291  0.1868 -1.6962 -1.8495
   29MOL    H42 9058   5.531   7.087   3.273 -0.8130  1.8614  1.8654
   29MOL    H43 9059   5.637   7.185   3.533  1.7230 -0.0082 -2.1838
   29MOL    H44 9060   5.462   7.152   3.505 -1.0347  1.7178 -0.8904
   29MOL    H45 9061   5.500   7.398   3.497 -0.3060 -1.3573  1.2193
   29MOL    H46 9062   5.432   7.339   3.356  1.1937 -0.2605 -0.7637
   29MOL    H47 9063   5.602   7.366   3.346 -0.2867 -0.4882 -0.5723
   29MOL    H48 9064   5.861   6.965   3.243  1.1466  0.3710  0.8660
   29MOL    H49 9065   5.868   6.855   3.384 -0.3257 -0.5700  0.2569
   29MOL    C50 9066   5.859   6.763   3.188 -0.5604  0.0402  0.4739
   29MOL    O51 9067   5.832   6.813   3.060  0.1480 -0.6389 -0.1172
   29MOL    C52 9068   5.777   6.725   2.966  0.0392  0.1727 -0.2869
   29MOL    C53 9069   5.758   6.813   2.842  0.3364 -0.5730 -0.1515
   29MOL    C54 9070   5.887   6.891   2.808  0.6377 -0.2225 -0.3886
   29MOL    C55 9071   6.015   6.744   3.185 -0.0166 -0.0400  0.2558
   29MOL    H56 9072   5.810   6.669   3.214 -0.9195 -0.1652 -0.9453
   29MOL    H57 9073   5.842   6.638   2.958 -0.0606  0.0248  0.4773
   29MOL    H58 9074   5.678   6.691   2.997 -0.7455  0.7826 -2.0304
   29MOL    H59 9075   5.673   6.878   2.864  1.1008 -0.0170  1.2286
   29MOL    H60 9076   5.726   6.752   2.757 -0.4409  0.6693 -0.7666
   29MOL    H61 9077   5.932   6.962   2.877 -1.6609  0.5886  0.3299
   29MOL    H62 9078   5.844   6.952   2.728 -2.4685 -0.8688  0.6917
   29MOL    H63 9079   5.968   6.828   2.771  0.1533 -0.3973 -1.1647
   29MOL    H64 9080   6.053   6.827   3.126 -0.3314  1.0163  1.5002
   29MOL    H65 9081   6.055   6.771   3.283 -1.6814  0.5424  0.7953
   29MOL    C66 9082   6.063   6.598   3.147 -0.3485 -0.0255 -0.7915
   29MOL    O67 9083   6.182   6.610   3.078  0.3590  0.0687 -0.0048
   29MOL    C68 9084   6.215   6.495   2.997  0.3397 -0.6203 -0.1623
   29MOL    C69 9085   6.361   6.524   2.959  0.4862 -0.2838  0.1413
   29MOL    C70 9086   6.462   6.482   3.069  0.0032  0.0134 -0.6925
   29MOL    C71 9087   6.077   6.512   3.272 -0.0375  0.4619  0.7422
   29MOL    H72 9088   5.989   6.558   3.077 -2.5056 -0.4527  1.6374
   29MOL    H73 9089   6.211   6.403   3.056  0.5266 -1.0457 -0.8020
   29MOL    H74 9090   6.141   6.485   2.918 -0.0740 -0.5389  0.2162
   29MOL    H75 9091   6.377   6.630   2.938 -0.0180 -0.0190  1.0434
   29MOL    H76 9092   6.387   6.485   2.861  0.0211 -0.8384  0.2381
   29MOL    H77 9093   6.444   6.529   3.165  0.2998 -1.0188 -0.1291
   29MOL    H78 9094   6.565   6.512   3.049 -0.1045  0.7457 -0.1906
   29MOL    H79 9095   6.477   6.375   3.080 -1.2335 -0.1617 -0.6985
   29MOL    H80 9096   6.124   6.417   3.243  0.1560  1.7333 -3.4174
   29MOL    H81 9097   6.141   6.563   3.345  0.6598 -0.0131  0.4725
   29MOL    C82 9098   5.954   6.465   3.351  0.1939 -0.0105 -0.4528
   29MOL    O83 9099   5.890   6.375   3.263  0.2193 -0.1928  0.4801
   29MOL    C84 9100   5.748   6.374   3.281  0.6477  0.0607 -0.5835
   29MOL    C85 9101   5.688   6.270   3.185  0.7878  0.0011 -0.3891
   29MOL    C86 9102   5.536   6.250   3.201  0.5336  0.3485 -0.5096
   29MOL    C87 9103   5.978   6.403   3.490 -0.9031 -0.3447 -0.2135
   29MOL    H88 9104   5.889   6.549   3.371 -0.0435 -0.6054  1.3327
   29MOL    H89 9105   5.724   6.352   3.385  2.0904  0.4459 -0.1622
   29MOL    H90 9106   5.706   6.472   3.257  1.5884  0.7272  0.4442
   29MOL    H91 9107   5.748   6.180   3.195  1.1881  0.3981  0.8900
   29MOL    H92 9108   5.704   6.300   3.081 -1.4487  0.6752 -0.5872
   29MOL    H93 9109   5.492   6.214   3.108 -2.1742  0.1951  0.7698
   29MOL    H94 9110   5.477   6.336   3.232 -0.0218 -0.5548  1.0066
   29MOL    H95 9111   5.526   6.168   3.272 -2.2202  1.3978  0.3680
   29MOL    H96 9112   5.885   6.359   3.529 -1.2849  1.9550  1.6021
   29MOL    H97 9113   6.042   6.315   3.482  0.8458  1.0372 -1.7725
   29MOL    C98 9114   6.045   6.489   3.608 -0.0075  0.1464 -0.6251
   29MOL    O99 9115   6.177   6.534   3.574 -0.8101 -0.0271  0.4640
   29MOL   C100 9116   6.277   6.460   3.630 -0.6426  0.1934  0.5089
   29MOL   C101 9117   6.407   6.533   3.590  0.4692 -1.0575 -0.2528
   29MOL   C102 9118   6.420   6.669   3.651 -0.2539 -0.3608  0.5920
   29MOL   C103 9119   5.958   6.622   3.624  0.5252 -0.1215  0.3528
   29MOL   H104 9120   6.051   6.432   3.701  1.4121  1.4843  0.1160
   29MOL   H105 9121   6.264   6.450   3.738 -0.8551 -0.7657  0.3987
   29MOL   H106 9122   6.285   6.358   3.591 -2.6287 -0.0622  0.6791
   29MOL   H107 9123   6.419   6.522   3.482  0.0976 -2.6688 -0.1453
   29MOL   H108 9124   6.493   6.474   3.621 -0.8491 -3.0779 -0.2639
   29MOL   H109 9125   6.426   6.654   3.759 -0.3706 -0.2289  0.6175
   29MOL   H110 9126   6.339   6.736   3.624 -1.6144 -1.3744  2.0246
   29MOL   H111 9127   6.510   6.715   3.612 -0.5227  2.3974  3.0491
   29MOL   H112 9128   5.991   6.705   3.561 -0.6925 -0.2334 -0.4403
   29MOL   H113 9129   5.857   6.589   3.602 -0.1244  1.9963  0.0315
   29MOL   C114 9130   5.951   6.671   3.767  0.1384  0.5016 -0.2042
   29MOL   O115 9131   5.886   6.568   3.851  0.3428 -0.7500  0.0594
   29MOL   C116 9132   5.745   6.592   3.869 -0.3113 -0.1514 -0.1424
   29MOL   C117 9133   5.690   6.489   3.965  0.0912 -0.5828  0.5635
   29MOL   C118 9134   5.743   6.526   4.106 -0.5903 -0.0614 -0.7132
   29MOL   C119 9135   6.087   6.717   3.830 -0.1461 -0.0283  0.1702
   29MOL   H120 9136   5.897   6.765   3.764 -0.8015 -0.0238 -0.0046
   29MOL   H121 9137   5.714   6.689   3.906 -1.3307 -0.2166 -0.7960
   29MOL   H122 9138   5.693   6.578   3.774 -0.1388 -2.2803  0.0413
   29MOL   H123 9139   5.713   6.388   3.930  1.7175  0.7535 -2.3573
   29MOL   H124 9140   5.582   6.498   3.957 -0.0702 -1.1476  1.9302
   29MOL   H125 9141   5.851   6.527   4.112 -0.5281 -1.2221 -1.4421
   29MOL   H126 9142   5.699   6.466   4.186 -0.8105 -0.4286 -1.1040
   29MOL   H127 9143   5.712   6.629   4.123 -1.0858 -0.1464 -1.0771
   29MOL   H128 9144   6.150   6.629   3.840 -1.8552 -1.1221  1.6221
   29MOL   H129 9145   6.133   6.789   3.762 -1.9146 -0.6397 -1.6877
   29MOL   C130 9146   6.078   6.776   3.973 -0.8727 -0.1870 -0.0210
   29MOL   O131 9147   6.221   6.779   4.017  0.6482  0.4675  0.1112
   29MOL   C132 9148   6.263   6.694   4.127  0.2381 -0.9536  0.4770
   29MOL   C133 9149   6.394   6.755   4.192  0.0788 -0.2002  0.2007
   29MOL   C134 9150   6.367   6.876   4.272 -0.6777  1.0459  0.0176
   29MOL   C135 9151   6.016   6.915   3.977 -0.2631 -0.7917 -0.9829
   29MOL   H136 9152   6.023   6.710   4.041 -0.4154 -2.3654 -1.6988
   29MOL   H137 9153   6.178   6.677   4.193  1.1103 -2.3782  1.2654
   29MOL   H138 9154   6.269   6.592   4.089 -1.1362 -0.6120 -0.6825
   29MOL   H139 9155   6.457   6.784   4.108  0.0003 -1.3686 -0.2704
   29MOL   H140 9156   6.441   6.682   4.258 -0.5849  0.6653  1.6543
   29MOL   H141 9157   6.459   6.914   4.317 -0.6664  0.0079  0.8784
   29MOL   H142 9158   6.290   6.856   4.346  0.4422 -3.0322  0.2196
   29MOL   H143 9159   6.335   6.953   4.202 -2.0905  1.0716  0.6684
   29MOL   H144 9160   6.093   6.978   3.931  2.0809 -0.0020  3.7224
   29MOL   H145 9161   5.928   6.931   3.915 -0.7201  1.2387  0.1693
   29MOL   C146 9162   5.983   6.983   4.117  0.4643  0.4157  0.1358
   29MOL   O147 9163   5.888   7.090   4.089  0.1981 -0.4704  0.0931
   29MOL   C148 9164   5.932   7.219   4.122  0.1415  0.4432 -0.3197
   29MOL   C149 9165   5.829   7.334   4.083  0.1239  0.0095  0.6982
   29MOL   C150 9166   5.713   7.334   4.186 -0.8345  0.2342 -0.8435
   29MOL   C151 9167   5.910   6.890   4.212 -0.4652  0.3454 -0.1023
   29MOL   H152 9168   6.079   7.014   4.158  1.0801 -2.1537  0.7411
   29MOL   H153 9169   5.956   7.232   4.227 -0.1355  2.4106 -0.4835
   29MOL   H154 9170   6.030   7.236   4.078  0.0585 -0.0369 -0.7017
   29MOL   H155 9171   5.792   7.325   3.980  2.4622 -1.1703 -0.0737
   29MOL   H156 9172   5.882   7.429   4.071  1.3611 -0.8579 -1.0441
   29MOL   H157 9173   5.759   7.378   4.274  0.3680 -1.3570 -0.6570
   29MOL   H158 9174   5.698   7.230   4.215 -0.2162  1.0814  2.6435
   29MOL   H159 9175   5.621   7.380   4.151 -0.0723  1.5993 -1.0724
   29MOL   H160 9176   5.825   6.842   4.164  0.0987 -3.3050  2.2771
   29MOL   H161 9177   5.972   6.801   4.228 -1.0278  0.1953  1.3522
   29MOL   C162 9178   5.879   6.953   4.348  0.2589  0.1885 -0.2031
   29MOL   O163 9179   5.827   6.849   4.430 -0.2718  0.3390 -0.0444
   29MOL   C164 9180   5.690   6.831   4.436  0.5086 -0.0534 -0.0922
   29MOL   C165 9181   5.664   6.729   4.556 -0.3008 -0.5590  0.1975
   29MOL   C166 9182   5.719   6.590   4.532 -0.1369 -0.3258 -0.4948
   29MOL   C167 9183   6.001   7.009   4.428 -0.1732 -0.6417 -0.2598
   29MOL   H168 9184   5.819   7.043   4.329  0.5138  0.3275 -0.3520
   29MOL   H169 9185   5.651   6.931   4.457  0.4719  0.1458 -1.0877
   29MOL   H170 9186   5.642   6.810   4.341  0.8586 -1.5439  0.0533
   29MOL   H171 9187   5.556   6.731   4.567 -0.1738  1.4072  1.2886
   29MOL   H172 9188   5.695   6.776   4.649 -0.9689  2.5331 -1.0832
   29MOL   H173 9189   5.827   6.600   4.528 -0.1455 -0.3894 -0.8614
   29MOL   H174 9190   5.667   6.544   4.448 -1.5389  0.3163 -0.0028
   29MOL   H175 9191   5.707   6.521   4.615  1.8202 -1.5394 -1.2044
   29MOL   H176 9192   6.067   6.924   4.441  1.7991  0.5094 -2.4557
   29MOL   H177 9193   6.048   7.082   4.363 -1.8974 -0.5688 -1.4529
   29MOL   C178 9194   5.954   7.070   4.565 -0.3745 -0.5262  0.4275
   29MOL   O179 9195   6.073   7.108   4.630 -0.1295 -0.4027  0.1103
   29MOL   C180 9196   6.142   6.994   4.693 -0.2586 -0.4415  0.6475
   29MOL   C181 9197   6.291   7.031   4.725  0.8612 -0.0195 -0.4987
   29MOL   C182 9198   6.291   7.118   4.850 -0.1671 -0.6209  0.1567
   29MOL   C183 9199   5.875   7.203   4.543  0.1203  0.6139  0.2038
   29MOL   H184 9200   5.892   7.001   4.620 -0.2809 -0.1803  0.9725
   29MOL   H185 9201   6.099   6.968   4.790  0.9654 -2.9628  0.5329
   29MOL   H186 9202   6.139   6.905   4.631 -1.8688  1.3247 -1.9070
   29MOL   H187 9203   6.342   7.078   4.641 -2.1997  3.4588 -0.5659
   29MOL   H188 9204   6.351   6.943   4.747  0.3560 -0.4251 -0.7375
   29MOL   H189 9205   6.230   7.207   4.836 -0.5752 -0.4036  3.0559
   29MOL   H190 9206   6.396   7.148   4.858  0.3890 -2.3153 -0.5941
   29MOL   H191 9207   6.256   7.070   4.941 -0.8952  3.3157  2.0231
   29MOL   H192 9208   5.930   7.253   4.463 -2.5128  0.5595 -1.7091
   29MOL   H193 9209   5.781   7.178   4.493  0.9815 -1.4322 -0.4591
   29MOL   C194 9210   5.839   7.284   4.673  0.5652 -0.3543 -0.3044
   29MOL   O195 9211   5.766   7.405   4.635  0.2530  0.0800  0.5613
   29MOL   C196 9212   5.861   7.519   4.613  0.4530 -0.2172 -0.1054
   29MOL   C197 9213   5.791   7.653   4.555  0.5061  0.1534 -0.2242
   29MOL   C198 9214   5.748   7.640   4.415 -0.1081  0.1372  0.0753
   29MOL   C199 9215   5.757   7.202   4.776 -0.4898 -0.6336 -0.3194
   29MOL   H200 9216   5.934   7.299   4.725 -0.5203 -0.1600  1.6686
   29MOL   H201 9217   5.916   7.532   4.706 -0.4350  1.7521  0.1771
   29MOL   H202 9218   5.938   7.479   4.548  0.1211 -2.0024  0.5761
   29MOL   H203 9219   5.871   7.727   4.557  0.0858  0.5872  0.8748
   29MOL   H204 9220   5.704   7.680   4.614 -1.4391 -2.8566 -1.6128
   29MOL   H205 9221   5.646   7.603   4.411  0.4375 -1.4717  0.8965
   29MOL   H206 9222   5.820   7.585   4.354 -0.3273  0.9056 -0.8884
   29MOL   H207 9223   5.738   7.746   4.389  0.1955  0.3066  0.6365
   29MOL   H208 9224   5.656   7.187   4.738 -0.7277  2.3115 -0.9078
   29MOL   H209 9225   5.801   7.102   4.779  0.5466 -0.4087 -4.7804
   29MOL   C210 9226   5.739   7.257   4.922 -0.3903 -0.3081  0.2893
   29MOL   O211 9227   5.862   7.256   4.977 -0.4248  0.1421 -0.3355
   29MOL   C212 9228   5.876   7.255   5.118  0.5650  0.0538 -0.8128
   29MOL   C213 9229   6.010   7.208   5.167  0.8925  1.3487  0.6848
   29MOL   C214 9230   6.023   7.061   5.167  0.0860  0.4694 -0.5216
   29MOL   C215 9231   5.685   7.394   4.937  0.4483  0.1418 -0.3435
   29MOL   H216 9232   5.682   7.186   4.982  0.4259 -1.9375 -0.8038
   29MOL   H217 9233   5.868   7.357   5.156 -0.1342 -0.1313 -0.4523
   29MOL   H218 9234   5.792   7.197   5.156  1.7883 -0.0427  1.8191
   29MOL   H219 9235   6.017   7.246   5.269 -1.8841 -0.7932  1.7392
   29MOL   H220 9236   6.088   7.242   5.099  0.1629  0.7445 -0.4801
   29MOL   H221 9237   6.072   7.044   5.072  0.1785  2.3073 -0.8084
   29MOL   H222 9238   5.927   7.010   5.178  1.0595 -1.8858 -2.6561
   29MOL   H223 9239   6.095   7.036   5.245  0.3954  1.4660 -0.4893
   29MOL   H224 9240   5.667   7.405   5.044  0.6229 -0.3252 -0.2629
   29MOL   H225 9241   5.761   7.465   4.905  1.0189 -0.2717  0.0711
   29MOL   C226 9242   5.554   7.418   4.862 -0.5556  0.8318  0.0950
   29MOL   O227 9243   5.451   7.373   4.943 -0.4046 -0.4183  0.0622
   29MOL   C228 9244   5.380   7.279   4.876  0.2668 -0.0949 -0.2555
   29MOL   C229 9245   5.268   7.227   4.977 -0.0844 -0.0902  0.1043
   29MOL   C230 9246   5.166   7.336   5.023 -0.5905  0.1132  0.8096
   29MOL   C231 9247   5.523   7.568   4.857 -0.0216  0.1159  0.0710
   29MOL   H232 9248   5.567   7.374   4.763  2.9121 -0.1246  0.9063
   29MOL   H233 9249   5.330   7.321   4.788  0.7554  2.2726  0.5566
   29MOL   H234 9250   5.437   7.193   4.840 -0.2846 -1.6765  2.5060
   29MOL   H235 9251   5.315   7.192   5.070 -1.3897 -2.4821 -0.1042
   29MOL   H236 9252   5.224   7.143   4.924 -0.3560  1.2028 -1.7705
   29MOL   H237 9253   5.225   7.424   5.046 -1.6226  1.1277 -0.3885
   29MOL   H238 9254   5.102   7.318   5.110 -1.1654  2.9363  1.0313
   29MOL   H239 9255   5.102   7.366   4.940 -0.5976  0.2721  0.8721
   29MOL   H240 9256   5.501   7.598   4.959  0.2432 -0.2572  0.2406
   29MOL   H241 9257   5.609   7.619   4.813 -0.7685  1.8408  0.5929
   29MOL   C242 9258   5.392   7.606   4.773 -0.4406 -0.0124  0.6625
   29MOL   O243 9259   5.373   7.751   4.780 -0.2740  0.1122  0.3397
   29MOL   C244 9260   5.338   7.799   4.908  0.1481  0.5870  0.1935
   29MOL   C245 9261   5.319   0.117   4.913 -0.7045 -0.1814  0.9120
   29MOL   C246 9262   5.337   0.168   5.062  0.1655  0.1512  0.1468
   29MOL   C247 9263   5.405   7.568   4.621  0.1671 -0.0721  0.3614
   29MOL   H248 9264   5.311   7.550   4.821 -1.2514 -1.0616 -1.8533
   29MOL   H249 9265   5.242   7.763   4.945 -0.6053 -0.0660 -2.2885
   29MOL   H250 9266   5.407   7.775   4.988 -0.5326 -0.4432  0.4864
   29MOL   H251 9267   5.224   0.149   4.871 -0.8238 -1.4383  0.1829
   29MOL   H252 9268   5.403   0.158   4.856 -0.4619  2.5791  3.1530
   29MOL   H253 9269   5.255   0.140   5.127 -0.4944  1.2819 -0.1821
   29MOL   H254 9270   5.338   0.277   5.070 -0.3780  0.1726 -0.0671
   29MOL   H255 9271   5.438   0.143   5.096 -0.3674 -1.6253  0.4718
   29MOL   H256 9272   5.488   7.626   4.581 -2.3765  1.9722 -2.1573
   29MOL   H257 9273   5.435   7.463   4.615  0.9633  0.1396  0.4834
   29MOL   C258 9274   5.276   7.582   4.538  0.6438  0.3460  0.0072
   29MOL   O259 9275   5.315   7.553   4.399 -0.5558 -0.0127 -0.1090
   29MOL   C260 9276   5.340   7.665   4.310  0.5782  0.0966  1.0530
   29MOL   C261 9277   5.420   7.621   4.190 -0.0987 -0.5449  0.3944
   29MOL   C262 9278   5.350   7.500   4.116 -0.4419  0.0073 -0.0522
   29MOL   C263 9279   5.161   7.486   4.578 -0.1691 -0.8058  0.2846
   29MOL   H264 9280   5.246   7.686   4.553 -1.8905 -0.5137  1.1814
   29MOL   H265 9281   5.242   7.695   4.272  1.9600  0.2468 -2.5702
   29MOL   H266 9282   5.390   7.752   4.353  0.1631  2.2064 -2.4771
   29MOL   H267 9283   5.523   7.588   4.202  0.0445  0.3829  1.6908
   29MOL   H268 9284   5.424   7.701   4.116  0.5624  1.0357  2.1273
   29MOL   H269 9285   5.252   7.538   4.087 -0.2273  0.9142  0.4050
   29MOL   H270 9286   5.339   7.412   4.179 -0.1789 -1.9917 -2.7125
   29MOL   H271 9287   5.407   7.470   4.028 -1.8416  0.3541 -1.0895
   29MOL   H272 9288   5.195   7.383   4.569  0.3460 -0.8013  2.0905
   29MOL   H273 9289   5.126   7.514   4.677  0.3343 -0.0839  0.2650
   29MOL   C274 9290   5.040   7.501   4.486 -0.0148 -0.5368 -0.0145
   29MOL   O275 9291   4.952   7.387   4.497  0.4132 -0.1021 -0.1312
   29MOL   C276 9292   4.988   7.272   4.427  0.4648 -0.1418 -1.1335
   29MOL   C277 9293   5.013   7.157   4.518 -0.0311  0.3437  0.1484
   29MOL   C278 9294   4.915   7.134   4.638 -0.1908 -0.3536 -0.4277
   29MOL   C279 9295   4.946   7.622   4.504 -0.2866 -0.5840  0.0061
   29MOL   H280 9296   5.076   7.499   4.383 -1.4592 -0.1665 -0.5387
   29MOL   H281 9297   4.899   7.247   4.369 -0.6488 -0.9729  0.8712
   29MOL   H282 9298   5.074   7.276   4.360  1.7755  0.8069  0.5753
   29MOL   H283 9299   5.111   7.172   4.563  0.4509  0.8473 -1.0548
   29MOL   H284 9300   5.020   7.070   4.453 -1.1455  1.7372 -1.8598
   29MOL   H285 9301   4.835   7.072   4.599  0.1628 -0.6660 -0.6558
   29MOL   H286 9302   4.897   7.228   4.690  1.4117  0.2038 -0.8345
   29MOL   H287 9303   4.957   7.063   4.710 -2.7395 -1.1783  0.3048
   29MOL   H288 9304   4.915   7.609   4.608  0.2901  1.7356  0.4938
   29MOL   H289 9305   5.005   7.713   4.499 -1.0949 -0.0312  0.4031
   29MOL   C290 9306   4.815   7.639   4.417  0.0574 -0.5845 -0.6161
   29MOL   O291 9307   4.754   7.766   4.455  0.4069  0.2077 -0.1062
   29MOL   C292 9308   4.634   7.731   4.527  1.5337 -0.4171 -0.1139
   29MOL   C293 9309   4.572   0.044   4.557  0.2125 -0.3137  0.3542
   29MOL   C294 9310   4.562   0.137   4.432 -0.0271 -0.2278  0.1460
   29MOL   C295 9311   4.869   7.655   4.279  0.0047  0.1684  0.0672
   29MOL   H296 9312   4.754   7.549   4.430 -1.1052  0.0348 -1.7173
   29MOL   H297 9313   4.561   7.685   4.460 -2.9096  1.6133  3.0377
   29MOL   H298 9314   4.653   7.671   4.616 -0.4898 -0.1811  0.5164
   29MOL   H299 9315   4.646   0.077   4.630 -0.3055  2.0350 -0.1364
   29MOL   H300 9316   4.484   0.036   4.621 -0.2664  0.0825 -0.2547
   29MOL   H301 9317   4.515   0.226   4.475 -0.3209 -0.6250  0.6461
   29MOL   H302 9318   4.495   0.112   4.350  0.2367  0.2351 -0.2161
   29MOL   H303 9319   4.658   0.155   4.384  0.5378 -0.4073  1.1945
   29MOL   H304 9320   4.931   7.744   4.271 -0.6409  0.5663 -0.6150
   29MOL   H305 9321   4.922   7.566   4.245 -0.7621  0.4954 -2.0619
   29MOL   C306 9322   4.752   7.679   4.187 -0.0750  0.2658 -0.7538
   29MOL   O307 9323   4.828   7.707   4.071 -0.4008  0.6030  0.3376
   29MOL   C308 9324   4.782   0.003   4.019 -0.3767 -0.1722 -0.0696
   29MOL   C309 9325   4.817   0.011   3.871 -0.1393  0.1443  0.2158
   29MOL   C310 9326   4.757   7.728   3.789 -0.3474 -0.2595 -0.4637
   29MOL   C311 9327   4.669   7.555   4.158 -0.0357  0.2618 -0.1751
   29MOL   H312 9328   4.698   7.762   4.231  2.1732  0.2097  2.2850
   29MOL   H313 9329   4.674   0.006   4.009 -0.2378 -1.7857 -2.8390
   29MOL   H314 9330   4.830   0.083   4.075  0.7023 -1.9342  1.5737
   29MOL   H315 9331   4.925   0.013   3.856 -0.4118 -0.5317 -1.9176
   29MOL   H316 9332   4.783   0.110   3.840  2.0367  1.3178  1.3835
   29MOL   H317 9333   4.779   7.720   3.683  0.3865 -2.9491 -0.1641
   29MOL   H318 9334   4.648   7.733   3.785 -0.4967  0.3192  2.6740
   29MOL   H319 9335   4.785   7.633   3.836 -0.8505  0.9777  2.4700
   29MOL   H320 9336   4.723   7.466   4.125  0.0550  0.5825 -0.8984
   29MOL   H321 9337   4.618   7.522   4.249 -0.5876 -0.1063 -0.6108
   29MOL   H322 9338   4.599   7.577   4.077  0.1484 -0.6769 -0.6059
   30MOL     C1 9339   3.623   4.836   1.467 -0.0649 -0.4701 -0.0548
   30MOL     O2 9340   3.487   4.862   1.506 -0.2148 -0.4733  0.0117
   30MOL     C3 9341   3.403   4.773   1.460  0.1545  0.5158  0.0230
   30MOL     C4 9342   3.257   4.788   1.504 -0.3002 -0.1887  0.8662
   30MOL     C5 9343   3.194   4.926   1.470 -0.0101  0.1979 -0.2545
   30MOL     C6 9344   3.705   4.947   1.522 -0.0127  0.1206 -0.2949
   30MOL     H7 9345   3.631   4.845   1.359 -0.0333 -1.2379 -0.1251
   30MOL     H8 9346   3.397   4.775   1.351 -2.8215  0.4593  0.1331
   30MOL     H9 9347   3.443   4.676   1.491  0.2687  0.0788 -1.4673
   30MOL    H10 9348   3.246   4.763   1.610  0.0694 -0.4955  0.8319
   30MOL    H11 9349   3.208   4.705   1.453  2.4726 -0.7825 -0.9027
   30MOL    H12 9350   3.252   5.009   1.509  0.9417 -0.7702  0.4034
   30MOL    H13 9351   3.096   4.931   1.517 -1.0503  2.2768 -2.5066
   30MOL    H14 9352   3.184   4.942   1.362 -4.9204 -0.1350 -0.0046
   30MOL    H15 9353   3.805   4.928   1.484 -0.3242 -1.4135 -0.3806
   30MOL    H16 9354   3.663   5.035   1.474 -0.0607 -0.3285 -1.0755
   30MOL    H17 9355   3.642   4.732   1.497  1.7667  0.2560  1.3871
   30MOL    C18 9356   3.708   4.960   1.680 -0.0114 -0.1239 -0.1672
   30MOL    O19 9357   3.741   4.834   1.736 -0.3002  0.2858  0.3089
   30MOL    C20 9358   3.655   4.786   1.835 -0.3253  0.2120 -0.0486
   30MOL    C21 9359   3.665   4.873   1.965 -0.2596 -0.1442  0.0426
   30MOL    C22 9360   3.590   4.821   2.079 -1.0175  0.2985 -0.1056
   30MOL    C23 9361   3.798   5.073   1.727 -0.0722 -0.4865 -0.2416
   30MOL    H24 9362   3.606   4.983   1.712  0.2463 -3.4224  3.3179
   30MOL    H25 9363   3.556   4.776   1.793 -0.1163  1.0670 -0.7420
   30MOL    H26 9364   3.687   4.684   1.858 -0.8238 -0.0612 -0.5798
   30MOL    H27 9365   3.649   4.979   1.944 -3.0208 -0.0132  2.5181
   30MOL    H28 9366   3.770   4.887   1.991 -0.1178  0.0814 -0.6378
   30MOL    H29 9367   3.623   4.721   2.106 -0.2644  0.7050  0.5114
   30MOL    H30 9368   3.481   4.828   2.076 -0.9554  0.6515 -2.0987
   30MOL    H31 9369   3.604   4.881   2.169 -0.0422 -0.9197  0.5698
   30MOL    H32 9370   3.812   5.084   1.835 -0.5167 -1.6136 -0.0700
   30MOL    H33 9371   3.895   5.030   1.702  0.3826  1.0495 -1.2007
   30MOL    C34 9372   3.783   5.209   1.666  0.9408 -0.7388  0.4580
   30MOL    O35 9373   3.651   5.247   1.694  0.3877 -0.4622  0.5253
   30MOL    C36 9374   3.556   5.250   1.589 -0.2194 -0.0922  0.0224
   30MOL    C37 9375   3.452   5.357   1.625 -0.1744  0.0738 -0.1902
   30MOL    C38 9376   3.363   5.381   1.510 -0.5154 -0.3996 -0.2309
   30MOL    C39 9377   3.877   5.317   1.723  0.4927 -0.0425 -0.1384
   30MOL    H40 9378   3.793   5.193   1.558 -0.4770 -3.0306  0.6351
   30MOL    H41 9379   3.594   5.280   1.492 -0.6585  1.7675  0.4097
   30MOL    H42 9380   3.503   5.155   1.587 -4.8057  2.2656  2.1222
   30MOL    H43 9381   3.499   5.446   1.665  0.9146 -0.5144 -0.1332
   30MOL    H44 9382   3.392   5.309   1.703  0.2444  0.7119  0.5345
   30MOL    H45 9383   3.349   5.286   1.457  1.7879 -2.3038  2.3934
   30MOL    H46 9384   3.407   5.443   1.432 -1.7634  3.3121  1.9360
   30MOL    H47 9385   3.269   5.422   1.545  0.8454  1.4286  1.3769
   30MOL    H48 9386   3.877   5.312   1.832 -0.0156 -2.3472 -0.2312
   30MOL    H49 9387   3.979   5.291   1.693 -0.6297 -1.5867 -2.8193
   30MOL    C50 9388   3.840   5.467   1.701  0.0908 -0.1790 -0.4418
   30MOL    O51 9389   3.882   5.542   1.814  0.6276 -0.0683 -0.0555
   30MOL    C52 9390   3.781   5.578   1.904  0.2847 -0.0395  0.7258
   30MOL    C53 9391   3.844   5.644   2.026  0.3247 -0.1373  0.2966
   30MOL    C54 9392   3.900   5.781   1.993  0.4283  0.9824 -0.3274
   30MOL    C55 9393   3.890   5.536   1.578  0.0557  0.1258 -0.2037
   30MOL    H56 9394   3.731   5.470   1.696  0.0709  0.2253  0.2809
   30MOL    H57 9395   3.709   5.640   1.850  0.4821 -2.1191 -2.0255
   30MOL    H58 9396   3.732   5.485   1.932  0.6268 -0.6896 -0.7923
   30MOL    H59 9397   3.917   5.574   2.067 -0.3680 -0.1427  1.5539
   30MOL    H60 9398   3.775   5.669   2.107  0.8441  2.8608 -0.1250
   30MOL    H61 9399   3.964   5.817   2.074 -0.5383  0.3954  0.7200
   30MOL    H62 9400   3.817   5.850   1.990 -1.9659 -1.7103  1.2393
   30MOL    H63 9401   3.965   5.782   1.906 -1.7063 -2.1976 -2.0558
   30MOL    H64 9402   3.993   5.555   1.606  0.2504 -0.0999 -0.7639
   30MOL    H65 9403   3.900   5.472   1.491  0.0136 -0.9407  0.5715
   30MOL    C66 9404   3.824   5.666   1.533  0.0570 -0.2311 -0.0481
   30MOL    O67 9405   3.921   5.749   1.467 -0.0356 -0.2719  0.0861
   30MOL    C68 9406   3.977   5.861   1.534 -0.2494  0.3173  0.3113
   30MOL    C69 9407   4.068   5.942   1.432 -0.3441 -0.2416 -0.6820
   30MOL    C70 9408   4.195   5.863   1.428  0.1842 -0.2004  0.0009
   30MOL    C71 9409   3.698   5.637   1.455 -0.1741 -0.6696 -0.2627
   30MOL    H72 9410   3.803   5.725   1.622 -0.7502  0.6439 -0.8078
   30MOL    H73 9411   3.887   5.919   1.549 -1.5813 -0.8225 -2.8987
   30MOL    H74 9412   4.023   5.845   1.632 -2.2417 -0.8133  1.0779
   30MOL    H75 9413   4.083   6.046   1.460 -2.6998  0.4362 -1.8485
   30MOL    H76 9414   4.019   5.957   1.336 -1.6123  0.2598  0.0366
   30MOL    H77 9415   4.178   5.758   1.402 -0.9761  0.2959 -1.2827
   30MOL    H78 9416   4.231   5.843   1.529  4.6076 -0.3603 -1.4970
   30MOL    H79 9417   4.275   5.902   1.366 -0.8679 -0.8486 -1.8125
   30MOL    H80 9418   3.734   5.609   1.356 -0.7130  1.5381 -1.1000
   30MOL    H81 9419   3.649   5.551   1.502  0.0624 -0.2501  0.7724
   30MOL    C82 9420   3.578   5.734   1.448  0.0463 -0.0742  0.6594
   30MOL    O83 9421   3.489   5.684   1.346 -0.0756  0.1884 -0.4089
   30MOL    C84 9422   3.383   5.766   1.302  0.0544  0.0801 -0.5912
   30MOL    C85 9423   3.401   5.787   1.153  0.0102  0.1884 -0.4851
   30MOL    C86 9424   3.524   5.850   1.090  0.8829 -0.0214 -0.4841
   30MOL    C87 9425   3.497   5.763   1.577  0.2956  0.4563  0.4252
   30MOL    H88 9426   3.623   5.828   1.416  2.9827 -1.7803 -0.4461
   30MOL    H89 9427   3.288   5.715   1.314 -0.4992  0.7113 -2.1413
   30MOL    H90 9428   3.380   5.866   1.347  0.3182  0.4603 -1.4097
   30MOL    H91 9429   3.313   5.844   1.126  1.7064  2.5816 -1.1415
   30MOL    H92 9430   3.388   5.696   1.093 -2.6904  0.4991 -0.3987
   30MOL    H93 9431   3.514   5.882   0.987  0.9373  1.8096  0.0520
   30MOL    H94 9432   3.597   5.772   1.108  0.9501  0.7607  3.2489
   30MOL    H95 9433   3.556   5.939   1.146  0.4652  0.3437 -0.8177
   30MOL    H96 9434   3.397   5.728   1.551  0.9446 -0.2400 -1.1905
   30MOL    H97 9435   3.533   5.693   1.652  1.6925 -0.2171 -0.8435
   30MOL    C98 9436   3.496   5.913   1.630 -0.5578  0.3723 -0.2757
   30MOL    O99 9437   3.427   5.913   1.755 -0.3896 -0.3103 -1.1092
   30MOL   C100 9438   3.288   5.896   1.748  0.3027 -0.1877  0.1709
   30MOL   C101 9439   3.235   5.969   1.871 -0.4709 -0.0149 -0.2969
   30MOL   C102 9440   3.303   5.937   2.003 -0.0206  0.2101  0.5403
   30MOL   C103 9441   3.634   5.969   1.657  0.3237  0.7166  0.1331
   30MOL   H104 9442   3.445   5.984   1.564 -1.3851 -0.7635 -0.8931
   30MOL   H105 9443   3.251   5.936   1.654  1.6820 -0.6575 -0.5750
   30MOL   H106 9444   3.260   5.791   1.758  1.8646 -0.4928  1.6286
   30MOL   H107 9445   3.129   5.943   1.878 -0.2527 -1.4214 -1.8700
   30MOL   H108 9446   3.223   6.076   1.858  1.2444  0.5297  2.3559
   30MOL   H109 9447   3.274   6.005   2.083  1.2152  1.6609 -0.2425
   30MOL   H110 9448   3.410   5.955   1.992 -0.0441 -0.0465 -0.1509
   30MOL   H111 9449   3.291   5.832   2.028 -0.4269 -0.2568 -1.4741
   30MOL   H112 9450   3.680   5.905   1.733  0.3014 -0.1004 -0.5345
   30MOL   H113 9451   3.690   5.966   1.564 -2.2495 -1.7905 -1.4063
   30MOL   C114 9452   3.643   6.112   1.721  0.1301 -0.0042  0.2316
   30MOL   O115 9453   3.783   6.139   1.721 -0.4893 -0.2593  0.4460
   30MOL   C116 9454   3.832   6.224   1.828 -0.0255  0.3608 -0.4568
   30MOL   C117 9455   3.982   6.230   1.821 -0.2468 -0.3810  0.0478
   30MOL   C118 9456   4.064   6.101   1.823 -0.1315  0.7544 -0.5661
   30MOL   C119 9457   3.577   6.217   1.628  0.7106 -0.2166 -0.5216
   30MOL   H120 9458   3.606   6.088   1.820  0.1171 -2.7561 -0.3934
   30MOL   H121 9459   3.794   6.325   1.812 -1.3010  0.0687  0.6376
   30MOL   H122 9460   3.798   6.195   1.928  1.0000  2.7610  0.6212
   30MOL   H123 9461   4.016   6.305   1.892 -1.3063  0.0856  0.0662
   30MOL   H124 9462   4.003   6.272   1.723  0.1246  0.2809  0.4047
   30MOL   H125 9463   4.078   6.074   1.927 -3.1694  1.6377  0.1080
   30MOL   H126 9464   4.165   6.119   1.785  0.7104  1.1642  1.7646
   30MOL   H127 9465   4.035   6.017   1.760 -0.5432 -1.0637  1.9867
   30MOL   H128 9466   3.472   6.194   1.649  0.7987  0.0920  0.2642
   30MOL   H129 9467   3.609   6.308   1.677 -2.4562  0.9848 -0.5581
   30MOL   C130 9468   3.609   6.221   1.473 -0.5620 -0.2354 -0.0420
   30MOL   O131 9469   3.548   6.336   1.421  0.5977  0.5230 -0.0488
   30MOL   C132 9470   3.410   6.330   1.383  0.3575  0.5912  1.0349
   30MOL   C133 9471   3.331   6.463   1.390 -0.1590 -0.3212 -0.1309
   30MOL   C134 9472   3.393   6.573   1.308 -0.4974 -0.0885  0.3916
   30MOL   C135 9473   3.764   6.222   1.454 -0.5072  0.0068  0.1418
   30MOL   H136 9474   3.566   6.130   1.431 -0.5018 -0.2021 -0.1760
   30MOL   H137 9475   3.419   6.300   1.278 -0.0758  0.7129  0.9613
   30MOL   H138 9476   3.355   6.247   1.427 -0.5345  0.4728 -0.2763
   30MOL   H139 9477   3.312   6.490   1.494 -0.1653  0.5390 -0.3577
   30MOL   H140 9478   3.235   6.442   1.342  0.9280 -2.5380 -1.4401
   30MOL   H141 9479   3.327   6.660   1.307 -1.9285 -1.1532  0.5219
   30MOL   H142 9480   3.399   6.541   1.204  0.3616 -0.3336  0.5102
   30MOL   H143 9481   3.498   6.583   1.335 -0.7884  0.1675  1.4470
   30MOL   H144 9482   3.801   6.301   1.520 -1.1950  2.4700 -2.3228
   30MOL   H145 9483   3.813   6.127   1.475  0.7873 -0.0868 -3.0699
   30MOL   C146 9484   3.819   6.261   1.314  0.3584  0.6079  0.5491
   30MOL   O147 9485   3.961   6.254   1.302 -0.1772 -0.7320 -0.0104
   30MOL   C148 9486   4.034   6.366   1.352  0.1310  0.4739 -0.1324
   30MOL   C149 9487   4.179   6.327   1.362 -0.0610 -0.2586 -0.4671
   30MOL   C150 9488   4.278   6.422   1.427  0.4514 -0.3090 -0.4127
   30MOL   C151 9489   3.749   6.180   1.202 -0.4861 -0.2818 -0.3947
   30MOL   H152 9490   3.791   6.366   1.303  0.3366  0.3930 -1.6182
   30MOL   H153 9491   4.017   6.455   1.292  0.3735  2.5382  2.7319
   30MOL   H154 9492   4.012   6.400   1.453 -0.5324 -0.0345 -0.1077
   30MOL   H155 9493   4.216   6.293   1.266 -0.9542 -0.2834 -0.8039
   30MOL   H156 9494   4.184   6.226   1.403  0.8191  0.0738  0.2811
   30MOL   H157 9495   4.278   6.518   1.376  0.8596 -0.7351 -1.2258
   30MOL   H158 9496   4.382   6.389   1.428  0.3834 -0.5348  1.8451
   30MOL   H159 9497   4.249   6.426   1.532  1.0780  2.0174 -0.3014
   30MOL   H160 9498   3.753   6.073   1.222  0.1235 -0.6128 -2.2335
   30MOL   H161 9499   3.643   6.205   1.209 -1.1004 -2.7999 -0.2546
   30MOL   C162 9500   3.802   6.205   1.060 -0.3007  0.3291 -0.7315
   30MOL   O163 9501   3.754   6.108   0.964 -0.1666  0.3135 -0.2482
   30MOL   C164 9502   3.826   5.995   0.926  0.5033  0.3252  0.5073
   30MOL   C165 9503   3.774   5.923   0.796  0.5377 -0.0475 -0.0812
   30MOL   C166 9504   3.785   6.020   0.682  0.6107  0.4440 -0.1783
   30MOL   C167 9505   3.759   6.345   0.998  0.0720  0.2782  0.0982
   30MOL   H168 9506   3.911   6.206   1.066 -0.2895 -0.2752 -0.7613
   30MOL   H169 9507   3.927   6.027   0.898  0.2233  1.8704  1.1772
   30MOL   H170 9508   3.816   5.922   1.007 -0.4918 -0.2496 -0.1277
   30MOL   H171 9509   3.668   5.904   0.811  0.5324 -0.1427 -0.2432
   30MOL   H172 9510   3.820   5.825   0.783  1.4377  0.4006 -0.3401
   30MOL   H173 9511   3.720   6.105   0.706 -1.1028 -1.2715  1.3694
   30MOL   H174 9512   3.765   5.986   0.580  5.1402 -2.0591 -0.3514
   30MOL   H175 9513   3.887   6.059   0.679  1.5665 -1.8233  1.9568
   30MOL   H176 9514   3.661   6.323   0.957  0.7623 -0.6395 -1.0955
   30MOL   H177 9515   3.741   6.420   1.076  0.3162  1.2424 -0.7655
   30MOL   C178 9516   3.848   6.395   0.886  0.0497  0.6321  0.9081
   30MOL   O179 9517   3.765   6.495   0.825 -0.3419 -0.2782  0.8030
   30MOL   C180 9518   3.673   6.449   0.725  0.2676  0.3365  0.0862
   30MOL   C181 9519   3.567   6.563   0.710 -0.1273  0.9352 -0.1967
   30MOL   C182 9520   3.467   6.542   0.824 -0.2350 -0.3434  0.4166
   30MOL   C183 9521   3.983   6.451   0.928 -0.6201 -0.0682  0.4161
   30MOL   H184 9522   3.868   6.312   0.819 -2.1913  1.5940 -1.0114
   30MOL   H185 9523   3.720   6.418   0.631 -0.3599 -0.0446 -0.1035
   30MOL   H186 9524   3.622   6.363   0.768  0.7784  0.1899  0.3989
   30MOL   H187 9525   3.525   6.569   0.609  0.1692  1.3068 -0.3027
   30MOL   H188 9526   3.622   6.657   0.713  0.7542  0.4073  0.4526
   30MOL   H189 9527   3.382   6.610   0.817 -1.3856 -1.7432  0.4886
   30MOL   H190 9528   3.517   6.569   0.917 -1.0197  1.2966  0.3763
   30MOL   H191 9529   3.425   6.442   0.832 -2.0103  0.1861 -1.9802
   30MOL   H192 9530   3.967   6.559   0.921 -0.2028 -0.0753 -0.8804
   30MOL   H193 9531   3.995   6.440   1.036 -0.6205 -1.4015  0.2806
   30MOL   C194 9532   4.097   6.406   0.834 -0.5173 -1.2054  0.1459
   30MOL   O195 9533   4.219   6.467   0.878  0.4480  0.1061  0.5162
   30MOL   C196 9534   4.239   6.609   0.859 -0.0278  0.0519  0.5797
   30MOL   C197 9535   4.217   6.687   0.982 -0.7666 -0.3069 -0.2442
   30MOL   C198 9536   4.308   6.631   1.089 -0.3835  0.3426  0.1726
   30MOL   C199 9537   4.127   6.255   0.834 -0.4174 -0.3722  0.3612
   30MOL   H200 9538   4.069   6.425   0.731 -0.7570  0.9750  0.5965
   30MOL   H201 9539   4.336   6.623   0.811  0.1290  2.7817  1.6248
   30MOL   H202 9540   4.173   6.639   0.778  0.6049 -0.9383 -0.3195
   30MOL   H203 9541   4.115   6.683   1.020 -0.6067 -0.7322  0.1513
   30MOL   H204 9542   4.254   6.788   0.964  1.3810 -1.3711 -2.0947
   30MOL   H205 9543   4.413   6.623   1.062  0.6451 -0.4584  4.1808
   30MOL   H206 9544   4.275   6.534   1.125  0.7497 -0.1578 -0.1143
   30MOL   H207 9545   4.311   6.696   1.177  2.9316  0.0898  0.2763
   30MOL   H208 9546   4.120   6.225   0.938  1.2704  0.8154  0.8275
   30MOL   H209 9547   4.047   6.207   0.777 -1.3939  2.7575 -0.9981
   30MOL   C210 9548   4.266   6.219   0.784  0.2143 -0.3745 -0.8139
   30MOL   O211 9549   4.268   6.073   0.795  0.2383 -0.0211  0.1189
   30MOL   C212 9550   4.348   6.022   0.898  1.0385  0.1250 -1.0036
   30MOL   C213 9551   4.321   6.060   1.044  0.4195  0.2932 -0.2002
   30MOL   C214 9552   4.192   5.999   1.097  0.6567  0.8145  0.0118
   30MOL   C215 9553   4.285   6.256   0.640 -0.4662  0.3594 -0.3882
   30MOL   H216 9554   4.333   6.260   0.859  0.4339 -3.6430  0.8416
   30MOL   H217 9555   4.334   5.914   0.901  0.5893  0.1133 -3.0874
   30MOL   H218 9556   4.454   6.040   0.884  1.0688  2.7349  2.0582
   30MOL   H219 9557   4.305   6.167   1.058 -4.3065 -0.2879 -0.1541
   30MOL   H220 9558   4.411   6.026   1.095  1.3384 -2.1452 -3.3004
   30MOL   H221 9559   4.195   5.892   1.082  0.2252  0.6318  1.1510
   30MOL   H222 9560   4.102   6.042   1.053  0.8646 -0.8002 -2.0369
   30MOL   H223 9561   4.187   6.017   1.205  0.3459 -1.5575  0.4229
   30MOL   H224 9562   4.213   6.198   0.583 -1.7708  0.0127  1.5860
   30MOL   H225 9563   4.255   6.360   0.626  0.9413  0.7617 -0.5149
   30MOL   C226 9564   4.431   6.246   0.589  0.0649  0.3464 -0.6660
   30MOL   O227 9565   4.432   6.263   0.446 -0.0855 -0.3476  0.6733
   30MOL   C228 9566   4.387   6.159   0.359  0.7375  0.3157 -0.3978
   30MOL   C229 9567   4.428   6.203   0.214  0.4851 -0.2896  0.8300
   30MOL   C230 9568   4.580   6.207   0.205 -0.6189 -0.0422  0.1869
   30MOL   C231 9569   4.521   6.355   0.653 -0.4554  0.2444 -0.2636
   30MOL   H232 9570   4.463   6.144   0.612  3.6747  1.0239 -2.3337
   30MOL   H233 9571   4.426   6.064   0.396 -1.7490 -0.2737  0.7718
   30MOL   H234 9572   4.278   6.154   0.366  0.7302  0.2184 -0.5966
   30MOL   H235 9573   4.400   6.308   0.206 -2.3292 -1.1069 -1.1302
   30MOL   H236 9574   4.379   6.140   0.139  0.5534  3.5120 -2.5976
   30MOL   H237 9575   4.619   6.125   0.265 -3.5402 -1.2686  0.4757
   30MOL   H238 9576   4.627   6.298   0.244  0.3831 -0.8344  0.8642
   30MOL   H239 9577   4.596   6.201   0.098  1.6497 -0.7997  0.5336
   30MOL   H240 9578   4.479   6.453   0.633  1.4322  1.3148  0.8161
   30MOL   H241 9579   4.506   6.338   0.760  3.3255 -3.2055 -0.1223
   30MOL   C242 9580   4.671   6.362   0.615 -0.9919  0.2714  1.1254
   30MOL   O243 9581   4.725   6.491   0.665 -0.1273 -0.6466 -0.6408
   30MOL   C244 9582   4.729   6.507   0.803  0.5712 -0.4272  0.2516
   30MOL   C245 9583   4.793   6.643   0.824  1.1173  0.6164 -0.3725
   30MOL   C246 9584   4.944   6.645   0.801  0.2416  0.0646 -0.4518
   30MOL   C247 9585   4.761   6.244   0.657  0.9356  0.1282 -0.8487
   30MOL   H248 9586   4.677   6.364   0.507  3.2603  4.3092  1.2720
   30MOL   H249 9587   4.630   6.519   0.846  0.8532  1.5878  0.3890
   30MOL   H250 9588   4.781   6.422   0.847  0.2350 -2.0628 -2.4024
   30MOL   H251 9589   4.780   6.655   0.932 -1.6940 -1.5677 -0.4007
   30MOL   H252 9590   4.741   6.724   0.773 -0.7088  0.4749  1.2043
   30MOL   H253 9591   4.995   6.561   0.848 -1.1611  0.5471  2.0066
   30MOL   H254 9592   4.990   6.730   0.850 -0.2881  0.3198 -0.4020
   30MOL   H255 9593   4.962   6.648   0.693 -1.4120  0.3718 -0.7338
   30MOL   H256 9594   4.750   6.200   0.756  0.0506 -1.2297 -1.5252
   30MOL   H257 9595   4.743   6.165   0.583  0.4486  0.0456 -0.6439
   30MOL   C258 9596   4.909   6.271   0.632 -0.6178 -0.0707  0.0253
   30MOL   O259 9597   4.983   6.155   0.669  0.0141  0.4936  0.2705
   30MOL   C260 9598   5.027   6.148   0.804  1.0687 -0.5880  0.7018
   30MOL   C261 9599   5.084   6.016   0.832 -0.4184  0.8283  0.0558
   30MOL   C262 9600   5.222   5.999   0.769  0.1868  0.0378 -0.0657
   30MOL   C263 9601   4.942   6.317   0.486 -0.0870 -0.7642  0.0173
   30MOL   H264 9602   4.941   6.354   0.693  1.6401 -1.2188  0.4487
   30MOL   H265 9603   5.092   6.230   0.834 -2.7695  1.9066  2.5674
   30MOL   H266 9604   4.941   6.161   0.869  1.9616  2.1405  1.4248
   30MOL   H267 9605   5.017   5.930   0.820 -0.3228  0.6986  0.4489
   30MOL   H268 9606   5.104   6.020   0.939 -0.0743 -0.7316  0.0602
   30MOL   H269 9607   5.286   5.920   0.809  0.1954  0.5923  1.0514
   30MOL   H270 9608   5.278   6.089   0.796 -0.1149  0.1638  0.1522
   30MOL   H271 9609   5.220   5.992   0.661  0.5186 -2.3753  0.0539
   30MOL   H272 9610   4.892   6.251   0.414 -1.5670  1.2317 -0.8470
   30MOL   H273 9611   4.894   6.410   0.456  0.2757 -0.7508 -0.5443
   30MOL   C274 9612   5.088   6.314   0.447 -0.4416  0.5681  0.0509
   30MOL   O275 9613   5.096   6.345   0.304  0.3637  0.0041  0.1639
   30MOL   C276 9614   5.079   6.249   0.194  0.6819  0.9497 -0.0065
   30MOL   C277 9615   5.093   6.323   0.065  1.1272  0.0697 -0.2643
   30MOL   C278 9616   5.059   6.245   7.766 -0.9805 -0.4948 -0.0782
   30MOL   C279 9617   5.173   6.417   0.524 -0.7296  0.2361 -0.2556
   30MOL   H280 9618   5.120   6.211   0.462 -2.5215  0.0732  1.2905
   30MOL   H281 9619   5.164   6.181   0.203  0.8811  1.3896  1.5436
   30MOL   H282 9620   4.982   6.199   0.189  2.0315 -1.8536  0.7669
   30MOL   H283 9621   5.194   6.354   0.041  0.4929 -0.4138 -3.8921
   30MOL   H284 9622   5.028   6.408   0.089 -1.0199 -1.3669 -0.8388
   30MOL   H285 9623   5.143   6.181   7.741  0.3413  0.7627  1.0517
   30MOL   H286 9624   5.053   6.318   7.685  0.0582 -2.5207 -2.0136
   30MOL   H287 9625   4.960   6.200   7.779 -1.0998  0.5455  3.0248
   30MOL   H288 9626   5.136   6.516   0.498  0.9879  1.1449  0.6584
   30MOL   H289 9627   5.162   6.397   0.631  2.3472 -0.8858 -0.1065
   30MOL   C290 9628   5.322   6.423   0.488  0.0173 -0.3701 -0.2971
   30MOL   O291 9629   5.374   6.542   0.561 -0.2008 -0.1164 -0.6073
   30MOL   C292 9630   5.498   6.586   0.498 -0.4949 -0.3798 -0.3767
   30MOL   C293 9631   5.564   6.699   0.578 -0.0632  0.0589 -0.0079
   30MOL   C294 9632   5.718   6.699   0.568 -0.0625 -0.2029  0.0013
   30MOL   C295 9633   5.400   6.295   0.529  0.1811  0.5631 -1.2068
   30MOL   H296 9634   5.333   6.443   0.382 -0.5002  1.2594 -0.0587
   30MOL   H297 9635   5.573   6.507   0.485  0.3732  0.0889  1.6921
   30MOL   H298 9636   5.469   6.636   0.406 -1.8624 -1.0000 -0.3001
   30MOL   H299 9637   5.537   6.693   0.683 -1.1686 -2.0536 -0.3802
   30MOL   H300 9638   5.529   6.795   0.542 -1.2366 -0.2846  0.2096
   30MOL   H301 9639   5.752   6.595   0.575 -1.1610 -0.3568  4.6463
   30MOL   H302 9640   5.764   6.761   0.644 -0.7078 -1.2888  1.3042
   30MOL   H303 9641   5.747   6.740   0.471 -0.7465 -0.0847 -0.1570
   30MOL   H304 9642   5.491   6.315   0.586 -0.0759 -1.0095 -0.2453
   30MOL   H305 9643   5.340   6.242   0.603  3.2264 -0.9631  0.2856
   30MOL   C306 9644   5.447   6.214   0.404  0.2329  0.0635 -0.2371
   30MOL   O307 9645   5.541   6.292   0.331  0.0063 -0.2022  0.0436
   30MOL   C308 9646   5.524   6.278   0.193  0.1812 -0.4075 -0.5577
   30MOL   C309 9647   5.620   6.373   0.118  0.6286 -0.1596  0.3649
   30MOL   C310 9648   5.581   6.521   0.123 -0.0003  0.1233 -0.1391
   30MOL   C311 9649   5.523   6.088   0.444  0.3379 -0.1547  0.1699
   30MOL   H312 9650   5.356   6.189   0.351  1.3227 -0.7742 -1.7487
   30MOL   H313 9651   5.551   6.174   0.173  0.9678  0.0440 -1.9270
   30MOL   H314 9652   5.422   6.290   0.156  0.2020 -0.5704 -0.6678
   30MOL   H315 9653   5.634   6.334   0.017  1.0515  0.3556  0.2197
   30MOL   H316 9654   5.725   6.356   0.144  0.5949 -2.0387 -0.5829
   30MOL   H317 9655   5.587   6.544   0.229 -0.7431  1.1816 -0.3177
   30MOL   H318 9656   5.487   6.550   0.076  0.0919  0.7021  0.0305
   30MOL   H319 9657   5.658   6.582   0.075  0.3141 -0.5621 -0.5118
   30MOL   H320 9658   5.598   6.108   0.520  2.3060 -2.4491 -1.1156
   30MOL   H321 9659   5.444   6.021   0.478 -0.2889  0.6875  0.4023
   30MOL   H322 9660   5.584   6.035   0.371  2.3841 -1.7013  2.9008
   31MOL     C1 9661   1.131   3.019   2.829  0.0271 -0.0181  0.1888
   31MOL     O2 9662   1.045   3.000   2.943 -0.0162 -0.1479  0.2321
   31MOL     C3 9663   0.918   2.950   2.911 -0.9614 -0.4169  0.3883
   31MOL     C4 9664   0.829   2.962   3.040  0.0507 -0.1772  0.4792
   31MOL     C5 9665   0.697   2.887   3.023 -0.0393 -0.1425 -0.4655
   31MOL     C6 9666   1.275   3.050   2.875 -0.2650 -0.2847 -0.0619
   31MOL     H7 9667   1.095   3.099   2.766  0.4401 -0.3943 -0.5343
   31MOL     H8 9668   0.864   3.002   2.831 -1.3807 -1.0221  0.2760
   31MOL     H9 9669   0.927   2.844   2.890  1.6970  0.0822 -1.3040
   31MOL    H10 9670   0.820   3.068   3.060 -0.0971  0.0371 -0.6742
   31MOL    H11 9671   0.887   2.923   3.125  2.7753  1.1519 -0.7109
   31MOL    H12 9672   0.629   2.871   3.106  2.5712 -1.5361  1.4871
   31MOL    H13 9673   0.713   2.785   2.988  0.5064 -0.3733  0.4543
   31MOL    H14 9674   0.644   2.933   2.940 -1.2022  1.0362  0.9003
   31MOL    H15 9675   1.332   3.056   2.782 -0.2663 -0.9445 -0.1055
   31MOL    H16 9676   1.270   3.148   2.924  0.1478 -0.2632 -0.0600
   31MOL    H17 9677   1.123   2.933   2.763 -0.5943  0.0938  0.1201
   31MOL    C18 9678   1.344   2.941   2.969 -0.0644  0.2960 -0.0042
   31MOL    O19 9679   1.377   2.824   2.894  0.2491 -0.4198 -0.4297
   31MOL    C20 9680   1.388   2.706   2.967  0.4188  0.0276  0.7097
   31MOL    C21 9681   1.378   2.585   2.874  0.1827  0.5199  0.2480
   31MOL    C22 9682   1.489   2.572   2.771 -0.3743  0.3962 -0.1539
   31MOL    C23 9683   1.461   3.011   3.041  0.5406 -0.0029  0.8114
   31MOL    H24 9684   1.271   2.906   3.042 -0.8790 -1.8636 -1.8008
   31MOL    H25 9685   1.486   2.707   3.013  0.1555 -0.4752  1.2960
   31MOL    H26 9686   1.317   2.705   3.050  0.1531 -0.8806  0.4876
   31MOL    H27 9687   1.282   2.586   2.823  1.2757 -1.2891 -1.9564
   31MOL    H28 9688   1.390   2.493   2.930  1.9075  0.6821  0.1995
   31MOL    H29 9689   1.590   2.574   2.811 -0.2634 -1.9073 -0.2166
   31MOL    H30 9690   1.504   2.664   2.714 -0.0638  0.7342  0.4701
   31MOL    H31 9691   1.482   2.487   2.703 -2.2703  0.2050  0.2519
   31MOL    H32 9692   1.503   2.939   3.111  0.3822  0.7340  1.6709
   31MOL    H33 9693   1.542   3.021   2.968 -1.5758 -0.9790 -1.7610
   31MOL    C34 9694   1.435   3.128   3.133 -0.4706 -0.2576  0.1959
   31MOL    O35 9695   1.367   3.072   3.252  0.3011 -0.9076  0.1434
   31MOL    C36 9696   1.234   3.100   3.270  0.7112  0.2776  0.9012
   31MOL    C37 9697   1.172   3.005   3.378 -0.7071  0.1696 -0.2880
   31MOL    C38 9698   1.224   3.040   3.518 -0.3214 -0.0599 -0.0700
   31MOL    C39 9699   1.569   3.192   3.183  0.3084  0.3972 -0.0338
   31MOL    H40 9700   1.384   3.208   3.079  0.7221  0.3266 -0.0803
   31MOL    H41 9701   1.238   3.206   3.295 -2.1595  0.9456 -1.2271
   31MOL    H42 9702   1.189   3.079   3.173  3.1022 -3.0879  0.4206
   31MOL    H43 9703   1.192   2.902   3.348 -4.0417 -0.4398 -0.6331
   31MOL    H44 9704   1.063   3.004   3.386 -0.7042 -1.4420 -0.3024
   31MOL    H45 9705   1.187   2.971   3.593  0.0071 -1.2994 -1.0300
   31MOL    H46 9706   1.205   3.147   3.532  0.4907  0.2630 -1.3041
   31MOL    H47 9707   1.330   3.017   3.504  0.1557  1.6024  0.6782
   31MOL    H48 9708   1.559   3.256   3.270  3.9319 -0.5910  1.1849
   31MOL    H49 9709   1.629   3.112   3.228  0.3071 -1.6502 -3.4443
   31MOL    C50 9710   1.645   3.275   3.079 -0.1446  0.5478 -0.6744
   31MOL    O51 9711   1.559   3.379   3.045 -0.6320 -0.3472 -0.2022
   31MOL    C52 9712   1.536   3.388   2.907 -0.5018  0.2104 -0.1677
   31MOL    C53 9713   1.439   3.505   2.879 -0.3386  0.7391 -0.3318
   31MOL    C54 9714   1.407   3.518   2.725  0.4489 -0.8681  0.3566
   31MOL    C55 9715   1.778   3.331   3.135 -0.1516 -0.2719 -0.2632
   31MOL    H56 9716   1.670   3.214   2.993  0.7607 -0.5621  0.3578
   31MOL    H57 9717   1.627   3.390   2.847  0.9567 -0.1084  1.9594
   31MOL    H58 9718   1.480   3.299   2.877 -0.9539  0.2758  0.4673
   31MOL    H59 9719   1.493   3.593   2.914 -0.0688  0.1055  0.8412
   31MOL    H60 9720   1.349   3.494   2.939 -1.4982 -1.5010 -2.3798
   31MOL    H61 9721   1.364   3.615   2.700  1.6866 -0.0220  1.4691
   31MOL    H62 9722   1.349   3.432   2.690 -0.0697  0.1601 -1.3601
   31MOL    H63 9723   1.505   3.509   2.678 -0.2145 -1.5146 -0.9355
   31MOL    H64 9724   1.834   3.375   3.052  0.1196  0.4202  0.2792
   31MOL    H65 9725   1.757   3.411   3.206  1.4425 -1.1957  1.2733
   31MOL    C66 9726   1.878   3.224   3.185 -0.5356 -0.6111 -0.3050
   31MOL    O67 9727   1.871   3.118   3.091  0.0829 -0.4000  0.1832
   31MOL    C68 9728   1.894   2.994   3.148  0.0603 -0.3416 -0.4171
   31MOL    C69 9729   1.858   2.885   3.049 -0.3671  0.1215 -0.3819
   31MOL    C70 9730   1.971   2.854   2.947 -0.9530  0.5402  0.4288
   31MOL    C71 9731   2.026   3.259   3.195 -0.5690  0.9572 -0.3013
   31MOL    H72 9732   1.844   3.185   3.281  3.1832 -1.4899  0.7128
   31MOL    H73 9733   1.996   2.989   3.187  0.4182  2.6155 -0.8354
   31MOL    H74 9734   1.840   2.984   3.241  2.2338 -1.5541  0.7445
   31MOL    H75 9735   1.766   2.912   2.998  0.3361 -0.7318 -2.1432
   31MOL    H76 9736   1.830   2.794   3.101 -0.7627  0.6514  0.3324
   31MOL    H77 9737   2.055   2.806   2.997  0.7354  0.6275 -2.2444
   31MOL    H78 9738   2.010   2.946   2.904 -1.6955 -0.5168 -2.6749
   31MOL    H79 9739   1.925   2.800   2.863 -0.6199  0.6533  0.1741
   31MOL    H80 9740   2.086   3.177   3.236  0.5066  1.3859 -0.9824
   31MOL    H81 9741   2.083   3.265   3.102 -0.4692 -0.7805 -0.3708
   31MOL    C82 9742   2.060   3.382   3.292 -0.1089  0.9778  0.5245
   31MOL    O83 9743   2.001   3.497   3.228  0.4411 -0.4495 -0.4344
   31MOL    C84 9744   2.066   3.564   3.116  0.5104 -0.2225 -0.4113
   31MOL    C85 9745   2.173   3.651   3.176 -0.4952  0.1908  0.4883
   31MOL    C86 9746   2.111   3.771   3.236 -0.0824 -0.5041  0.0147
   31MOL    C87 9747   2.013   3.365   3.437  0.8845 -0.0653  0.1611
   31MOL    H88 9748   2.169   3.386   3.300  0.0639 -1.1191 -0.4298
   31MOL    H89 9749   2.097   3.487   3.044 -2.6787 -1.3292 -0.6627
   31MOL    H90 9750   1.990   3.626   3.069  0.9851  1.9199  1.5857
   31MOL    H91 9751   2.239   3.687   3.097  0.4474 -0.1683  1.1182
   31MOL    H92 9752   2.232   3.592   3.245  0.3505 -2.4053 -2.3577
   31MOL    H93 9753   2.086   3.844   3.159 -0.2409 -0.3514  0.2125
   31MOL    H94 9754   2.189   3.813   3.299  0.2939  1.2140 -1.5557
   31MOL    H95 9755   2.022   3.746   3.293  0.0593 -0.1814  0.3803
   31MOL    H96 9756   1.905   3.383   3.437  0.8310 -0.3319 -1.3737
   31MOL    H97 9757   2.022   3.262   3.471  0.2472  0.3668  1.6821
   31MOL    C98 9758   2.081   3.461   3.542 -0.7782 -0.6494 -0.2266
   31MOL    O99 9759   2.003   3.438   3.664 -1.1695  0.0079  0.1418
   31MOL   C100 9760   1.872   3.496   3.661  0.5845 -0.0872 -0.0401
   31MOL   C101 9761   1.820   3.526   3.798 -0.1505  0.3872  0.1963
   31MOL   C102 9762   1.887   3.647   3.872  0.4813 -0.0707 -0.3915
   31MOL   C103 9763   2.231   3.436   3.576  0.0275  0.4657 -0.0534
   31MOL   H104 9764   2.067   3.559   3.498  0.5189 -1.6219 -2.9197
   31MOL   H105 9765   1.875   3.581   3.593 -0.7848 -0.5182 -0.6610
   31MOL   H106 9766   1.816   3.417   3.611 -1.6368  1.5110 -0.1516
   31MOL   H107 9767   1.810   3.435   3.856 -1.0399  0.2151 -0.2066
   31MOL   H108 9768   1.717   3.553   3.771  0.4161  0.8964 -1.5344
   31MOL   H109 9769   1.954   3.632   3.957  1.9183 -1.7068 -1.7703
   31MOL   H110 9770   1.819   3.728   3.894  0.5067  0.2519 -1.4818
   31MOL   H111 9771   1.957   3.696   3.804  1.1188 -2.2829 -1.3899
   31MOL   H112 9772   2.232   3.340   3.627  0.2677 -0.1781 -1.2416
   31MOL   H113 9773   2.294   3.436   3.487 -1.1115 -2.1043 -0.9047
   31MOL   C114 9774   2.291   3.552   3.655 -0.0305  0.2278  1.4994
   31MOL   O115 9775   2.241   3.683   3.631  0.0586  0.6908 -0.1681
   31MOL   C116 9776   2.345   3.781   3.626  0.3144 -0.1787 -0.1216
   31MOL   C117 9777   2.283   3.916   3.640 -0.0069  0.3875 -0.4871
   31MOL   C118 9778   2.207   3.962   3.525 -0.1632  0.5621 -0.3356
   31MOL   C119 9779   2.282   3.519   3.803 -0.3645 -0.0997  0.5176
   31MOL   H120 9780   2.393   3.553   3.616 -1.2445  0.5372 -1.9051
   31MOL   H121 9781   2.420   3.763   3.703  0.1805 -1.6597 -0.3254
   31MOL   H122 9782   2.397   3.760   3.533  0.1994  1.5243 -0.5991
   31MOL   H123 9783   2.363   3.990   3.649  0.1465  0.1040  0.5498
   31MOL   H124 9784   2.224   3.921   3.731  0.6984 -0.0182  0.0069
   31MOL   H125 9785   2.123   3.896   3.504  0.1924  0.0160 -0.0453
   31MOL   H126 9786   2.270   3.971   3.437 -1.0373 -0.0240 -1.0273
   31MOL   H127 9787   2.166   4.059   3.555  0.0006  0.3418  0.6090
   31MOL   H128 9788   2.317   3.601   3.865 -0.1404  0.4174 -0.2855
   31MOL   H129 9789   2.174   3.506   3.813 -0.7488  0.5338 -2.2591
   31MOL   C130 9790   2.352   3.388   3.855  0.0738 -0.3768  0.9473
   31MOL   O131 9791   2.490   3.395   3.826 -0.4170 -0.3587 -0.7773
   31MOL   C132 9792   2.573   3.280   3.819  0.1593  0.3503 -0.8383
   31MOL   C133 9793   2.705   3.335   3.754  0.4398 -0.0618 -0.7914
   31MOL   C134 9794   2.689   3.419   3.633  0.1195 -0.0044  0.2218
   31MOL   C135 9795   2.350   3.382   4.013  0.3998  0.1620  0.0890
   31MOL   H136 9796   2.306   3.297   3.815 -0.9446  0.8234 -0.6411
   31MOL   H137 9797   2.591   3.215   3.904 -0.1092  0.2931 -0.8237
   31MOL   H138 9798   2.523   3.210   3.753 -1.3611  0.8074 -0.2038
   31MOL   H139 9799   2.789   3.269   3.731  0.8653 -0.0773  0.7161
   31MOL   H140 9800   2.745   3.402   3.831  0.8352 -0.0944 -0.9674
   31MOL   H141 9801   2.618   3.382   3.560 -0.1790 -1.0340  1.0180
   31MOL   H142 9802   2.787   3.437   3.589  0.1616 -0.4253  0.1420
   31MOL   H143 9803   2.646   3.514   3.664 -2.4737 -1.1236  0.1254
   31MOL   H144 9804   2.408   3.298   4.052 -2.0539 -1.9000 -0.5911
   31MOL   H145 9805   2.403   3.467   4.057  0.9783  0.3625 -0.9816
   31MOL   C146 9806   2.208   3.362   4.074 -0.0943 -0.3079  0.1455
   31MOL   O147 9807   2.149   3.238   4.027 -0.1580  0.6519  0.0753
   31MOL   C148 9808   2.020   3.250   3.959  0.3558  0.2043  0.1604
   31MOL   C149 9809   1.976   3.121   3.908  0.5180 -0.7137 -0.4262
   31MOL   C150 9810   2.059   3.055   3.799 -0.3912  0.1801 -0.0290
   31MOL   C151 9811   2.197   3.369   4.228  0.4390  0.6251 -0.1415
   31MOL   H152 9812   2.154   3.450   4.039  0.7113 -0.2920 -1.0759
   31MOL   H153 9813   1.942   3.298   4.018 -1.0358  0.1860 -1.6092
   31MOL   H154 9814   2.035   3.322   3.878  0.4692  0.5326  0.4739
   31MOL   H155 9815   1.871   3.134   3.879 -0.1153 -1.6825  1.3833
   31MOL   H156 9816   1.971   3.053   3.993 -0.8631  0.6698  0.6179
   31MOL   H157 9817   2.033   2.950   3.780 -0.7830  0.5024 -1.3428
   31MOL   H158 9818   2.161   3.037   3.831  0.6362  1.1332 -2.6189
   31MOL   H159 9819   2.054   3.098   3.699  1.0621 -0.0818 -0.2244
   31MOL   H160 9820   2.093   3.371   4.261  0.3032 -0.3278 -0.5024
   31MOL   H161 9821   2.233   3.273   4.264 -1.1845 -0.3475 -1.0654
   31MOL   C162 9822   2.281   3.482   4.295 -0.2914 -0.0319  0.3822
   31MOL   O163 9823   2.235   3.600   4.237  0.0279 -0.0887  0.4933
   31MOL   C164 9824   2.315   3.717   4.271  0.1465 -0.7187 -0.0977
   31MOL   C165 9825   2.254   3.839   4.200  0.1790 -0.1535  0.6815
   31MOL   C166 9826   2.242   3.810   4.052  0.1346  0.4359 -0.0455
   31MOL   C167 9827   2.259   3.480   4.456 -0.0749  0.0580 -0.3789
   31MOL   H168 9828   2.388   3.468   4.281 -0.7042 -1.4559 -1.6051
   31MOL   H169 9829   2.314   3.739   4.378 -1.4752  2.0153 -0.6365
   31MOL   H170 9830   2.419   3.709   4.237  0.2482 -0.9301  0.2538
   31MOL   H171 9831   2.310   3.931   4.215 -0.8234  0.8957 -1.7806
   31MOL   H172 9832   2.150   3.835   4.232  0.0177 -1.3605  0.0549
   31MOL   H173 9833   2.169   3.732   4.033 -0.2865  0.9846 -0.7007
   31MOL   H174 9834   2.329   3.771   4.000  0.2545  0.7971 -0.1180
   31MOL   H175 9835   2.194   3.894   4.002 -1.2786 -1.2789 -1.6191
   31MOL   H176 9836   2.285   3.578   4.496 -3.5890  0.6499  0.6556
   31MOL   H177 9837   2.152   3.470   4.471  0.0175  1.1802  1.0569
   31MOL   C178 9838   2.346   3.379   4.537  0.0870  0.7675 -0.0381
   31MOL   O179 9839   2.490   3.403   4.507 -0.6077 -0.0359  0.1389
   31MOL   C180 9840   2.558   3.291   4.442 -0.1436  0.1664 -0.8585
   31MOL   C181 9841   2.699   3.339   4.408  0.2130  0.0260 -0.2170
   31MOL   C182 9842   2.707   3.452   4.301 -0.2792  0.0555  0.2269
   31MOL   C183 9843   2.333   3.423   4.689 -0.0977 -0.0592  0.0346
   31MOL   H184 9844   2.321   3.274   4.518 -0.7673  1.0948 -0.6914
   31MOL   H185 9845   2.561   3.209   4.514  2.0951 -0.9511 -2.1989
   31MOL   H186 9846   2.509   3.245   4.356 -0.3877  1.1674 -1.2676
   31MOL   H187 9847   2.755   3.249   4.380  0.4706 -0.3534  1.4835
   31MOL   H188 9848   2.754   3.372   4.496  0.9227 -1.5889 -0.0257
   31MOL   H189 9849   2.674   3.437   4.199 -0.4338  0.6334  0.1910
   31MOL   H190 9850   2.809   3.485   4.283 -0.7306  0.8487 -0.9046
   31MOL   H191 9851   2.652   3.542   4.330 -0.0693  0.2731 -0.0504
   31MOL   H192 9852   2.361   3.528   4.691 -2.4530  0.6108 -0.8848
   31MOL   H193 9853   2.231   3.436   4.723  0.1360 -0.0520  0.7364
   31MOL   C194 9854   2.412   3.339   4.791  0.5487  0.4632 -0.1588
   31MOL   O195 9855   2.419   3.409   4.916 -0.1558 -0.4740 -0.1302
   31MOL   C196 9856   2.505   3.528   4.919  0.3693  0.4021 -0.2177
   31MOL   C197 9857   2.523   3.570   5.063 -0.4438 -0.1737 -0.1807
   31MOL   C198 9858   2.614   3.681   5.089  0.1114 -0.4342  0.3576
   31MOL   C199 9859   2.352   3.198   4.818  0.8012  0.3317  0.3939
   31MOL   H200 9860   2.513   3.324   4.752  0.4363 -0.6777 -0.0528
   31MOL   H201 9861   2.602   3.518   4.870  0.4495  2.4265 -0.5294
   31MOL   H202 9862   2.449   3.603   4.864 -0.1796  0.9937  1.1188
   31MOL   H203 9863   2.550   3.481   5.120 -0.0892 -0.1077 -0.2431
   31MOL   H204 9864   2.423   3.586   5.104 -0.5684 -0.8532 -0.2204
   31MOL   H205 9865   2.713   3.654   5.053  0.1787 -0.8414  0.8397
   31MOL   H206 9866   2.617   3.718   5.192 -0.8838  0.6128  0.0149
   31MOL   H207 9867   2.577   3.765   5.030  0.9372 -0.8786 -0.8061
   31MOL   H208 9868   2.381   3.184   4.922  0.2938  1.0252  0.6302
   31MOL   H209 9869   2.243   3.202   4.815  0.7952  0.8083  1.0444
   31MOL   C210 9870   2.401   3.083   4.736  0.3522  0.4995 -0.1709
   31MOL   O211 9871   2.493   2.995   4.808  0.2446  0.0092 -0.0657
   31MOL   C212 9872   2.611   3.055   4.849 -0.4734 -0.3779 -0.1888
   31MOL   C213 9873   2.674   2.964   4.951 -0.6424  0.1808  0.3938
   31MOL   C214 9874   2.710   2.825   4.890 -0.6971 -0.4769 -0.6076
   31MOL   C215 9875   2.286   2.990   4.693 -0.0127 -0.5017  0.1687
   31MOL   H216 9876   2.449   3.126   4.648 -2.5586  3.1061 -0.5508
   31MOL   H217 9877   2.679   3.084   4.768 -1.3933  2.9503  0.1493
   31MOL   H218 9878   2.594   3.154   4.891  4.8182 -0.5965  2.9632
   31MOL   H219 9879   2.597   2.957   5.028  1.3049  2.5215  2.6714
   31MOL   H220 9880   2.764   3.007   4.994 -0.1209 -0.6510  0.1597
   31MOL   H221 9881   2.632   2.763   4.844 -1.1989  0.5389 -1.1405
   31MOL   H222 9882   2.744   2.767   4.976  0.7743 -0.5161 -1.2049
   31MOL   H223 9883   2.803   2.830   4.833 -0.3984  0.8501 -0.0067
   31MOL   H224 9884   2.216   2.975   4.775  0.1822 -0.4844  0.3392
   31MOL   H225 9885   2.226   3.051   4.625  1.9833  0.2682 -0.9586
   31MOL   C226 9886   2.325   2.863   4.612  0.0959 -0.4970  0.3951
   31MOL   O227 9887   2.208   2.784   4.582 -0.1959  0.2781 -0.0379
   31MOL   C228 9888   2.152   2.708   4.684  0.3713  0.7666 -0.5482
   31MOL   C229 9889   2.005   2.721   4.664  0.7956  0.4506  0.3544
   31MOL   C230 9890   1.944   2.638   4.554  0.0888 -0.0494 -0.1609
   31MOL   C231 9891   2.396   2.902   4.477 -0.5041 -0.3855 -0.3222
   31MOL   H232 9892   2.393   2.797   4.667  0.4790 -1.0471 -0.7171
   31MOL   H233 9893   2.184   2.605   4.668 -1.6851  0.1280 -0.7399
   31MOL   H234 9894   2.162   2.751   4.783 -0.2984 -0.7968  0.2129
   31MOL   H235 9895   1.978   2.825   4.643 -0.2145 -0.0192 -0.7387
   31MOL   H236 9896   1.949   2.697   4.754 -0.5661 -0.7812 -0.7930
   31MOL   H237 9897   1.839   2.666   4.541  0.3561  1.4727  0.8157
   31MOL   H238 9898   1.937   2.531   4.572 -1.5955 -0.2436 -1.7433
   31MOL   H239 9899   1.995   2.650   4.458  0.9496  1.7142  0.4998
   31MOL   H240 9900   2.328   2.971   4.428  0.2002  0.4542 -0.1232
   31MOL   H241 9901   2.487   2.959   4.498 -1.1705  0.3540  0.6214
   31MOL   C242 9902   2.416   2.792   4.384  0.3095 -0.1176 -0.1889
   31MOL   O243 9903   2.461   2.854   4.263 -1.0131  0.6952 -0.1029
   31MOL   C244 9904   2.452   2.785   4.134  0.5651  0.5276  0.1350
   31MOL   C245 9905   2.502   2.869   4.025 -0.4292  0.0034 -0.0465
   31MOL   C246 9906   2.396   2.967   3.970 -0.2562 -0.4819 -0.1025
   31MOL   C247 9907   2.527   2.689   4.432  0.1788  0.8660 -0.2147
   31MOL   H248 9908   2.324   2.739   4.357 -0.3145  0.1765  1.3240
   31MOL   H249 9909   2.510   2.694   4.153 -1.5527 -0.3628  2.6463
   31MOL   H250 9910   2.354   2.743   4.115  0.1209  2.0928 -1.1058
   31MOL   H251 9911   2.523   2.808   3.937  0.0315  1.8658 -1.2700
   31MOL   H252 9912   2.594   2.922   4.051  0.0840 -1.6606  1.6464
   31MOL   H253 9913   2.360   3.040   4.042 -1.2379  1.2311 -2.2785
   31MOL   H254 9914   2.314   2.905   3.934 -0.1711 -0.9057  0.4264
   31MOL   H255 9915   2.422   3.026   3.882  1.3747 -0.0900  0.6264
   31MOL   H256 9916   2.502   2.643   4.528  0.8092  0.6185 -0.1639
   31MOL   H257 9917   2.534   2.614   4.353  0.3932  0.1663  0.4583
   31MOL   C258 9918   2.680   2.732   4.459  0.2354  0.4101 -0.5772
   31MOL   O259 9919   2.769   2.616   4.448 -0.2391 -0.1775 -0.0005
   31MOL   C260 9920   2.798   2.548   4.564  0.8492  0.2742 -0.0649
   31MOL   C261 9921   2.886   2.427   4.529 -0.2291  0.3769  0.4142
   31MOL   C262 9922   3.026   2.466   4.483  0.2665  1.3410 -0.1771
   31MOL   C263 9923   2.738   2.840   4.360 -0.2661 -1.1794 -0.0412
   31MOL   H264 9924   2.670   2.774   4.560 -1.2884 -0.7909 -0.2053
   31MOL   H265 9925   2.848   2.618   4.631 -0.6270  1.1278  0.1829
   31MOL   H266 9926   2.707   2.506   4.607  1.0070 -0.3370 -0.3205
   31MOL   H267 9927   2.839   2.364   4.453  0.8421 -0.6062  0.5572
   31MOL   H268 9928   2.890   2.358   4.612 -1.3563 -0.1195  0.0602
   31MOL   H269 9929   3.088   2.490   4.569  0.8313  2.0870 -0.7803
   31MOL   H270 9930   3.028   2.535   4.398 -0.4319  2.1789  0.4808
   31MOL   H271 9931   3.067   2.372   4.446  1.6664  1.0502  2.0448
   31MOL   H272 9932   2.743   2.797   4.260  0.7557  2.0206 -1.4433
   31MOL   H273 9933   2.660   2.916   4.352  0.0916 -0.7684  0.3615
   31MOL   C274 9934   2.877   2.902   4.391 -0.4767  0.3348  0.3162
   31MOL   O275 9935   2.883   3.026   4.323  0.1614 -0.1268  0.0776
   31MOL   C276 9936   2.953   3.023   4.197  0.6867  0.2086 -0.0036
   31MOL   C277 9937   2.938   3.170   4.143 -0.4741  0.6963  1.0055
   31MOL   C278 9938   3.028   3.276   4.205  0.1663  0.3178  0.4867
   31MOL   C279 9939   2.900   2.940   4.542 -0.4063 -0.4409 -0.0484
   31MOL   H280 9940   2.953   2.832   4.357 -1.4330 -1.1388  1.1550
   31MOL   H281 9941   3.057   2.994   4.207  0.1946 -1.8204 -0.6459
   31MOL   H282 9942   2.909   2.951   4.129 -1.3486  1.8341 -0.4813
   31MOL   H283 9943   2.833   3.191   4.123 -0.1328  0.9728 -0.5549
   31MOL   H284 9944   2.973   3.151   4.042 -0.0179  0.1195  1.2634
   31MOL   H285 9945   3.128   3.268   4.162  0.3016  0.1126  0.8350
   31MOL   H286 9946   3.019   3.275   4.313  1.5632 -0.2613  0.6150
   31MOL   H287 9947   2.987   3.369   4.166  0.5748  0.5541  0.6102
   31MOL   H288 9948   2.811   2.995   4.574 -0.7834 -0.3264 -1.2630
   31MOL   H289 9949   2.901   2.856   4.612  0.7320  0.5642  1.1616
   31MOL   C290 9950   3.019   3.032   4.576  0.1500 -0.2217  0.4264
   31MOL   O291 9951   3.008   3.069   4.712  0.1351  0.7604 -0.4997
   31MOL   C292 9952   2.999   3.213   4.725  0.6490  0.0516 -0.2521
   31MOL   C293 9953   2.983   3.235   4.878  0.1807  0.6934 -0.1654
   31MOL   C294 9954   2.988   3.384   4.919 -0.2504  0.2816 -0.4417
   31MOL   C295 9955   3.150   2.966   4.548  0.2211  0.6596  0.0827
   31MOL   H296 9956   3.010   3.125   4.520  2.5537  0.6556  1.4115
   31MOL   H297 9957   3.086   3.260   4.680 -1.5104  1.7818 -2.7571
   31MOL   H298 9958   2.912   3.245   4.668 -0.3633 -1.7338  0.2388
   31MOL   H299 9959   3.062   3.177   4.926 -0.2099  1.1816  1.1028
   31MOL   H300 9960   2.885   3.208   4.918  0.3591  0.0314 -0.1704
   31MOL   H301 9961   2.971   3.386   5.026  0.3037  0.7693 -0.3602
   31MOL   H302 9962   2.906   3.436   4.868 -0.7909 -0.0260  0.1102
   31MOL   H303 9963   3.082   3.432   4.890  0.3846 -0.1289  0.9201
   31MOL   H304 9964   3.165   2.875   4.605  1.2406  2.0535  2.0956
   31MOL   H305 9965   3.157   2.947   4.440 -0.0568 -0.7400  0.3027
   31MOL   C306 9966   3.278   3.054   4.571 -0.0007  0.0879 -0.8204
   31MOL   O307 9967   3.390   2.969   4.555 -0.1409  0.1958  0.3750
   31MOL   C308 9968   3.511   3.017   4.621 -0.4244  0.1261 -0.3960
   31MOL   C309 9969   3.613   2.899   4.633 -0.0419  1.4919  0.4292
   31MOL   C310 9970   3.658   2.847   4.496 -0.3098  0.2149  0.2026
   31MOL   C311 9971   3.287   3.178   4.472 -0.1929  0.5552  1.1127
   31MOL   H312 9972   3.279   3.090   4.674  0.3148 -1.3366 -0.3188
   31MOL   H313 9973   3.562   3.101   4.576  1.7948 -1.5330 -1.0706
   31MOL   H314 9974   3.491   3.045   4.725  1.2864  0.4162 -0.1340
   31MOL   H315 9975   3.562   2.816   4.682  0.2757  0.6460 -0.6591
   31MOL   H316 9976   3.701   2.930   4.689  0.7299 -0.6061  0.4213
   31MOL   H317 9977   3.702   2.925   4.434  2.3113  0.6050  2.4120
   31MOL   H318 9978   3.584   2.802   4.430 -0.2910  0.6801 -0.1403
   31MOL   H319 9979   3.735   2.771   4.511  0.6418  1.1175  0.0006
   31MOL   H320 9980   3.188   3.220   4.457 -0.0477  0.5890  0.1947
   31MOL   H321 9981   3.362   3.249   4.507  0.1981  0.7857 -0.1640
   31MOL   H322 9982   3.321   3.143   4.374 -0.0934  1.3780  0.8495
   32MOL     C1 9983   1.440   3.777   4.903 -0.4961  0.2847 -0.4674
   32MOL     O2 9984   1.548   3.815   4.822 -0.1404 -0.4867 -0.1734
   32MOL     C3 9985   1.516   3.918   4.733 -0.5790 -0.1771 -0.0157
   32MOL     C4 9986   1.647   3.978   4.669  0.0386  0.4490  0.1157
   32MOL     C5 9987   1.617   4.091   4.566 -0.2305 -0.0883  0.6587
   32MOL     C6 9988   1.496   3.680   5.012 -0.9685 -0.4439  0.3347
   32MOL     H7 9989   1.368   3.720   4.844  1.4526  0.1035 -2.7095
   32MOL     H8 9990   1.443   3.880   4.661  0.2363  0.3064 -1.1241
   32MOL     H9 9991   1.466   3.995   4.791  3.4553  0.6987  2.4825
   32MOL    H10 9992   1.710   3.907   4.616 -3.0132 -0.2110 -2.8128
   32MOL    H11 9993   1.706   4.001   4.757  0.2645 -0.4648  0.2063
   32MOL    H12 9994   1.537   4.158   4.599 -0.8851 -1.0518  1.0257
   32MOL    H13 9995   1.572   4.044   4.479 -2.4433  0.6949  1.3407
   32MOL    H14 9996   1.713   4.137   4.543 -0.4934 -0.8534 -2.1546
   32MOL    H15 9997   1.418   3.630   5.069 -1.2813 -0.7737 -0.3814
   32MOL    H16 9998   1.567   3.607   4.971 -2.5732 -1.8421  0.0158
   32MOL    H17 9999   1.404   3.873   4.941 -0.4462  0.0596  0.1565
   32MOL    C1810000   1.577   3.750   5.123  0.3629  0.3192 -0.4228
   32MOL    O1910001   1.487   3.831   5.198 -0.7080  0.4622  0.1319
   32MOL    C2010002   1.533   3.964   5.231 -0.4951  0.6138  0.1003
   32MOL    C2110003   1.425   4.054   5.291 -0.6633 -0.1510 -0.3393
   32MOL    C2210004   1.474   4.209   5.288  0.1020 -0.4210  0.0028
   32MOL    C2310005   1.639   3.648   5.226 -0.1013  0.4098 -0.2112
   32MOL    H2410006   1.655   3.809   5.077  0.4697  1.2518  0.9313
   32MOL    H2510007   1.617   3.960   5.301 -0.5974 -0.3491  0.1671
   32MOL    H2610008   1.572   4.009   5.140 -2.1886  1.9471  0.0082
   32MOL    H2710009   1.417   4.027   5.396 -0.4556 -0.4267 -0.3949
   32MOL    H2810010   1.327   4.041   5.244 -1.2595  0.6199  0.6667
   32MOL    H2910011   1.409   4.290   5.322 -0.2414 -1.2460  1.3645
   32MOL    H3010012   1.498   4.246   5.189  0.1898  2.8241  1.1690
   32MOL    H3110013   1.567   4.220   5.344 -0.4890 -0.1523  0.9424
   32MOL    H3210014   1.563   3.591   5.279  2.0937 -1.3202  1.2129
   32MOL    H3310015   1.693   3.580   5.159  2.2855  0.4170  1.6617
   32MOL    C3410016   1.741   3.695   5.325 -0.2092 -0.1541 -0.0173
   32MOL    O3510017   1.806   3.596   5.410  0.1430  0.0281  0.4516
   32MOL    C3610018   1.718   3.520   5.488 -0.6354 -0.5080 -0.3864
   32MOL    C3710019   1.656   3.609   5.597  0.0691 -0.6155 -0.1888
   32MOL    C3810020   1.579   3.526   5.698  0.4236  0.5346 -0.4727
   32MOL    C3910021   1.858   3.773   5.270  0.6208 -0.0672  0.2321
   32MOL    H4010022   1.684   3.760   5.391  2.0608  1.1659  0.7128
   32MOL    H4110023   1.646   3.463   5.428  1.1917 -0.6492 -2.5076
   32MOL    H4210024   1.790   3.455   5.536  0.2494  0.6114 -0.1948
   32MOL    H4310025   1.580   3.678   5.561  0.5874 -0.5222 -1.1163
   32MOL    H4410026   1.730   3.673   5.645 -1.5800 -0.0005  1.6237
   32MOL    H4510027   1.484   3.496   5.654  0.7790  1.0926 -1.6523
   32MOL    H4610028   1.554   3.587   5.785  0.4856  0.3871 -0.3516
   32MOL    H4710029   1.614   3.430   5.737  0.2884  0.3203 -0.8724
   32MOL    H4810030   1.907   3.703   5.203 -1.6833 -2.2897  0.8141
   32MOL    H4910031   1.830   3.864   5.216  1.3843 -0.4329 -0.7909
   32MOL    C5010032   1.966   3.825   5.368  0.1856 -0.1887 -0.3853
   32MOL    O5110033   2.067   3.894   5.290  0.0538  0.0697  0.3206
   32MOL    C5210034   2.186   3.827   5.274 -0.6666 -0.1956 -0.6977
   32MOL    C5310035   2.265   3.903   5.166  0.1282 -0.4460 -0.6153
   32MOL    C5410036   2.298   4.048   5.208  0.6377 -0.8816  0.8808
   32MOL    C5510037   1.915   3.932   5.471  0.5218 -0.0454  0.3992
   32MOL    H5610038   2.004   3.748   5.434 -1.2115  1.6371  2.7010
   32MOL    H5710039   2.249   3.822   5.364 -3.0641 -0.2799  1.0257
   32MOL    H5810040   2.162   3.723   5.251  0.6966 -1.0452  1.5159
   32MOL    H5910041   2.197   3.906   5.081 -1.7825 -0.5628  0.8520
   32MOL    H6010042   2.355   3.857   5.125  0.2376 -1.6981  0.9528
   32MOL    H6110043   2.359   4.056   5.298  2.2344  0.9116 -0.3056
   32MOL    H6210044   2.203   4.100   5.214  0.0491 -1.7591 -0.5890
   32MOL    H6310045   2.351   4.106   5.132  0.1136 -0.9339  0.4703
   32MOL    H6410046   1.869   4.018   5.423  0.9645  0.5654  1.0502
   32MOL    H6510047   1.830   3.885   5.520  0.2042  0.3390  0.2238
   32MOL    C6610048   2.019   3.981   5.573  0.3250  0.1032  0.1223
   32MOL    O6710049   1.960   4.089   5.648 -0.1133 -0.3831  0.4739
   32MOL    C6810050   1.983   4.211   5.584  0.1309 -0.5432  0.5470
   32MOL    C6910051   1.880   4.315   5.631 -0.2545 -0.1841  0.4564
   32MOL    C7010052   1.885   4.448   5.560  0.0597  0.6826  0.4680
   32MOL    C7110053   2.061   3.880   5.681 -0.7428  0.5169 -0.1947
   32MOL    H7210054   2.111   4.006   5.519 -0.3947  0.2580 -1.0496
   32MOL    H7310055   2.085   4.232   5.615  1.7235 -1.3813 -3.7286
   32MOL    H7410056   1.980   4.199   5.476 -0.9054  0.2817  0.4768
   32MOL    H7510057   1.879   4.328   5.739  0.5329 -1.3185  0.6109
   32MOL    H7610058   1.783   4.271   5.612  0.0555 -0.2083 -1.1123
   32MOL    H7710059   1.975   4.510   5.566  0.2440  0.5023 -0.3315
   32MOL    H7810060   1.803   4.514   5.586 -1.1276 -0.2099 -0.9291
   32MOL    H7910061   1.872   4.432   5.453  0.2285 -1.4931  0.7393
   32MOL    H8010062   1.974   3.830   5.723 -0.7434 -0.8810 -1.8115
   32MOL    H8110063   2.111   3.794   5.637 -1.7632 -0.4774  0.5615
   32MOL    C8210064   2.149   3.931   5.797  0.9143  0.5729 -0.2059
   32MOL    O8310065   2.135   3.828   5.898  0.4001  0.6358 -0.3127
   32MOL    C8410066   2.026   3.837   5.987 -0.0574  0.9095 -0.0550
   32MOL    C8510067   2.016   3.734   6.099 -0.0580 -0.0616  0.6284
   32MOL    C8610068   1.924   3.775   6.210 -0.5182  0.5065 -0.0648
   32MOL    C8710069   2.292   3.936   5.754  0.1023 -0.4409 -0.8808
   32MOL    H8810070   2.124   4.027   5.842  0.1180  1.3667 -2.3081
   32MOL    H8910071   2.055   3.926   6.044 -0.4883  0.3971  0.9840
   32MOL    H9010072   1.932   3.850   5.933  0.6533 -2.3046 -2.1528
   32MOL    H9110073   2.112   3.716   6.147 -0.4826 -1.3701  0.9827
   32MOL    H9210074   1.989   3.639   6.053 -0.1170  1.1385 -1.9190
   32MOL    H9310075   1.900   3.689   6.273 -1.4547  0.9822  0.2300
   32MOL    H9410076   1.833   3.821   6.174  0.1910 -1.4407 -4.7493
   32MOL    H9510077   1.969   3.854   6.269  0.0068  0.6157 -0.5968
   32MOL    H9610078   2.335   3.836   5.753 -1.3193 -1.0793 -0.0152
   32MOL    H9710079   2.308   3.975   5.653 -0.6589  0.3113 -0.7234
   32MOL    C9810080   2.386   4.023   5.851  0.3299  0.4867  0.1937
   32MOL    O9910081   2.517   3.966   5.845  0.6435 -0.4311  0.2648
   32MOL   C10010082   2.549   3.909   5.969  0.1535 -0.6751  0.0568
   32MOL   C10110083   2.687   3.834   5.945  0.6893  0.1022 -0.2886
   32MOL   C10210084   2.736   3.805   6.084  0.3261 -0.4881  0.0400
   32MOL   C10310085   2.411   4.165   5.804  0.0244  0.1375  0.7440
   32MOL   H10410086   2.335   4.015   5.947 -1.0325 -0.6101 -0.6140
   32MOL   H10510087   2.556   3.979   6.053 -0.7344  1.4843 -1.6385
   32MOL   H10610088   2.480   3.830   5.997 -0.8814 -0.1601 -1.0180
   32MOL   H10710089   2.757   3.903   5.898 -0.3677  0.2844 -1.6230
   32MOL   H10810090   2.680   3.749   5.876  0.1319  0.6438 -0.9066
   32MOL   H10910091   2.741   3.889   6.153  0.7115  0.8710 -1.6149
   32MOL   H11010092   2.841   3.773   6.080  0.4276 -0.0906 -0.5732
   32MOL   H11110093   2.678   3.731   6.138 -1.5459  1.7525  1.1564
   32MOL   H11210094   2.469   4.148   5.713 -0.1494 -0.0077  0.6616
   32MOL   H11310095   2.315   4.215   5.788 -1.0095 -1.6186  1.3107
   32MOL   C11410096   2.491   4.263   5.891  0.9528  0.3807 -0.0744
   32MOL   O11510097   2.520   4.382   5.813  0.0702 -0.5809  0.2135
   32MOL   C11610098   2.653   4.385   5.762  1.1512 -0.3074  0.1924
   32MOL   C11710099   2.678   4.528   5.716 -0.6973  0.3800  1.5444
   32MOL   C11810100   2.809   4.526   5.629 -0.4491 -1.0577  0.2388
   32MOL   C11910101   2.421   4.302   6.024  0.5934  0.1262  0.6918
   32MOL   H12010102   2.578   4.200   5.910  0.6665 -0.7661 -2.2812
   32MOL   H12110103   2.720   4.371   5.848  1.6385 -0.0103 -0.1365
   32MOL   H12210104   2.682   4.309   5.690  2.4193  0.0866  0.2700
   32MOL   H12310105   2.689   4.585   5.808 -0.3169  1.8149  0.6198
   32MOL   H12410106   2.608   4.572   5.645  2.8063 -0.3504 -2.5866
   32MOL   H12510107   2.892   4.490   5.690  1.5730  1.5412 -0.8511
   32MOL   H12610108   2.842   4.624   5.594  0.8342 -1.4781  0.2585
   32MOL   H12710109   2.798   4.465   5.539 -0.6015 -0.9154  0.1598
   32MOL   H12810110   2.333   4.362   6.001  1.4270  2.8802  4.2032
   32MOL   H12910111   2.380   4.219   6.081  2.3921 -0.7796  0.7310
   32MOL   C13010112   2.519   4.374   6.118  0.1033  0.6202  0.6396
   32MOL   O13110113   2.437   4.467   6.187  0.0208  0.0364  0.1582
   32MOL   C13210114   2.382   4.575   6.122  0.2818  0.0927 -0.0642
   32MOL   C13310115   2.345   4.695   6.213  0.2266 -0.0709  0.0297
   32MOL   C13410116   2.231   4.658   6.315 -0.5686 -0.6811  0.6631
   32MOL   C13510117   2.596   4.269   6.201  1.0245  0.2327  0.3110
   32MOL   H13610118   2.586   4.438   6.061 -0.5967  1.0720  0.3252
   32MOL   H13710119   2.454   4.606   6.046 -1.6109 -1.0514 -2.3784
   32MOL   H13810120   2.286   4.556   6.074 -0.0891 -1.4779  1.2831
   32MOL   H13910121   2.308   4.776   6.151 -0.1774 -0.5064 -0.3017
   32MOL   H14010122   2.434   4.730   6.265  1.9826 -2.1955 -1.4581
   32MOL   H14110123   2.137   4.633   6.265  0.4838 -1.9800 -0.7297
   32MOL   H14210124   2.211   4.740   6.384 -2.1725  0.5208 -1.1998
   32MOL   H14310125   2.252   4.572   6.379 -0.5032 -0.0234  1.5402
   32MOL   H14410126   2.536   4.201   6.262 -1.1675  0.4496 -1.5462
   32MOL   H14510127   2.651   4.211   6.127  0.1516  1.1600 -1.0850
   32MOL   C14610128   2.700   4.327   6.300  0.5746  0.0590 -0.2009
   32MOL   O14710129   2.769   4.215   6.372  0.2739  0.5630 -0.4317
   32MOL   C14810130   2.807   4.246   6.505 -0.0857 -0.2011  0.2646
   32MOL   C14910131   2.867   4.117   6.560 -0.2302  0.5808 -0.1128
   32MOL   C15010132   2.776   3.993   6.543 -0.1641 -0.0489  0.6355
   32MOL   C15110133   2.805   4.433   6.246  0.0047 -0.4293 -0.5083
   32MOL   H15210134   2.633   4.374   6.373  1.0716 -0.0507  0.3297
   32MOL   H15310135   2.886   4.321   6.510  1.0702 -1.3307 -0.7262
   32MOL   H15410136   2.725   4.296   6.557  2.2044  1.4847  2.3696
   32MOL   H15510137   2.896   4.114   6.665 -1.8553 -1.5891  0.3188
   32MOL   H15610138   2.957   4.093   6.503  1.3194  1.2022  1.9747
   32MOL   H15710139   2.847   3.911   6.526 -1.8505 -1.4868  0.3567
   32MOL   H15810140   2.712   4.002   6.455 -1.2253  0.0722  1.4107
   32MOL   H15910141   2.709   3.979   6.628  0.0502 -0.2046  0.7811
   32MOL   H16010142   2.758   4.528   6.220  0.0273 -0.5165 -0.8679
   32MOL   H16110143   2.868   4.457   6.333 -1.2893 -0.1710  0.3683
   32MOL   C16210144   2.890   4.386   6.125 -0.4955 -0.6434 -0.0368
   32MOL   O16310145   2.990   4.483   6.103  1.0558  0.7006  0.0404
   32MOL   C16410146   2.944   4.609   6.063 -0.4326 -0.6462 -0.0328
   32MOL   C16510147   3.065   4.681   5.993  0.6755 -0.1493 -0.2115
   32MOL   C16610148   3.059   4.834   5.982 -0.5356 -0.3106 -0.0974
   32MOL   C16710149   2.962   4.250   6.148 -0.2165  0.2166 -1.0077
   32MOL   H16810150   2.826   4.390   6.037  0.7863  1.9487 -0.8899
   32MOL   H16910151   2.869   4.600   5.985  1.3724  1.4731 -2.0783
   32MOL   H17010152   2.904   4.667   6.146  1.8061  0.8150  0.0756
   32MOL   H17110153   3.073   4.637   5.893  0.1365 -1.6545  0.3832
   32MOL   H17210154   3.151   4.650   6.052 -0.0902  0.0648  1.0272
   32MOL   H17310155   3.066   4.880   6.080  0.9705  1.1625 -0.8624
   32MOL   H17410156   2.977   4.865   5.918  1.1066  1.9247 -1.2244
   32MOL   H17510157   3.152   4.870   5.937 -0.1455 -0.4249  0.6170
   32MOL   H17610158   3.028   4.271   6.232 -0.3986 -3.4957  0.1318
   32MOL   H17710159   2.899   4.167   6.180  0.6173  0.5260  1.5464
   32MOL   C17810160   3.059   4.214   6.032  0.0457 -0.3299  0.3285
   32MOL   O17910161   3.132   4.091   6.042 -0.6226  0.5348  0.1063
   32MOL   C18010162   3.223   4.088   6.154 -0.0362 -0.1989  0.9092
   32MOL   C18110163   3.301   3.950   6.131  0.0664  0.1341 -0.1105
   32MOL   C18210164   3.385   3.944   6.008 -0.0615  0.0304  0.4464
   32MOL   C18310165   2.987   4.190   5.900  0.5024 -0.2347 -0.4324
   32MOL   H18410166   3.138   4.289   6.030  0.3529 -0.6809 -0.6527
   32MOL   H18510167   3.285   4.177   6.166  1.5215 -0.9892 -1.0369
   32MOL   H18610168   3.171   4.066   6.248 -3.1274 -4.1371 -1.5680
   32MOL   H18710169   3.230   3.868   6.134 -0.2127  0.2191 -3.0903
   32MOL   H18810170   3.367   3.920   6.213  0.2647  0.3937 -0.1743
   32MOL   H18910171   3.403   3.843   5.971 -1.4010 -0.3624  0.8037
   32MOL   H19010172   3.477   4.001   6.020  0.4884 -0.1140 -2.6388
   32MOL   H19110173   3.326   3.994   5.930 -1.7176  0.0728  1.7021
   32MOL   H19210174   2.924   4.103   5.921  0.2482  0.4735  1.9409
   32MOL   H19310175   2.919   4.267   5.864  1.7575  1.5482  0.9387
   32MOL   C19410176   3.091   4.169   5.784  0.3238 -0.0797  0.2719
   32MOL   O19510177   3.028   4.159   5.654  0.1149  0.8417  0.1030
   32MOL   C19610178   2.942   4.052   5.646 -0.1211 -0.2531  0.7172
   32MOL   C19710179   2.899   4.050   5.496 -0.0887  0.6220 -0.3150
   32MOL   C19810180   2.787   3.950   5.463  0.3465  0.2397 -0.0605
   32MOL   C19910181   3.186   4.284   5.767  0.0248 -0.0946 -0.3708
   32MOL   H20010182   3.146   4.076   5.800  1.6137  0.5101 -0.6232
   32MOL   H20110183   2.985   3.963   5.692 -3.2803 -2.4559 -0.4341
   32MOL   H20210184   2.850   4.072   5.701 -0.0569  2.0600  0.0008
   32MOL   H20310185   2.986   4.026   5.436  0.4230 -4.2991  2.1933
   32MOL   H20410186   2.870   4.148   5.457 -0.3804  0.9143  0.6173
   32MOL   H20510187   2.691   3.971   5.511 -1.2308  0.4331 -3.1662
   32MOL   H20610188   2.807   3.848   5.497 -0.1886 -0.0379 -0.5666
   32MOL   H20710189   2.762   3.937   5.358  2.9988  2.5184 -1.0439
   32MOL   H20810190   3.129   4.377   5.762 -1.9787 -1.2609  0.2191
   32MOL   H20910191   3.255   4.289   5.851 -1.9990  1.3805  1.2528
   32MOL   C21010192   3.277   4.276   5.640 -0.5162 -0.6359 -0.2205
   32MOL   O21110193   3.368   4.382   5.631  0.8181 -0.4685  0.0591
   32MOL   C21210194   3.340   4.481   5.534 -0.5292  0.5479  0.0753
   32MOL   C21310195   3.413   4.600   5.577 -0.3903 -0.3439 -0.2742
   32MOL   C21410196   3.367   4.668   5.711  0.0654  0.4773  0.3150
   32MOL   C21510197   3.367   4.145   5.647 -0.0164 -0.1448 -0.4289
   32MOL   H21610198   3.203   4.275   5.560 -1.0412 -1.0567  0.2626
   32MOL   H21710199   3.372   4.437   5.439 -0.5590 -0.2112  0.4095
   32MOL   H21810200   3.232   4.495   5.532 -0.4383  1.6541  2.4528
   32MOL   H21910201   3.403   4.670   5.494 -0.0946  0.3966  0.3021
   32MOL   H22010202   3.520   4.581   5.580 -0.4028 -0.2811  1.1277
   32MOL   H22110203   3.259   4.670   5.704  0.0654  1.1411  0.4739
   32MOL   H22210204   3.403   4.767   5.738  0.6929  0.2924  0.1864
   32MOL   H22310205   3.392   4.609   5.799 -1.8013  1.9256  1.8581
   32MOL   H22410206   3.437   4.150   5.730  0.8995  0.1982 -1.2138
   32MOL   H22510207   3.315   4.050   5.660 -0.6073  0.4633  1.9068
   32MOL   C22610208   3.438   4.134   5.514 -0.4400 -0.5189  0.0132
   32MOL   O22710209   3.523   4.019   5.528 -0.0423  0.4488 -0.1783
   32MOL   C22810210   3.653   4.053   5.588 -0.1377 -0.0662  0.2341
   32MOL   C22910211   3.738   3.931   5.611 -0.5140 -0.0662 -0.4311
   32MOL   C23010212   3.702   3.835   5.732 -0.4720  0.1098  0.7249
   32MOL   C23110213   3.332   4.123   5.402  0.6124  0.0726  0.7089
   32MOL   H23210214   3.496   4.223   5.490 -0.2369 -0.5789  0.2709
   32MOL   H23310215   3.702   4.120   5.517  1.2161 -0.7419  0.5270
   32MOL   H23410216   3.641   4.099   5.686  0.7167  0.8033 -0.0632
   32MOL   H23510217   3.843   3.960   5.620 -0.7653  0.9068 -0.4930
   32MOL   H23610218   3.742   3.858   5.531  2.1300 -0.3492 -0.0880
   32MOL   H23710219   3.670   3.888   5.822 -1.6585  0.5842  0.0315
   32MOL   H23810220   3.774   3.758   5.759  0.7212  1.2709  0.9034
   32MOL   H23910221   3.613   3.781   5.702 -0.2188 -1.2297  2.3256
   32MOL   H24010222   3.262   4.049   5.439 -0.5573  0.5084 -0.5945
   32MOL   H24110223   3.280   4.217   5.384 -0.7676 -0.6580  0.8033
   32MOL   C24210224   3.380   4.071   5.261 -0.1683  0.1309 -0.2033
   32MOL   O24310225   3.259   4.012   5.208  0.0194 -0.7021  0.4930
   32MOL   C24410226   3.278   3.898   5.125 -0.2925 -0.1630 -0.9148
   32MOL   C24510227   3.145   3.829   5.103  0.7542 -0.0638 -0.0539
   32MOL   C24610228   3.160   3.704   5.016  0.2870 -0.8495 -0.7946
   32MOL   C24710229   3.432   4.180   5.159 -0.3466  0.1287 -0.0843
   32MOL   H24810230   3.453   3.991   5.274  1.6645  1.3631 -2.5949
   32MOL   H24910231   3.321   3.932   5.031  0.6205  3.3408  0.7140
   32MOL   H25010232   3.343   3.831   5.182  0.4944  1.0694 -0.3481
   32MOL   H25110233   3.085   3.909   5.058 -0.8291  0.3114  2.6299
   32MOL   H25210234   3.096   3.808   5.198 -1.4832 -0.7322 -1.3247
   32MOL   H25310235   3.188   3.623   5.083  1.7788 -0.4811 -0.9540
   32MOL   H25410236   3.232   3.724   4.937  1.1507 -0.2569  0.1410
   32MOL   H25510237   3.060   3.689   4.973 -1.0754  0.3463  1.8370
   32MOL   H25610238   3.419   4.147   5.055 -0.9348 -0.5064  0.1823
   32MOL   H25710239   3.369   4.268   5.169 -0.1332  0.5771 -2.4710
   32MOL   C25810240   3.584   4.197   5.192 -0.4127  0.8934 -0.8746
   32MOL   O25910241   3.637   4.076   5.136  0.5651  0.6102  0.2971
   32MOL   C26010242   3.759   4.034   5.201  0.4189 -0.7999 -1.0570
   32MOL   C26110243   3.815   3.901   5.162 -0.4864 -1.1917  0.0204
   32MOL   C26210244   3.733   3.786   5.210  0.0622 -0.3649 -0.5397
   32MOL   C26310245   3.642   4.312   5.112 -0.5833  0.5221  0.7977
   32MOL   H26410246   3.604   4.200   5.299 -0.9215 -0.3299 -0.7286
   32MOL   H26510247   3.839   4.102   5.174  0.0636  1.1980  2.5341
   32MOL   H26610248   3.740   4.023   5.308 -2.2357  0.0060 -1.4018
   32MOL   H26710249   3.912   3.895   5.212 -1.3848 -1.3568  1.7955
   32MOL   H26810250   3.835   3.904   5.055 -0.2156  2.8059  0.1034
   32MOL   H26910251   3.722   3.769   5.317 -0.5313  0.0241 -0.5351
   32MOL   H27010252   3.778   3.691   5.180 -2.1033 -2.3627  2.3132
   32MOL   H27110253   3.629   3.798   5.179  1.1333  2.6756 -3.2401
   32MOL   H27210254   3.748   4.293   5.093 -0.6779 -0.0277  0.8190
   32MOL   H27310255   3.588   4.322   5.017  2.3503  1.3903 -0.8524
   32MOL   C27410256   3.642   4.454   5.179  0.2216 -0.3299 -0.2615
   32MOL   O27510257   3.511   4.501   5.222 -0.1390 -0.7285 -0.1088
   32MOL   C27610258   3.430   4.565   5.115 -0.4438 -0.1044 -0.5913
   32MOL   C27710259   3.496   4.702   5.066  0.2122  0.1572  0.2888
   32MOL   C27810260   3.457   4.815   5.161 -0.5655 -0.5568  0.1596
   32MOL   C27910261   3.725   4.462   5.308  0.6783 -0.6461  0.1425
   32MOL   H28010262   3.693   4.529   5.119  0.0756  1.1310  1.3969
   32MOL   H28110263   3.430   4.502   5.026 -1.2610 -2.1737  0.8472
   32MOL   H28210264   3.327   4.568   5.149  0.2503 -1.4806  1.7764
   32MOL   H28310265   3.459   4.735   4.969 -1.5829 -0.1526  0.8429
   32MOL   H28410266   3.605   4.700   5.069  0.2337 -2.2160 -0.6459
   32MOL   H28510267   3.484   4.811   5.266 -2.6492  0.6187  0.7739
   32MOL   H28610268   3.350   4.837   5.160 -0.9859 -2.5356  0.1619
   32MOL   H28710269   3.510   4.900   5.119 -0.5122  0.0601  1.4495
   32MOL   H28810270   3.727   4.570   5.325 -1.5653 -0.1164 -2.5307
   32MOL   H28910271   3.665   4.424   5.390  0.9219 -1.2973  0.0228
   32MOL   C29010272   3.872   4.402   5.310  0.1012  0.0064 -0.0001
   32MOL   O29110273   3.966   4.446   5.209  0.0635 -0.4537  0.2112
   32MOL   C29210274   3.980   4.585   5.199  0.4994 -0.1069  0.3661
   32MOL   C29310275   4.100   4.628   5.107  1.0749 -0.0390 -0.3642
   32MOL   C29410276   4.230   4.565   5.158 -0.4938 -0.1695 -0.6691
   32MOL   C29510277   3.940   4.418   5.453 -0.7640  0.2765 -0.7236
   32MOL   H29610278   3.858   4.297   5.285  0.1636  0.5376 -2.3787
   32MOL   H29710279   3.888   4.633   5.166  0.8305  0.7213  0.6262
   32MOL   H29810280   4.002   4.618   5.301 -2.6064 -1.9007  1.6755
   32MOL   H29910281   4.116   4.736   5.112  2.8531 -0.2086 -2.0049
   32MOL   H30010282   4.085   4.595   5.005 -1.6770 -1.5884  0.4797
   32MOL   H30110283   4.255   4.593   5.261  2.2313  2.9103 -2.0921
   32MOL   H30210284   4.317   4.585   5.097  1.0925  0.4866  1.7426
   32MOL   H30310285   4.224   4.457   5.157  1.2560 -0.3363  1.7838
   32MOL   H30410286   3.955   4.522   5.481  0.1731  0.3041 -1.3339
   32MOL   H30510287   3.871   4.383   5.530  0.3690 -1.3507 -0.4376
   32MOL   C30610288   4.070   4.335   5.479  0.0240  0.7570  0.0626
   32MOL   O30710289   4.121   4.351   5.610 -0.8254  0.3489  0.4625
   32MOL   C30810290   4.232   4.437   5.621 -0.6753  0.0815  0.1022
   32MOL   C30910291   4.232   4.486   5.768 -0.3778  0.1129  0.2484
   32MOL   C31010292   4.101   4.561   5.810 -0.9387 -0.0771  0.9328
   32MOL   C31110293   4.050   4.189   5.440 -0.6105  0.4746  0.4087
   32MOL   H31210294   4.141   4.379   5.409  0.3249 -0.0475 -0.1397
   32MOL   H31310295   4.326   4.394   5.585 -0.8782 -1.3221  1.2003
   32MOL   H31410296   4.230   4.527   5.560 -2.1336  0.2463  0.3860
   32MOL   H31510297   4.319   4.550   5.788 -0.5278 -0.2529  2.1491
   32MOL   H31610298   4.250   4.399   5.831  3.3108  0.6015  0.0141
   32MOL   H31710299   4.099   4.576   5.918  2.6408  0.2013  1.0148
   32MOL   H31810300   4.015   4.500   5.783 -0.6628  0.2480 -0.7126
   32MOL   H31910301   4.081   4.661   5.770 -0.1559  0.6528  2.3268
   32MOL   H32010302   4.011   4.193   5.338 -1.9097  2.8790  0.9584
   32MOL   H32110303   4.142   4.134   5.459 -0.5420  0.0719 -0.9697
   32MOL   H32210304   3.961   4.149   5.489 -2.5391  2.7392 -1.1285
   33MOL     C110305   5.864   1.162   1.770  0.2608 -0.1773 -0.2372
   33MOL     O210306   6.009   1.171   1.774  0.3860  0.3313  0.1712
   33MOL     C310307   6.063   1.145   1.645  0.5010 -0.2036 -0.3289
   33MOL     C410308   6.080   0.990   1.639 -0.1552 -0.0533  0.1979
   33MOL     C510309   5.963   0.911   1.588  0.2060  0.5976 -0.0969
   33MOL     C610310   5.820   1.173   1.912  0.3223 -0.4175 -0.5941
   33MOL     H710311   5.818   1.072   1.730 -1.1543  0.6108 -0.3990
   33MOL     H810312   6.012   1.195   1.564  0.1878  0.4800  0.2843
   33MOL     H910313   6.161   1.193   1.647  0.2176  0.3628  0.1207
   33MOL    H1010314   6.113   0.946   1.733  1.9854  1.7785  0.3548
   33MOL    H1110315   6.159   0.968   1.567 -0.8492  0.5720 -0.7665
   33MOL    H1210316   5.917   0.843   1.659 -0.6470 -0.2150 -1.4159
   33MOL    H1310317   5.987   0.855   1.498 -1.3252 -1.3422  0.6623
   33MOL    H1410318   5.887   0.984   1.558 -0.7414 -1.1698 -2.1269
   33MOL    H1510319   5.874   1.094   1.964  2.1887  0.6105 -0.9519
   33MOL    H1610320   5.838   1.271   1.956 -2.1550 -0.3533  0.3242
   33MOL    H1710321   5.836   1.253   1.717  0.0046  1.0022  1.8557
   33MOL    C1810322   5.659   1.146   1.936  0.0993  0.2168  0.4714
   33MOL    O1910323   5.580   1.216   1.845  0.3269 -0.3032  0.1551
   33MOL    C2010324   5.540   1.350   1.880 -0.0702  0.1305  0.9661
   33MOL    C2110325   5.474   1.418   1.761 -0.3474  0.3001  0.1102
   33MOL    C2210326   5.552   1.412   1.630 -0.7208  0.4218 -0.3720
   33MOL    C2310327   5.620   0.999   1.917 -0.5186  0.0789 -0.0958
   33MOL    H2410328   5.630   1.175   2.037 -1.2637  1.2384 -0.1869
   33MOL    H2510329   5.476   1.349   1.969 -0.6593  2.9888  0.6481
   33MOL    H2610330   5.627   1.411   1.902  0.4190 -0.3551  0.3605
   33MOL    H2710331   5.447   1.520   1.789 -0.4669  1.0389 -2.5972
   33MOL    H2810332   5.373   1.378   1.746 -0.1436 -1.4335  3.0736
   33MOL    H2910333   5.645   1.463   1.656 -1.8349  2.2290  0.1628
   33MOL    H3010334   5.511   1.465   1.544 -0.0639  1.4173 -0.0821
   33MOL    H3110335   5.577   1.309   1.605  3.6030  0.7763  1.9652
   33MOL    H3210336   5.613   0.972   1.812  2.0699 -0.8546 -0.0556
   33MOL    H3310337   5.704   0.941   1.955 -0.9942 -0.8622 -0.4598
   33MOL    C3410338   5.487   0.949   1.977 -1.0131  0.2270  0.5250
   33MOL    O3510339   5.477   0.991   2.116 -0.1237 -0.0477  0.2350
   33MOL    C3610340   5.378   0.923   2.197 -0.1654  0.5130  0.3929
   33MOL    C3710341   5.395   0.969   2.346 -0.0428  0.5680  0.5062
   33MOL    C3810342   5.352   1.115   2.378 -0.2765  0.0614  0.3505
   33MOL    C3910343   5.361   0.978   1.889 -0.6272 -0.2635  0.3052
   33MOL    H4010344   5.488   0.840   1.968  1.6015  0.1375  1.4834
   33MOL    H4110345   5.277   0.947   2.166 -0.7294 -1.7591  0.3538
   33MOL    H4210346   5.386   0.815   2.209  1.0337  0.5473 -0.0101
   33MOL    H4310347   5.497   0.941   2.372  0.5140  1.1775 -0.9280
   33MOL    H4410348   5.332   0.908   2.411  1.8957 -0.4599  1.4421
   33MOL    H4510349   5.389   1.155   2.472  1.8459 -4.5426  1.5992
   33MOL    H4610350   5.244   1.129   2.378 -0.2846 -0.0312  1.3120
   33MOL    H4710351   5.390   1.176   2.296  0.3887 -0.9713 -0.1272
   33MOL    H4810352   5.282   0.919   1.935 -0.3251  0.4681  1.8079
   33MOL    H4910353   5.325   1.081   1.897 -0.8499 -0.1452 -1.9459
   33MOL    C5010354   5.368   0.935   1.740  0.2321 -0.0918 -0.2755
   33MOL    O5110355   5.427   0.811   1.725 -0.7653  0.7468 -0.5997
   33MOL    C5210356   5.481   0.766   1.597  0.1195 -0.3885  0.6900
   33MOL    C5310357   5.596   0.674   1.631 -0.5605  0.3048 -0.5731
   33MOL    C5410358   5.686   0.645   1.513 -0.1450  0.0887 -0.2144
   33MOL    C5510359   5.226   0.925   1.679  1.0198 -0.2245  0.2267
   33MOL    H5610360   5.430   1.007   1.687  0.0614 -0.2056 -0.6274
   33MOL    H5710361   5.416   0.700   1.539 -0.7258  0.5153  0.6044
   33MOL    H5810362   5.499   0.856   1.538 -0.7273 -0.4473  0.3176
   33MOL    H5910363   5.557   0.585   1.680  0.0932 -0.1742 -0.9244
   33MOL    H6010364   5.664   0.714   1.707 -0.7260  1.2013 -0.8934
   33MOL    H6110365   5.782   0.602   1.543  0.2317  2.1793  1.6893
   33MOL    H6210366   5.722   0.732   1.459  1.2520  0.0214  0.5935
   33MOL    H6310367   5.629   0.584   1.443 -0.4042 -0.3028  0.3293
   33MOL    H6410368   5.230   0.873   1.583 -0.4024 -0.2347  0.1731
   33MOL    H6510369   5.174   0.859   1.749 -0.8398 -0.0667 -0.9770
   33MOL    C6610370   5.170   1.070   1.656 -0.0940 -0.2252  0.2289
   33MOL    O6710371   5.210   1.099   1.524  0.2117  0.6479  0.3013
   33MOL    C6810372   5.314   1.195   1.520  1.1281  0.2241 -0.6133
   33MOL    C6910373   5.396   1.167   1.391 -0.0028  0.5271  0.5819
   33MOL    C7010374   5.323   1.205   1.258  0.6493  0.1853 -0.0140
   33MOL    C7110375   5.019   1.093   1.659  0.0068 -0.3925  0.4545
   33MOL    H7210376   5.209   1.142   1.728  1.6031  1.5871 -2.4497
   33MOL    H7310377   5.274   1.295   1.531  1.4661  0.9154 -4.7210
   33MOL    H7410378   5.386   1.183   1.600  1.5008  1.4177 -0.7711
   33MOL    H7510379   5.417   1.061   1.376 -1.0597  0.2845  0.7611
   33MOL    H7610380   5.489   1.224   1.392  0.9322 -0.9674  0.5217
   33MOL    H7710381   5.336   1.129   1.181 -0.5914 -2.0195  1.8938
   33MOL    H7810382   5.350   1.305   1.224 -2.3953  0.0348 -3.2470
   33MOL    H7910383   5.215   1.220   1.268  0.2364 -2.7485  0.4158
   33MOL    H8010384   5.004   1.192   1.616  2.2865 -0.4382 -0.5115
   33MOL    H8110385   4.969   1.031   1.585 -0.1947  1.8247 -1.3391
   33MOL    C8210386   4.937   1.075   1.789  0.4952  0.0456  0.0669
   33MOL    O8310387   5.021   1.150   1.883 -0.1077 -0.0917  0.6958
   33MOL    C8410388   5.007   1.117   2.017  0.0093  0.1336  0.4189
   33MOL    C8510389   5.069   1.240   2.093  0.1678  0.1579  0.2792
   33MOL    C8610390   5.213   1.283   2.048 -0.1373  0.5921 -0.2886
   33MOL    C8710391   4.785   1.115   1.793 -0.6895 -0.4801 -0.2533
   33MOL    H8810392   4.936   0.971   1.821  0.1119  0.4030  1.2543
   33MOL    H8910393   4.906   1.112   2.057  1.2472 -0.4626  3.6409
   33MOL    H9010394   5.047   1.019   2.044 -2.2606 -1.0996 -0.5818
   33MOL    H9110395   5.072   1.211   2.198  3.2259  0.8334  0.4278
   33MOL    H9210396   4.997   1.322   2.083 -1.9892 -1.5967  0.9339
   33MOL    H9310397   5.219   1.309   1.942 -0.4755  0.4020 -0.3557
   33MOL    H9410398   5.282   1.201   2.069 -0.6462 -0.1641 -1.4725
   33MOL    H9510399   5.247   1.372   2.100  0.2014  0.8918 -1.0131
   33MOL    H9610400   4.744   1.103   1.893  1.6210  1.7961  1.0200
   33MOL    H9710401   4.784   1.220   1.765 -0.8341 -0.2407  0.6370
   33MOL    C9810402   4.707   1.038   1.694 -0.1892  0.2179  0.6514
   33MOL    O9910403   4.703   0.901   1.742 -0.0056 -0.1913  0.4447
   33MOL   C10010404   4.733   0.804   1.647 -1.0582 -0.0918 -0.5572
   33MOL   C10110405   4.762   0.672   1.720 -0.0408 -0.5174  0.2284
   33MOL   C10210406   4.875   0.685   1.821  0.1762 -0.2779 -0.1688
   33MOL   C10310407   4.559   1.078   1.680  0.7269  0.2355  0.6912
   33MOL   H10410408   4.751   1.044   1.595 -1.4727  2.4086  0.1625
   33MOL   H10510409   4.650   0.778   1.581 -0.3464  1.4715 -2.0959
   33MOL   H10610410   4.821   0.823   1.587 -0.1985 -2.9417 -0.2555
   33MOL   H10710411   4.804   0.603   1.646  0.4590  0.2256 -0.1887
   33MOL   H10810412   4.668   0.638   1.762 -0.5129 -1.4345 -1.5406
   33MOL   H10910413   4.884   0.599   1.887 -1.1575  0.7799  1.4268
   33MOL   H11010414   4.861   0.770   1.887 -0.4334 -1.9992  1.9782
   33MOL   H11110415   4.976   0.691   1.780  0.3462 -2.0282 -0.0289
   33MOL   H11210416   4.499   1.042   1.764  0.4672 -0.5056  0.1932
   33MOL   H11310417   4.554   1.186   1.686  0.6169  0.3929 -1.7437
   33MOL   C11410418   4.488   1.023   1.551 -0.1630 -0.5027  0.0536
   33MOL   O11510419   4.354   1.030   1.576  0.0002 -0.0685  0.1519
   33MOL   C11610420   4.282   0.904   1.553  0.0591  0.8277  0.3661
   33MOL   C11710421   4.129   0.918   1.558 -0.1224  0.0673  0.1719
   33MOL   C11810422   4.066   0.998   1.444  0.2836 -0.3234  0.1636
   33MOL   C11910423   4.517   1.106   1.418  0.5176 -0.2707 -0.1897
   33MOL   H12010424   4.512   0.919   1.531  0.4079  0.0935 -2.4978
   33MOL   H12110425   4.304   0.856   1.457 -0.6668  0.4482  0.3815
   33MOL   H12210426   4.317   0.840   1.634 -1.0935  2.5336  2.2509
   33MOL   H12310427   4.102   0.981   1.643 -0.4578  1.3496 -0.8716
   33MOL   H12410428   4.084   0.822   1.582 -1.8453  0.8658  0.2427
   33MOL   H12510429   4.098   1.102   1.449 -0.5458 -0.1879  3.2874
   33MOL   H12610430   3.957   0.992   1.445  0.2287  0.5797 -0.2165
   33MOL   H12710431   4.096   0.957   1.347  0.7559 -0.4328  0.3538
   33MOL   H12810432   4.472   1.203   1.438 -1.4706 -1.7379  2.9210
   33MOL   H12910433   4.624   1.111   1.400  0.4539 -2.2740 -1.2552
   33MOL   C13010434   4.461   1.045   1.291 -0.9510  0.1267  0.3345
   33MOL   O13110435   4.482   1.125   1.180 -0.5765 -0.6354  0.0159
   33MOL   C13210436   4.415   1.243   1.179  0.1595 -0.0240 -0.0070
   33MOL   C13310437   4.442   1.316   1.045  0.1981 -0.0550  0.9455
   33MOL   C13410438   4.382   1.226   0.933 -0.7292  0.1717  0.6022
   33MOL   C13510439   4.533   0.918   1.248  0.9229 -0.5412 -0.6512
   33MOL   H13610440   4.355   1.025   1.304 -1.2329 -0.5115 -2.5919
   33MOL   H13710441   4.309   1.228   1.199  0.0959  0.6716  0.1905
   33MOL   H13810442   4.450   1.309   1.258  1.2993 -0.5227 -0.0802
   33MOL   H13910443   4.546   1.342   1.024  1.1746 -2.7529  2.1769
   33MOL   H14010444   4.380   1.404   1.030  0.0533  0.0159  1.9153
   33MOL   H14110445   4.420   1.252   0.834  0.9475  0.7931  1.3824
   33MOL   H14210446   4.275   1.237   0.922 -0.6761 -0.0169 -0.1583
   33MOL   H14310447   4.422   1.126   0.951 -1.4562 -0.0175  1.1850
   33MOL   H14410448   4.642   0.924   1.242  1.1347 -2.5541  0.6563
   33MOL   H14510449   4.514   0.842   1.324 -0.7642 -0.2477 -0.7606
   33MOL   C14610450   4.490   0.859   1.106  0.1143 -0.1580 -0.3684
   33MOL   O14710451   4.550   0.731   1.083  0.2468  0.0571  0.3652
   33MOL   C14810452   4.671   0.727   1.000 -0.6572  0.0354 -0.4130
   33MOL   C14910453   4.705   0.577   1.000 -0.4249 -0.0159  0.0274
   33MOL   C15010454   4.850   0.548   0.943 -0.1907 -0.3254 -0.9895
   33MOL   C15110455   4.330   0.832   1.100 -0.0171 -0.1367 -0.5016
   33MOL   H15210456   4.516   0.933   1.031  0.2329  1.2910  1.0631
   33MOL   H15310457   4.655   0.777   0.904  2.5229  3.0502  0.5148
   33MOL   H15410458   4.752   0.780   1.051  0.5977 -0.4147 -1.8970
   33MOL   H15510459   4.628   0.532   0.937 -1.8963 -0.9501  2.4206
   33MOL   H15610460   4.707   0.536   1.101 -0.4824  2.2763  0.9829
   33MOL   H15710461   4.880   0.447   0.971 -0.4832 -0.3559 -0.7801
   33MOL   H15810462   4.914   0.607   1.008  0.7443 -0.0377 -2.1450
   33MOL   H15910463   4.864   0.553   0.835 -0.0497 -2.1574 -1.0708
   33MOL   H16010464   4.314   0.761   1.181 -0.0171 -0.0902 -0.4611
   33MOL   H16110465   4.262   0.909   1.135 -0.1213 -1.6160  2.7553
   33MOL   C16210466   4.274   0.779   0.969 -0.1813 -0.0747 -0.4474
   33MOL   O16310467   4.135   0.751   0.979 -0.4801 -0.0768 -0.8238
   33MOL   C16410468   4.096   0.632   1.050 -0.1506  0.6339  0.4081
   33MOL   C16510469   3.946   0.646   1.098 -0.4250  1.0366 -0.1633
   33MOL   C16610470   3.841   0.652   0.983 -0.5359 -0.0892 -0.6091
   33MOL   C16710471   4.300   0.876   0.854  0.6310 -0.2228 -0.2923
   33MOL   H16810472   4.321   0.681   0.960 -0.8060 -0.5855  1.4738
   33MOL   H16910473   4.120   0.545   0.989 -1.7299  0.2485  0.3166
   33MOL   H17010474   4.156   0.631   1.141  0.2729  0.6276  0.1307
   33MOL   H17110475   3.937   0.724   1.173 -0.7018  0.7796  0.0743
   33MOL   H17210476   3.930   0.551   1.150  0.2325  1.5499  0.9768
   33MOL   H17310477   3.843   0.571   0.910 -0.7143  0.1043 -0.8301
   33MOL   H17410478   3.870   0.732   0.915  0.4456 -0.3688 -0.5202
   33MOL   H17510479   3.737   0.661   1.015 -0.5157  0.9247 -0.8060
   33MOL   H17610480   4.245   0.968   0.875 -0.3523 -0.3770 -2.1084
   33MOL   H17710481   4.407   0.892   0.866  0.6107 -0.6234  0.4505
   33MOL   C17810482   4.267   0.828   0.712  0.2649 -0.7531  0.5043
   33MOL   O17910483   4.152   0.887   0.658 -0.5694  0.2021  0.1526
   33MOL   C18010484   4.020   0.852   0.706  0.8356  0.5633  0.1684
   33MOL   C18110485   3.919   0.919   0.606 -0.1257  0.1279 -1.0312
   33MOL   C18210486   3.927   1.069   0.620 -0.5821  0.0864  0.7191
   33MOL   C18310487   4.379   0.875   0.614  0.0476 -0.0154  0.5254
   33MOL   H18410488   4.250   0.720   0.707 -2.2313 -0.4375  1.4260
   33MOL   H18510489   4.019   0.743   0.707  1.0815  0.5671  2.1878
   33MOL   H18610490   3.999   0.894   0.804 -0.8275 -1.5620  0.7530
   33MOL   H18710491   3.816   0.891   0.631  1.4344 -3.6482  1.6758
   33MOL   H18810492   3.927   0.874   0.508  1.1184 -1.7120 -0.1184
   33MOL   H18910493   3.906   1.123   0.528 -1.7717 -2.7536 -0.7568
   33MOL   H19010494   4.028   1.102   0.641 -1.2382  1.2547  2.0874
   33MOL   H19110495   3.868   1.090   0.709  0.6207 -2.3222  2.1305
   33MOL   H19210496   4.357   0.978   0.587  0.7873 -0.5448 -2.2282
   33MOL   H19310497   4.473   0.864   0.667  1.1017  2.8223 -0.6410
   33MOL   C19410498   4.382   0.785   0.485 -0.2971 -0.0782 -0.3162
   33MOL   O19510499   4.490   0.827   0.402  0.1595  0.1457 -0.7941
   33MOL   C19610500   4.474   0.945   0.330  0.5190 -0.2150  0.1604
   33MOL   C19710501   4.607   0.993   0.301  0.3432  0.1921  0.0963
   33MOL   C19810502   4.615   1.115   0.211 -0.7894 -0.2422 -0.8816
   33MOL   C19910503   4.413   0.637   0.513  0.2747  0.1016 -0.2745
   33MOL   H20010504   4.289   0.789   0.428  0.0606  0.7826 -0.8521
   33MOL   H20110505   4.417   0.932   0.238 -0.8367 -3.4833  1.3655
   33MOL   H20210506   4.423   1.021   0.390 -1.5144 -0.6151 -1.0311
   33MOL   H20310507   4.674   0.913   0.268  0.9217  0.7240 -0.0182
   33MOL   H20410508   4.651   1.023   0.396  2.0839  2.1192 -1.2793
   33MOL   H20510509   4.584   1.201   0.271 -0.0196  0.9502 -2.1457
   33MOL   H20610510   4.570   1.113   0.112 -1.0333 -1.4601 -0.7432
   33MOL   H20710511   4.722   1.130   0.196 -0.8158  1.3116  0.4135
   33MOL   H20810512   4.490   0.650   0.589 -0.8435  0.8608  0.7544
   33MOL   H20910513   4.332   0.585   0.563 -1.2027  1.2096 -1.4697
   33MOL   C21010514   4.465   0.543   0.399 -0.3997  0.1402 -0.1068
   33MOL   O21110515   4.532   0.428   0.451 -0.7659 -0.0098  0.7955
   33MOL   C21210516   4.625   0.370   0.361 -0.1213 -0.2578  0.1373
   33MOL   C21310517   4.642   0.220   0.402 -0.3095 -0.9083 -0.3013
   33MOL   C21410518   4.700   0.224   0.551 -0.2459  0.3506 -0.1898
   33MOL   C21510519   4.347   0.506   0.308 -0.6639  0.2416 -0.1083
   33MOL   H21610520   4.542   0.604   0.352 -0.4750 -0.1342 -0.5895
   33MOL   H21710521   4.586   0.373   0.259  2.6291 -0.8667 -0.9747
   33MOL   H21810522   4.716   0.429   0.354  0.2186 -0.6262  1.3069
   33MOL   H21910523   4.701   0.172   0.324 -0.1439 -0.7378 -0.2817
   33MOL   H22010524   4.545   0.170   0.399 -0.4111 -0.7932  1.0288
   33MOL   H22110525   4.795   0.278   0.550 -0.2516  0.4434  2.3904
   33MOL   H22210526   4.713   0.122   0.588 -0.1947  0.5295  0.2894
   33MOL   H22310527   4.633   0.283   0.614 -0.3961 -0.8807  0.8218
   33MOL   H22410528   4.357   0.403   0.274 -2.2989  0.3604 -0.9887
   33MOL   H22510529   4.253   0.511   0.363 -0.5245  3.3672 -0.0469
   33MOL   C22610530   4.335   0.598   0.179  0.1835  0.3530  0.3636
   33MOL   O22710531   4.453   0.588   0.097 -0.0082 -0.6084 -0.3972
   33MOL   C22810532   4.488   0.697   0.016  0.3742  0.3021 -0.0049
   33MOL   C22910533   4.552   0.642   7.708 -0.2382 -0.5697 -0.3088
   33MOL   C23010534   4.466   0.543   7.627  0.7314  0.9832 -0.0077
   33MOL   C23110535   4.214   0.558   0.090  0.4714 -0.3952 -0.7817
   33MOL   H23210536   4.326   0.698   0.220 -2.3535 -0.0543  0.9272
   33MOL   H23310537   4.403   0.754   7.807  0.5301 -1.5864 -3.5860
   33MOL   H23410538   4.561   0.760   0.066 -0.4084 -1.8159  4.0053
   33MOL   H23510539   4.651   0.603   7.731  0.8625  1.8889 -0.6963
   33MOL   H23610540   4.564   0.731   7.647  0.6346  0.6821  1.6146
   33MOL   H23710541   4.497   0.538   7.523 -3.1027  2.2236 -1.3079
   33MOL   H23810542   4.368   0.589   7.616  0.4396  0.1748 -0.8857
   33MOL   H23910543   4.454   0.444   7.671  2.4067  0.1520 -1.4054
   33MOL   H24010544   4.231   0.585   7.813  0.7627  0.4735 -0.5204
   33MOL   H24110545   4.198   0.451   0.081  2.1636 -0.4987 -3.3134
   33MOL   C24210546   4.089   0.638   0.133  0.0587 -0.0784  0.9934
   33MOL   O24310547   4.107   0.776   0.106 -0.1355  0.2670  0.4767
   33MOL   C24410548   4.067   0.864   0.205  0.2609 -0.0664 -0.3434
   33MOL   C24510549   4.090   1.006   0.153  0.6269 -0.5115  0.3119
   33MOL   C24610550   4.101   1.112   0.263 -0.0494 -0.4888  0.6673
   33MOL   C24710551   3.953   0.579   0.080 -0.1296  0.1690 -0.4797
   33MOL   H24810552   4.072   0.620   0.239  0.6785  0.2051  1.1388
   33MOL   H24910553   3.959   0.853   0.216 -0.2908  2.5697 -2.3652
   33MOL   H25010554   4.121   0.845   0.297 -1.2958  0.3239  0.6686
   33MOL   H25110555   4.004   1.031   0.092  0.2784 -0.0064  1.0066
   33MOL   H25210556   4.176   1.003   0.086  0.6019  0.0576  0.2588
   33MOL   H25310557   4.188   1.109   0.329  1.9597 -0.4119 -1.9181
   33MOL   H25410558   4.008   1.107   0.320 -0.5621 -1.1538 -0.2242
   33MOL   H25510559   4.104   1.212   0.221 -0.0278 -0.5051  0.6303
   33MOL   H25610560   3.941   0.482   0.127  0.0468 -0.4712 -1.7681
   33MOL   H25710561   3.870   0.635   0.123 -0.3597 -0.5002 -0.0558
   33MOL   C25810562   3.927   0.571   7.758  0.1819  0.7553  0.0324
   33MOL   O25910563   3.883   0.437   7.729  0.1090  0.1174 -0.1035
   33MOL   C26010564   3.926   0.397   7.603  0.0648 -0.1985 -0.2772
   33MOL   C26110565   3.889   0.249   7.604 -0.2514 -0.6097  0.3662
   33MOL   C26210566   3.745   0.221   7.614  1.4212  0.3793 -0.7032
   33MOL   C26310567   3.802   0.654   7.730  0.0606  0.8135 -0.1583
   33MOL   H26410568   4.016   0.598   7.701  1.3622 -2.0694  0.4911
   33MOL   H26510569   3.890   0.460   7.522  2.0352  1.0203 -0.2494
   33MOL   H26610570   4.034   0.402   7.590  0.2157  0.8797  1.1438
   33MOL   H26710571   3.941   0.211   7.692 -0.2039  0.9516  1.0322
   33MOL   H26810572   3.930   0.190   7.522  1.1126 -0.3831  0.8639
   33MOL   H26910573   3.699   0.287   7.687 -0.3958 -1.6297  0.0403
   33MOL   H27010574   3.732   0.116   7.640  2.5150  0.6267  0.9256
   33MOL   H27110575   3.692   0.237   7.521  1.5575  1.2829 -0.6241
   33MOL   H27210576   3.763   0.632   7.631 -1.4211 -1.4555  0.8725
   33MOL   H27310577   3.717   0.630   7.795 -0.5714  3.0235 -0.1285
   33MOL   C27410578   3.809   0.806   7.725 -0.0944  0.3524 -0.4336
   33MOL   O27510579   3.890   0.829   7.616 -0.6207 -0.2269  0.7456
   33MOL   C27610580   3.955   0.954   7.605 -0.0615 -0.2710 -0.1687
   33MOL   C27710581   4.028   0.948   7.471  0.2854 -0.3587  0.2074
   33MOL   C27810582   4.127   0.833   7.453  0.1882 -0.1407  0.4644
   33MOL   C27910583   3.673   0.867   7.693 -0.1046  0.4810  0.1214
   33MOL   H28010584   3.856   0.841   7.817 -1.2755  0.4137  0.1613
   33MOL   H28110585   3.891   1.042   7.604  0.1351 -0.1151  0.7212
   33MOL   H28210586   4.031   0.967   7.682  0.0175  3.3036 -0.7379
   33MOL   H28310587   4.089   1.039   7.463 -2.7647  1.6982 -0.6371
   33MOL   H28410588   3.949   0.955   7.397  0.6358  0.0597 -0.1281
   33MOL   H28510589   4.153   0.822   7.348 -1.1293  1.2257 -0.0018
   33MOL   H28610590   4.084   0.739   7.487 -0.1317  0.0503  0.5882
   33MOL   H28710591   4.211   0.856   7.519  1.1172  0.6076 -0.9444
   33MOL   H28810592   3.685   0.947   7.619  1.4038 -0.5009 -0.7038
   33MOL   H28910593   3.607   0.791   7.651  0.0261 -0.5991  1.8244
   33MOL   C29010594   3.609   0.923   7.816  0.3401  0.1849 -0.2288
   33MOL   O29110595   3.655   1.053   0.002  0.1255 -0.3070 -0.4817
   33MOL   C29210596   3.696   1.100   0.130 -0.3844 -0.3417 -0.6450
   33MOL   C29310597   3.704   1.248   0.098  0.0711  0.8399  0.2281
   33MOL   C29410598   3.793   1.279   7.805 -0.9778 -0.3905  0.2122
   33MOL   C29510599   3.452   0.919   7.798  0.6611 -0.0983  0.4599
   33MOL   H29610600   3.640   0.883   0.084  0.4721  2.3800  0.6732
   33MOL   H29710601   3.627   1.081   0.212  3.0694  2.2042  3.0471
   33MOL   H29810602   3.797   1.059   0.142 -0.5878 -0.8631 -0.6814
   33MOL   H29910603   3.725   1.303   0.190 -0.2046 -1.5546  1.7518
   33MOL   H30010604   3.603   1.283   0.075  0.0317  0.1759 -0.6194
   33MOL   H30110605   3.896   1.251   0.000 -0.6344 -0.6519 -1.5471
   33MOL   H30210606   3.789   1.385   7.777  0.1543 -0.8757 -1.9036
   33MOL   H30310607   3.780   1.232   7.707 -2.2514  1.2468 -0.4486
   33MOL   H30410608   3.417   1.011   0.017 -1.4732 -1.2225  1.1170
   33MOL   H30510609   3.423   0.926   7.693  1.3648 -1.8216  0.1391
   33MOL   C30610610   3.385   0.800   0.041  0.3013  0.0196 -0.4199
   33MOL   O30710611   3.397   0.827   0.181 -0.6572 -0.3938 -0.4233
   33MOL   C30810612   3.475   0.718   0.254  0.1872  0.5649  0.0063
   33MOL   C30910613   3.473   0.751   0.403  0.2042  0.0973  0.9417
   33MOL   C31010614   3.578   0.848   0.457 -0.4058 -0.0673  0.1824
   33MOL   C31110615   3.238   0.775   0.002 -0.6119 -0.7263  0.0506
   33MOL   H31210616   3.430   0.702   0.027  1.9282  0.4006  1.8268
   33MOL   H31310617   3.435   0.618   0.237 -0.0447  0.6384  0.1261
   33MOL   H31410618   3.580   0.725   0.226  0.6062  1.2109  1.6973
   33MOL   H31510619   3.491   0.652   0.446 -0.4682 -0.4171  0.0643
   33MOL   H31610620   3.377   0.783   0.445  0.6637  1.5906  0.8586
   33MOL   H31710621   3.568   0.871   0.563  3.3793  1.0064  0.3677
   33MOL   H31810622   3.567   0.943   0.405  0.9220 -0.6202 -1.1203
   33MOL   H31910623   3.679   0.810   0.443  0.1995  0.0860  3.5509
   33MOL   H32010624   3.196   0.696   0.064  1.2418  0.5309  2.9884
   33MOL   H32110625   3.184   0.870   0.011 -1.5802 -1.0079 -2.3312
   33MOL   H32210626   3.240   0.753   7.723  0.8083  0.3758 -0.1544
   34MOL     C110627   1.873   0.196   1.356  0.0633 -0.2611  0.2343
   34MOL     O210628   1.836   0.085   1.440 -0.2976  0.2981 -0.4503
   34MOL     C310629   1.945   0.042   1.514 -0.5598 -0.6965  0.3464
   34MOL     C410630   1.896   7.766   1.610  1.2435 -0.4267 -0.6401
   34MOL     C510631   1.829   0.003   1.733 -0.5864  0.2275 -0.2122
   34MOL     C610632   1.755   0.251   1.270  0.6684  0.2165 -1.0768
   34MOL     H710633   1.956   0.173   1.290  3.0839  3.1202  2.6148
   34MOL     H810634   2.011   7.828   1.438 -1.6174  0.8098 -1.4408
   34MOL     H910635   2.005   0.119   1.562 -2.4178 -0.3714  2.2164
   34MOL    H1010636   1.971   7.708   1.665 -0.0198 -1.9618 -0.4943
   34MOL    H1110637   1.848   7.682   1.561 -0.0772 -0.1350  0.1249
   34MOL    H1210638   1.886   0.090   1.767  0.5478  0.3141 -2.2388
   34MOL    H1310639   1.829   7.769   1.822 -0.8365 -0.4866 -0.7047
   34MOL    H1410640   1.723   0.029   1.726 -1.1530 -1.4217  1.8699
   34MOL    H1510641   1.787   0.330   1.202  2.7693 -0.2298 -0.6210
   34MOL    H1610642   1.744   0.170   1.199  1.1901 -0.8349  0.0397
   34MOL    H1710643   1.899   0.274   1.428  2.0583 -0.6855 -0.0226
   34MOL    C1810644   1.629   0.284   1.354  0.7662  0.1252  0.4270
   34MOL    O1910645   1.550   0.366   1.262  0.3092 -0.3319 -0.1303
   34MOL    C2010646   1.595   0.504   1.269 -0.3270  1.0555 -0.4948
   34MOL    C2110647   1.481   0.582   1.231 -0.3227  0.2093  0.5371
   34MOL    C2210648   1.378   0.587   1.345  0.9035  0.1396 -0.1493
   34MOL    C2310649   1.545   0.164   1.390 -0.1358  0.7145  0.3804
   34MOL    H2410650   1.653   0.334   1.448  0.3930 -1.3017  1.2964
   34MOL    H2510651   1.619   0.534   1.371 -1.8802  0.7345 -0.0222
   34MOL    H2610652   1.674   0.525   1.196 -1.0777  2.4145 -0.9178
   34MOL    H2710653   1.433   0.548   1.139  2.0884  0.2372 -0.7607
   34MOL    H2810654   1.511   0.686   1.220  1.2954 -0.2666  0.3021
   34MOL    H2910655   1.420   0.649   1.424 -0.4169 -0.0735  0.7252
   34MOL    H3010656   1.347   0.488   1.377  1.2203  0.3887  0.9258
   34MOL    H3110657   1.291   0.643   1.310 -0.6166 -1.4821  0.9511
   34MOL    H3210658   1.490   0.134   1.301  1.6042 -0.0618 -0.4454
   34MOL    H3310659   1.602   0.078   1.424 -1.5481 -0.1679  0.5925
   34MOL    C3410660   1.438   0.195   1.502  0.2394 -0.7661  0.0392
   34MOL    O3510661   1.315   0.131   1.482 -0.0185  0.7968  0.1442
   34MOL    C3610662   1.232   0.192   1.380  0.0103 -0.3905 -0.0613
   34MOL    C3710663   1.105   0.124   1.348 -0.5239 -0.0952  0.2051
   34MOL    C3810664   1.024   0.161   1.222  0.2675  0.0006  0.1416
   34MOL    C3910665   1.483   0.152   1.653  0.3041  0.4657 -0.6034
   34MOL    H4010666   1.428   0.304   1.498  0.2732 -0.8126 -2.1323
   34MOL    H4110667   1.207   0.293   1.413 -0.3083  0.3436 -2.4835
   34MOL    H4210668   1.287   0.206   1.287 -0.9678  1.1208 -0.4153
   34MOL    H4310669   1.039   0.136   1.434  0.5051  1.5199  0.8022
   34MOL    H4410670   1.125   0.018   1.336  1.0095  0.4173 -2.1416
   34MOL    H4510671   0.975   0.258   1.228 -2.7783 -1.2534 -2.5652
   34MOL    H4610672   0.957   0.077   1.203  0.4041 -0.4853  1.7395
   34MOL    H4710673   1.079   0.151   1.128 -0.2088  2.1272 -0.3785
   34MOL    H4810674   1.517   0.049   1.647 -1.0230 -0.1161  1.3118
   34MOL    H4910675   1.578   0.203   1.659  1.1827 -1.1032 -0.9200
   34MOL    C5010676   1.392   0.186   1.771 -0.1610 -0.4675  0.5648
   34MOL    O5110677   1.385   0.077   1.860  0.4931  0.2350  0.0423
   34MOL    C5210678   1.271   7.819   1.836  0.8492 -0.1303 -0.2146
   34MOL    C5310679   1.313   7.677   1.861  0.4176 -0.6147 -0.3174
   34MOL    C5410680   1.332   7.652   2.012  0.5752  0.4357  0.0425
   34MOL    C5510681   1.448   0.295   1.859 -0.0968 -1.4526 -0.0239
   34MOL    H5610682   1.294   0.215   1.734 -0.1134  1.6041  2.0024
   34MOL    H5710683   1.181   0.025   1.885 -1.2194 -2.7888 -2.0438
   34MOL    H5810684   1.251   7.822   1.729  2.4954 -1.8402 -0.6031
   34MOL    H5910685   1.409   7.658   1.812  1.5291  1.3920  1.0398
   34MOL    H6010686   1.238   7.612   1.815 -0.0895  1.0372 -1.8600
   34MOL    H6110687   1.427   7.677   2.059 -0.7012  1.0944  2.3486
   34MOL    H6210688   1.314   7.545   2.024 -0.8065  0.5807 -0.6425
   34MOL    H6310689   1.256   7.699   2.075 -0.0235 -0.3525 -0.0774
   34MOL    H6410690   1.383   0.310   1.946  0.2206 -0.0296 -0.0228
   34MOL    H6510691   1.547   0.265   1.893  0.5749  1.6407  0.9029
   34MOL    C6610692   1.470   0.437   1.795 -0.2725  0.6093 -0.7212
   34MOL    O6710693   1.357   0.529   1.796  0.0505 -0.2301  0.5658
   34MOL    C6810694   1.252   0.500   1.707 -0.6430 -0.3780  0.0978
   34MOL    C6910695   1.171   0.615   1.694  0.5476 -0.0136 -0.0392
   34MOL    C7010696   1.236   0.747   1.668  0.0952  0.2083 -0.1162
   34MOL    C7110697   1.574   0.523   1.878 -0.1254 -0.0143  0.5332
   34MOL    H7210698   1.497   0.429   1.690  0.1136 -3.5194 -0.3840
   34MOL    H7310699   1.278   0.476   1.603  0.6367  4.5541 -0.8260
   34MOL    H7410700   1.202   0.417   1.757  1.2499 -2.3828 -1.2460
   34MOL    H7510701   1.090   0.635   1.765 -0.6980  0.8633 -1.6836
   34MOL    H7610702   1.115   0.607   1.601 -1.3668  4.2754  0.5979
   34MOL    H7710703   1.302   0.733   1.583  1.9743  1.5854  1.0761
   34MOL    H7810704   1.273   0.802   1.755  0.0996 -0.6752  0.4448
   34MOL    H7910705   1.158   0.810   1.626 -0.5459 -0.7239 -0.3298
   34MOL    H8010706   1.562   0.631   1.870 -0.8332 -0.1531 -0.3631
   34MOL    H8110707   1.565   0.498   1.983 -0.3949 -0.2324  0.4593
   34MOL    C8210708   1.720   0.492   1.833 -0.4803  0.0304 -0.2079
   34MOL    O8310709   1.746   0.577   1.721 -0.0223  0.2888  0.3025
   34MOL    C8410710   1.844   0.528   1.626  0.7511  0.3849 -0.4445
   34MOL    C8510711   1.853   0.633   1.514 -0.2212  0.2409 -0.6233
   34MOL    C8610712   1.949   0.607   1.399 -0.4607 -0.2278  0.4622
   34MOL    C8710713   1.828   0.526   1.946  0.4569  0.0425 -0.0375
   34MOL    H8810714   1.740   0.387   1.808  2.2200  0.2622  0.7981
   34MOL    H8910715   1.942   0.528   1.673  1.2297  1.1559 -1.4356
   34MOL    H9010716   1.827   0.423   1.603 -0.8120  0.8138 -1.3012
   34MOL    H9110717   1.876   0.731   1.556  1.0025 -0.2084 -0.2329
   34MOL    H9210718   1.759   0.660   1.465 -0.3715  1.5424  0.3457
   34MOL    H9310719   2.047   0.598   1.446 -0.4663 -0.9413  0.3429
   34MOL    H9410720   1.944   0.680   1.318  0.4358  0.4457  1.0075
   34MOL    H9510721   1.930   0.516   1.342 -1.9125 -0.1979  0.8667
   34MOL    H9610722   1.926   0.524   1.898 -0.5482 -0.8304 -2.1384
   34MOL    H9710723   1.808   0.629   1.972  1.0705  0.2489 -0.3852
   34MOL    C9810724   1.819   0.449   2.081 -0.1481  0.1847 -0.2322
   34MOL    O9910725   1.863   0.310   2.056 -0.3220 -0.0362 -0.2953
   34MOL   C10010726   1.821   0.214   2.142  0.3643  0.5502  0.3458
   34MOL   C10110727   1.913   0.092   2.158  0.1268 -0.1032 -0.1036
   34MOL   C10210728   2.050   0.133   2.205  0.1129  0.2813 -0.0373
   34MOL   C10310729   1.927   0.508   2.178  0.0105 -0.4578 -0.0808
   34MOL   H10410730   1.721   0.449   2.129 -0.2302  1.5650 -0.3802
   34MOL   H10510731   1.792   0.252   2.240 -0.2066 -2.2145  1.3212
   34MOL   H10610732   1.724   0.190   2.098  1.8018  1.1788 -3.3503
   34MOL   H10710733   1.924   0.037   2.065  3.0332  2.7010 -1.5209
   34MOL   H10810734   1.872   0.015   2.224  1.6234 -0.1503  0.8034
   34MOL   H10910735   2.105   0.173   2.120 -2.2734  1.4406 -1.0599
   34MOL   H11010736   2.111   0.059   2.256  2.7679  1.5428 -1.2757
   34MOL   H11110737   2.039   0.216   2.276 -2.7185  0.1282 -0.2465
   34MOL   H11210738   1.938   0.434   2.257  0.5788  2.3343  2.5557
   34MOL   H11310739   2.025   0.503   2.132 -0.4783 -0.1999 -1.1529
   34MOL   C11410740   1.900   0.648   2.238  0.2037 -0.6164  0.0885
   34MOL   O11510741   1.816   0.620   2.347 -0.1207  0.1102 -0.3018
   34MOL   C11610742   1.679   0.673   2.329 -0.7877  0.1147  0.2799
   34MOL   C11710743   1.612   0.621   2.459  0.1132 -0.5245  0.3379
   34MOL   C11810744   1.571   0.474   2.430 -0.0157 -0.1945  0.3081
   34MOL   C11910745   2.026   0.724   2.273 -0.2256 -0.1407  0.0487
   34MOL   H12010746   1.843   0.711   2.170  2.8393  2.0900  0.2814
   34MOL   H12110747   1.696   0.780   2.340 -1.3602  0.2304  0.0451
   34MOL   H12210748   1.637   0.640   2.234  0.5819 -3.9487  0.9703
   34MOL   H12310749   1.522   0.681   2.469 -0.1484 -0.8871  0.1718
   34MOL   H12410750   1.676   0.640   2.544  0.1960 -0.4782  0.2654
   34MOL   H12510751   1.503   0.440   2.509  1.1045 -1.0955  0.8899
   34MOL   H12610752   1.655   0.406   2.439 -0.0589 -0.9341 -3.9145
   34MOL   H12710753   1.526   0.462   2.331  1.6403  1.1238 -0.6396
   34MOL   H12810754   2.105   0.659   2.310 -0.8855 -1.8983 -1.5260
   34MOL   H12910755   2.075   0.757   2.181  1.1148  2.2112  1.5736
   34MOL   C13010756   2.005   0.845   2.370  0.4078  0.1010 -0.3619
   34MOL   O13110757   2.124   0.904   2.411  0.2410 -0.2104 -0.1987
   34MOL   C13210758   2.214   0.839   2.504 -0.6841 -0.3518  0.1581
   34MOL   C13310759   2.338   0.925   2.493 -0.1775 -0.0641  0.2355
   34MOL   C13410760   2.465   0.887   2.573 -0.0173 -0.6878  0.0915
   34MOL   C13510761   1.919   0.958   2.298  0.0466  0.1608  0.6462
   34MOL   H13610762   1.959   0.808   2.461  1.5199 -0.6412 -0.0809
   34MOL   H13710763   2.158   0.855   2.596 -0.8163 -1.2170  0.2395
   34MOL   H13810764   2.239   0.734   2.487  1.0728 -0.0187  0.6355
   34MOL   H13910765   2.311   1.025   2.528 -1.2779 -1.1879  2.7034
   34MOL   H14010766   2.370   0.925   2.389  0.7771  1.4577  0.5100
   34MOL   H14110767   2.460   0.892   2.682  2.2688 -1.0294  0.2287
   34MOL   H14210768   2.560   0.928   2.540  0.8340 -2.8450 -0.2507
   34MOL   H14310769   2.489   0.781   2.565  4.0115  0.1850 -0.3549
   34MOL   H14410770   1.822   0.930   2.257  0.4065 -0.7089  0.3846
   34MOL   H14510771   1.892   1.036   2.370 -0.1469  0.8479 -0.1662
   34MOL   C14610772   1.987   1.035   2.176 -0.0991 -0.8757 -0.5175
   34MOL   O14710773   1.973   0.946   2.065  0.2419 -0.1320 -0.0634
   34MOL   C14810774   2.036   0.980   1.940  0.1424  0.4101 -0.0379
   34MOL   C14910775   2.031   0.852   1.858  0.0405  0.2185  0.3988
   34MOL   C15010776   2.106   0.879   1.733 -0.5118 -0.4969  0.2878
   34MOL   C15110777   1.929   1.175   2.155  0.4335  0.0686 -0.0103
   34MOL   H15210778   2.094   1.039   2.195  0.2189 -0.9577 -2.2447
   34MOL   H15310779   1.984   1.053   1.877 -2.2517  1.5909  3.1725
   34MOL   H15410780   2.143   0.991   1.962  0.0760  1.5613 -0.2671
   34MOL   H15510781   1.930   0.820   1.831  0.1990  0.4216 -0.4467
   34MOL   H15610782   2.082   0.778   1.920 -0.5278  0.5533  1.2669
   34MOL   H15710783   2.066   0.969   1.686  3.6371  1.2829 -0.0810
   34MOL   H15810784   2.104   0.791   1.670  0.5740 -1.0905  1.0655
   34MOL   H15910785   2.208   0.911   1.755 -0.3925  0.0924 -1.0748
   34MOL   H16010786   1.936   1.202   2.050  0.3110 -0.0399 -0.0471
   34MOL   H16110787   1.821   1.158   2.151  0.6546 -1.8800  1.2860
   34MOL   C16210788   1.968   1.295   2.245 -0.8657 -0.0758 -0.3862
   34MOL   O16310789   2.049   1.382   2.174 -0.6777 -0.5542  0.1577
   34MOL   C16410790   2.195   1.372   2.187 -0.2113  0.9099  0.0932
   34MOL   C16510791   2.261   1.448   2.074 -0.7319 -0.1574 -0.0689
   34MOL   C16610792   2.224   1.602   2.063 -0.5148  0.4235 -0.1948
   34MOL   C16710793   1.849   1.376   2.293  0.3064  0.0880 -0.8102
   34MOL   H16810794   2.029   1.266   2.331 -2.0126 -2.1078 -0.2408
   34MOL   H16910795   2.224   1.412   2.283 -0.2422 -1.1453  0.9799
   34MOL   H17010796   2.219   1.266   2.186  3.0669  1.5879  0.9539
   34MOL   H17110797   2.230   1.416   1.974  3.3124 -0.9979 -1.1425
   34MOL   H17210798   2.369   1.451   2.084 -0.7309 -0.3953 -0.0168
   34MOL   H17310799   2.297   1.653   2.001  0.2546  0.5034  0.7550
   34MOL   H17410800   2.226   1.658   2.157 -1.0936 -0.9018  0.6215
   34MOL   H17510801   2.125   1.621   2.024 -1.0864  2.0394  1.9215
   34MOL   H17610802   1.882   1.474   2.329 -1.8035  0.2835  0.6724
   34MOL   H17710803   1.792   1.398   2.203 -0.0800  1.0631 -0.3366
   34MOL   C17810804   1.757   1.307   2.396 -0.2705 -0.2801 -0.6665
   34MOL   O17910805   1.828   1.277   2.509  0.0406 -0.0806 -0.2263
   34MOL   C18010806   1.769   1.169   2.584  0.4124 -0.3976 -0.3968
   34MOL   C18110807   1.822   1.163   2.729 -0.4228  0.4044 -0.8804
   34MOL   C18210808   1.975   1.125   2.741 -0.4094 -0.2648  0.6940
   34MOL   C18310809   1.629   1.385   2.421 -0.1303  0.7233 -0.3047
   34MOL   H18410810   1.732   1.214   2.347 -2.9166 -0.2625  0.5883
   34MOL   H18510811   1.661   1.179   2.596  0.7256  1.4293  1.1178
   34MOL   H18610812   1.782   1.072   2.535 -0.4254 -1.5531  1.5980
   34MOL   H18710813   1.754   1.096   2.782  0.6044  1.0423  1.3341
   34MOL   H18810814   1.808   1.253   2.789  1.4111  0.5065 -0.5739
   34MOL   H18910815   2.030   1.208   2.697 -1.2821  0.5419  1.0985
   34MOL   H19010816   2.007   1.026   2.709  0.3642  0.5195 -1.0492
   34MOL   H19110817   2.002   1.124   2.846 -0.1096  0.7547  0.6335
   34MOL   H19210818   1.580   1.347   2.511 -1.9748  2.5585 -0.5189
   34MOL   H19310819   1.656   1.489   2.441  0.4472  0.2933  1.2654
   34MOL   C19410820   1.535   1.391   2.302 -0.9004  0.0134 -0.0604
   34MOL   O19510821   1.481   1.257   2.277 -0.4196  0.2087  0.8752
   34MOL   C19610822   1.478   1.235   2.138  0.9561  0.1482  0.2744
   34MOL   C19710823   1.392   1.110   2.104  0.0116  0.6225 -1.0479
   34MOL   C19810824   1.454   0.987   2.175 -0.2928 -0.0143  0.0598
   34MOL   C19910825   1.414   1.492   2.305  0.2851 -0.8071  0.2200
   34MOL   H20010826   1.593   1.429   2.218  0.0574  2.2543  1.5624
   34MOL   H20110827   1.436   1.325   2.093  0.6922 -0.0186  0.1870
   34MOL   H20210828   1.583   1.225   2.110  0.6084 -0.5123 -0.8049
   34MOL   H20310829   1.372   1.090   1.999  1.4376 -1.1924 -0.9958
   34MOL   H20410830   1.294   1.137   2.142  1.4208  2.1608  1.6290
   34MOL   H20510831   1.378   0.910   2.182  0.0615 -0.3265  0.5467
   34MOL   H20610832   1.500   1.000   2.273  1.3511  0.0868 -0.7016
   34MOL   H20710833   1.544   0.955   2.122  0.1362  1.3223 -0.0388
   34MOL   H20810834   1.349   1.476   2.219  0.5016  0.8146 -0.2545
   34MOL   H20910835   1.355   1.467   2.393 -1.5089  0.1124 -0.6959
   34MOL   C21010836   1.451   1.645   2.315 -0.3680  0.4667 -0.3133
   34MOL   O21110837   1.536   1.681   2.209  0.8219 -0.1818 -0.0598
   34MOL   C21210838   1.667   1.718   2.251  0.2860  0.3392  0.3372
   34MOL   C21310839   1.735   1.740   2.119  0.4946 -0.2335  0.4172
   34MOL   C21410840   1.892   1.764   2.133  0.6489 -0.4721 -0.0914
   34MOL   C21510841   1.322   1.720   2.310 -0.1769  0.2052 -0.4561
   34MOL   H21610842   1.500   1.665   2.410 -0.2471  2.7197 -0.8113
   34MOL   H21710843   1.653   1.809   2.309 -1.1416  1.1272 -1.2297
   34MOL   H21810844   1.722   1.634   2.295  0.0781 -1.2867 -2.3774
   34MOL   H21910845   1.692   1.820   2.059  0.9416 -0.2502  0.0716
   34MOL   H22010846   1.718   1.647   2.064 -0.0260 -1.2068  2.1662
   34MOL   H22110847   1.903   1.833   2.217  1.6526 -0.8997  0.1280
   34MOL   H22210848   1.942   1.795   2.042  1.7245 -3.0987 -0.4499
   34MOL   H22310849   1.942   1.674   2.169 -0.2753 -2.0512 -2.5984
   34MOL   H22410850   1.279   1.703   2.211  2.0617 -1.1390 -1.2381
   34MOL   H22510851   1.243   1.675   2.372  2.4323 -0.5732  2.4314
   34MOL   C22610852   1.345   1.870   2.325 -0.7742  0.0959 -0.4105
   34MOL   O22710853   1.222   1.920   2.280  0.4753 -0.0556 -0.4204
   34MOL   C22810854   1.223   1.963   2.147 -0.0526 -0.5180  0.0272
   34MOL   C22910855   1.082   1.991   2.101  0.5771 -0.6427 -0.0713
   34MOL   C23010856   1.071   2.059   1.974 -0.8122 -0.1851 -0.2787
   34MOL   C23110857   1.365   1.923   2.472 -0.0188 -1.0408  0.5592
   34MOL   H23210858   1.420   1.909   2.257 -2.4366  0.8588 -1.8616
   34MOL   H23310859   1.273   2.060   2.141 -2.8508  0.9811  0.0054
   34MOL   H23410860   1.270   1.896   2.076 -0.1147 -1.8528  1.2262
   34MOL   H23510861   1.040   2.065   2.170 -0.0918 -0.9757 -0.1144
   34MOL   H23610862   1.027   1.897   2.097 -0.7309  0.1601 -1.4777
   34MOL   H23710863   1.125   1.998   1.900  1.7894 -0.4412  1.7553
   34MOL   H23810864   1.123   2.155   1.982 -0.9791 -0.2977  2.6818
   34MOL   H23910865   0.964   2.071   1.958 -0.4325  1.0986 -2.0955
   34MOL   H24010866   1.296   1.880   2.545 -2.0707 -0.3277 -0.9178
   34MOL   H24110867   1.461   1.878   2.498 -0.3052 -3.3330 -1.9990
   34MOL   C24210868   1.372   2.073   2.480 -0.6939  0.7270  0.2580
   34MOL   O24310869   1.263   2.124   2.552  0.9039  0.0923  0.5071
   34MOL   C24410870   1.166   2.185   2.466 -0.7788  0.3765  0.1959
   34MOL   C24510871   1.047   2.243   2.536  0.8094 -0.3389  0.2431
   34MOL   C24610872   0.953   2.322   2.451 -0.0797 -0.1530 -0.2774
   34MOL   C24710873   1.494   2.115   2.561  0.0508 -0.0166  0.1565
   34MOL   H24810874   1.381   2.118   2.381  0.2128 -0.2391 -0.1130
   34MOL   H24910875   1.213   2.274   2.425 -3.3874  2.1571  0.9944
   34MOL   H25010876   1.139   2.123   2.381 -0.9352 -0.3329  0.7497
   34MOL   H25110877   1.093   2.294   2.621 -0.8085  2.5090 -0.5352
   34MOL   H25210878   1.001   2.153   2.577  1.6186 -0.9934 -0.2608
   34MOL   H25310879   0.986   2.425   2.453 -0.9321  0.2170 -2.7099
   34MOL   H25410880   0.855   2.322   2.499 -0.2293 -0.3160 -0.5753
   34MOL   H25510881   0.936   2.287   2.348  1.2707  1.7654 -1.1755
   34MOL   H25610882   1.486   2.219   2.591 -0.0771 -0.5560  2.0547
   34MOL   H25710883   1.501   2.059   2.654  5.3495  0.7225  0.3727
   34MOL   C25810884   1.636   2.085   2.502  0.2821  0.7680 -1.0987
   34MOL   O25910885   1.657   2.179   2.399  0.1195 -0.7758  0.0419
   34MOL   C26010886   1.718   2.123   2.283 -0.4839  0.3195 -0.5597
   34MOL   C26110887   1.706   2.224   2.164 -0.4021 -0.4804 -0.3325
   34MOL   C26210888   1.788   2.352   2.180  0.5951 -0.2267  0.2647
   34MOL   C26310889   1.748   2.111   2.601 -0.1573  0.4551 -0.2804
   34MOL   H26410890   1.642   1.982   2.467 -0.4018  0.4259 -0.2244
   34MOL   H26510891   1.817   2.091   2.315 -0.4507 -1.9138 -2.8201
   34MOL   H26610892   1.652   2.041   2.255  1.9274 -1.8082 -0.1848
   34MOL   H26710893   1.602   2.246   2.138 -0.1469 -1.7220 -2.5111
   34MOL   H26810894   1.745   2.168   2.079 -1.0280 -2.5007  0.6633
   34MOL   H26910895   1.793   2.402   2.083  0.1674  1.1666  0.9507
   34MOL   H27010896   1.892   2.319   2.185  0.9830  0.7208 -1.3158
   34MOL   H27110897   1.776   2.406   2.274  1.6339  0.7866 -0.1693
   34MOL   H27210898   1.821   2.171   2.546  0.9872 -1.8787 -1.4103
   34MOL   H27310899   1.704   2.177   2.675 -2.5069 -2.1904  0.7756
   34MOL   C27410900   1.798   1.983   2.673 -0.6429 -0.0649  0.4167
   34MOL   O27510901   1.878   1.900   2.587  0.1337  0.2173  0.6522
   34MOL   C27610902   1.883   1.764   2.629 -0.1051 -0.8152  0.2301
   34MOL   C27710903   2.006   1.699   2.556 -0.5947 -0.3687  0.2630
   34MOL   C27810904   2.006   1.548   2.583  0.6859  0.5334 -0.0574
   34MOL   C27910905   1.869   2.008   2.808  0.6849  0.4543  0.0798
   34MOL   H28010906   1.705   1.929   2.686 -0.6951 -0.0730  0.0097
   34MOL   H28110907   1.902   1.750   2.736 -2.2994  2.9920  1.2107
   34MOL   H28210908   1.787   1.723   2.602 -0.3940 -1.0935  1.6398
   34MOL   H28310909   2.099   1.745   2.590 -1.2679  0.9282  0.3975
   34MOL   H28410910   1.992   1.713   2.449  1.2699 -2.1872 -0.2484
   34MOL   H28510911   1.900   1.523   2.583  0.7937  0.0697  0.8946
   34MOL   H28610912   2.038   1.525   2.684 -3.5648 -0.3038  1.1932
   34MOL   H28710913   2.061   1.486   2.512  0.7500 -1.7242  1.9409
   34MOL   H28810914   1.970   1.967   2.801  0.8317  0.3237  2.6177
   34MOL   H28910915   1.890   2.113   2.828  0.3326  0.1761  1.9640
   34MOL   C29010916   1.796   1.972   2.946 -0.7271 -1.2139  0.4228
   34MOL   O29110917   1.870   2.047   3.036  0.4944  0.1685 -0.4989
   34MOL   C29210918   1.986   1.976   3.087 -0.3119 -0.0681  0.7958
   34MOL   C29310919   2.095   2.073   3.137 -0.0243 -0.0816  0.3076
   34MOL   C29410920   2.184   2.126   3.029  0.0574  0.5642 -0.0758
   34MOL   C29510921   1.652   2.035   2.950  0.4054 -0.8287  0.3025
   34MOL   H29610922   1.801   1.865   2.967  2.4928 -1.4617 -1.4095
   34MOL   H29710923   1.959   1.908   3.168  2.2371 -1.0531  0.8351
   34MOL   H29810924   2.038   1.915   3.014 -0.1799  1.3806 -0.3567
   34MOL   H29910925   2.173   2.020   3.191 -1.6435  0.0548  2.8904
   34MOL   H30010926   2.047   2.141   3.208 -0.0127  1.1070 -0.8005
   34MOL   H30110927   2.251   2.052   2.986 -0.4009  0.4035 -0.5225
   34MOL   H30210928   2.224   2.224   3.054 -0.4996  0.9882 -0.7997
   34MOL   H30310929   2.114   2.156   2.950 -2.2470  1.9469  2.3812
   34MOL   H30410930   1.653   2.137   2.912 -0.6026 -0.7625  0.4483
   34MOL   H30510931   1.598   1.975   2.877  1.9700 -0.8246 -0.8781
   34MOL   C30610932   1.575   2.023   3.084  0.5785 -0.0925  0.2598
   34MOL   O30710933   1.434   2.056   3.067  0.3759 -1.2379 -0.2480
   34MOL   C30810934   1.420   2.196   3.073 -0.0858  0.0221 -1.1142
   34MOL   C30910935   1.271   2.241   3.068  0.0223  0.4549 -0.2499
   34MOL   C31010936   1.203   2.215   2.935  0.0318  0.2800 -0.4388
   34MOL   C31110937   1.568   1.878   3.131  0.2939  0.0011 -0.1841
   34MOL   H31210938   1.619   2.092   3.156 -0.7732  1.0375  0.0214
   34MOL   H31310939   1.456   2.229   3.171 -1.7052  1.8174 -1.0933
   34MOL   H31410940   1.483   2.252   3.004 -1.9940  3.3382 -0.2551
   34MOL   H31510941   1.265   2.344   3.104  1.5164  0.8609 -1.1277
   34MOL   H31610942   1.230   2.184   3.152  0.5765 -2.4490 -1.8890
   34MOL   H31710943   1.257   2.258   2.850 -0.8303 -2.9375 -2.7173
   34MOL   H31810944   1.104   2.262   2.935 -0.6306 -1.0940 -0.9542
   34MOL   H31910945   1.183   2.110   2.916 -0.8955  0.0162  1.8026
   34MOL   H32010946   1.568   1.797   3.058 -0.3731  1.0535 -1.3753
   34MOL   H32110947   1.658   1.863   3.191 -0.8056 -1.8516  1.0575
   34MOL   H32210948   1.481   1.865   3.196 -1.6245 -0.5400 -2.7522
   35MOL     C110949   3.111   0.339   6.447 -0.0799 -0.4621  0.2140
   35MOL     O210950   3.042   0.284   6.331  0.5879 -0.1128  0.0495
   35MOL     C310951   2.898   0.272   6.340  0.5439  0.3197 -0.5845
   35MOL     C410952   2.840   0.171   6.235  0.1226 -0.6192 -0.4948
   35MOL     C510953   2.845   0.020   6.265  0.0003  0.5982 -0.3461
   35MOL     C610954   3.261   0.353   6.413  0.2073  0.5158  0.6152
   35MOL     H710955   3.089   0.275   6.533 -0.6989  0.6898  0.9377
   35MOL     H810956   2.873   0.236   6.440  4.0763  0.8653  0.5827
   35MOL     H910957   2.860   0.375   6.343  1.3016  0.5778  0.6838
   35MOL    H1010958   2.895   0.186   6.142  0.0248  0.9524 -0.3143
   35MOL    H1110959   2.732   0.180   6.220  0.2630  0.3605 -0.9825
   35MOL    H1210960   2.948   7.812   6.264 -0.7375 -1.5320 -1.5778
   35MOL    H1310961   2.806   7.775   6.195 -1.6599  2.2504 -1.1869
   35MOL    H1410962   2.799   0.005   6.362  1.7721 -1.3503  0.2169
   35MOL    H1510963   3.296   0.250   6.407 -0.6814  0.0700  2.7623
   35MOL    H1610964   3.275   0.412   6.322  2.4775 -1.7848 -0.5861
   35MOL    H1710965   3.063   0.433   6.475 -0.3877  0.2966 -2.7202
   35MOL    C1810966   3.344   0.415   6.523 -0.3494 -0.5023  0.5806
   35MOL    O1910967   3.321   0.349   6.651  0.1490 -0.0574 -0.3689
   35MOL    C2010968   3.266   0.428   6.748 -0.0098 -0.7415 -0.3003
   35MOL    C2110969   3.280   0.378   6.890  0.7169 -0.4372 -0.2332
   35MOL    C2210970   3.423   0.398   6.958  0.3044  0.8677  0.0262
   35MOL    C2310971   3.489   0.420   6.482 -0.1502  0.1134  0.0045
   35MOL    H2410972   3.308   0.518   6.533  0.4799 -0.0279 -1.1564
   35MOL    H2510973   3.315   0.525   6.743 -4.1676  1.3810 -2.7775
   35MOL    H2610974   3.162   0.453   6.729 -0.6718 -1.1916  2.4719
   35MOL    H2710975   3.255   0.272   6.894 -1.3417  0.0824  1.9982
   35MOL    H2810976   3.208   0.430   6.954  1.8944  1.6739 -0.5520
   35MOL    H2910977   3.496   0.331   6.911 -0.6831 -1.6543  2.0207
   35MOL    H3010978   3.421   0.363   7.061  0.2366 -1.7646 -0.8391
   35MOL    H3110979   3.438   0.506   6.959  2.8227  0.5297  1.9305
   35MOL    H3210980   3.517   0.319   6.455 -1.1289 -0.1364 -0.0940
   35MOL    H3310981   3.505   0.471   6.387  0.6577  0.5472  0.3651
   35MOL    C3410982   3.591   0.482   6.587 -0.3062 -0.0033  0.0398
   35MOL    O3510983   3.721   0.425   6.554  0.1097 -0.4740 -0.5363
   35MOL    C3610984   3.742   0.290   6.614  0.3577 -0.1884  0.0876
   35MOL    C3710985   3.870   0.221   6.551 -0.5570  1.0169 -0.0800
   35MOL    C3810986   4.000   0.290   6.577  0.1517  0.1595  0.0124
   35MOL    C3910987   3.618   0.630   6.570 -0.4412 -0.5438 -0.0411
   35MOL    H4010988   3.555   0.465   6.688  0.0892 -1.0244  0.0152
   35MOL    H4110989   3.759   0.301   6.722  1.2717 -0.6243 -0.0074
   35MOL    H4210990   3.654   0.227   6.599  1.2450 -1.3067 -0.4163
   35MOL    H4310991   3.853   0.230   6.444  2.6173 -0.8467 -0.7890
   35MOL    H4410992   3.875   0.120   6.593  0.4108  0.5899 -1.1987
   35MOL    H4510993   3.996   0.393   6.541  0.5213  0.8306  1.8242
   35MOL    H4610994   4.084   0.239   6.530  1.7708  3.5031 -0.8463
   35MOL    H4710995   4.026   0.281   6.683 -0.2460 -1.4659 -0.0118
   35MOL    H4810996   3.647   0.645   6.466  0.3167  1.7517  0.4608
   35MOL    H4910997   3.523   0.678   6.594  0.8822  1.3934  1.5312
   35MOL    C5010998   3.725   0.685   6.665  0.7572  0.5089  0.2836
   35MOL    O5110999   3.762   0.816   6.632 -0.1803  0.3008  0.2117
   35MOL    C5211000   3.852   0.823   6.532 -0.0572  0.2747 -0.4604
   35MOL    C5311001   3.881   0.970   6.500 -0.5899 -0.5828  0.8185
   35MOL    C5411002   3.924   1.053   6.629 -0.0419  0.0282  0.5814
   35MOL    C5511003   3.676   0.681   6.811  0.4123 -0.2335  0.2353
   35MOL    H5611004   3.814   0.623   6.665  0.5949  0.2310 -2.0048
   35MOL    H5711005   3.943   0.766   6.550  0.4210  0.6972 -1.5467
   35MOL    H5811006   3.806   0.778   6.445 -2.0243  0.7105  0.3027
   35MOL    H5911007   3.800   1.028   6.457  1.1773  2.0398  0.9072
   35MOL    H6011008   3.964   0.969   6.429 -2.2738 -2.5448 -1.1873
   35MOL    H6111009   3.867   1.054   6.722 -1.2558 -0.7109 -0.1447
   35MOL    H6211010   3.936   1.157   6.599 -1.3305  0.2714  0.9166
   35MOL    H6311011   4.028   1.029   6.651 -0.0909  0.8543  1.7382
   35MOL    H6411012   3.585   0.740   6.825  0.1829 -0.9416  1.8063
   35MOL    H6511013   3.651   0.581   6.844 -1.9060 -0.4283 -1.9761
   35MOL    C6611014   3.777   0.726   6.921  1.2980 -0.6418  0.8287
   35MOL    O6711015   3.708   0.727   7.041  0.5400  0.0079 -0.2781
   35MOL    C6811016   3.772   0.801   7.149 -0.0981 -0.8258 -0.7108
   35MOL    C6911017   3.725   0.754   7.292 -0.5097 -0.7350  0.8632
   35MOL    C7011018   3.742   0.612   7.329  0.1917  0.4304  0.2259
   35MOL    C7111019   3.900   0.630   6.931  0.2145 -0.2171 -0.6874
   35MOL    H7211020   3.805   0.828   6.898 -0.0337 -0.6243 -0.8398
   35MOL    H7311021   3.879   0.777   7.152 -0.1477 -1.1746 -1.5271
   35MOL    H7411022   3.764   0.908   7.129 -0.6279 -0.3237  2.0685
   35MOL    H7511023   3.625   0.795   7.302  0.2069  1.5165 -0.7638
   35MOL    H7611024   3.778   0.801   7.375 -1.0916  2.1547 -0.3487
   35MOL    H7711025   3.683   0.538   7.274  0.1633  0.3567  0.3552
   35MOL    H7811026   3.729   0.593   7.436 -0.8288 -1.4442 -0.2051
   35MOL    H7911027   3.840   0.569   7.307 -1.1985 -1.2975 -2.8797
   35MOL    H8011028   3.912   0.606   7.037  0.8447 -0.5965 -0.8452
   35MOL    H8111029   3.875   0.535   6.884  2.7704 -1.6041  0.6494
   35MOL    C8211030   4.034   0.689   6.887 -0.2072  0.0165 -0.4225
   35MOL    O8311031   4.086   0.774   6.989  0.2869  0.1834  0.1485
   35MOL    C8411032   4.088   0.908   6.951  0.0468 -1.0260  0.4209
   35MOL    C8511033   4.124   0.999   7.072 -0.1919  0.4911 -0.1593
   35MOL    C8611034   4.122   1.149   7.040 -0.5837  0.1078 -0.2944
   35MOL    C8711035   4.131   0.566   6.858 -0.1190 -0.4007  0.5927
   35MOL    H8811036   4.007   0.743   6.796  1.2472  0.2606 -0.7178
   35MOL    H8911037   4.155   0.925   6.867  0.2224  0.9359  0.9380
   35MOL    H9011038   3.990   0.942   6.917  0.2204 -0.4644  0.4773
   35MOL    H9111039   4.220   0.971   7.114  1.3344  0.1574 -3.7315
   35MOL    H9211040   4.051   0.982   7.151 -0.4820 -0.0396 -0.5345
   35MOL    H9311041   4.020   1.174   7.009 -1.0855 -2.1284 -0.6028
   35MOL    H9411042   4.187   1.166   6.954 -0.7627 -0.0296 -0.4601
   35MOL    H9511043   4.156   1.217   7.117 -0.4051 -0.0033 -0.2760
   35MOL    H9611044   4.157   0.507   6.946  1.7137 -2.2509 -1.1460
   35MOL    H9711045   4.079   0.499   6.790 -0.2682  0.9934 -0.6894
   35MOL    C9811046   4.258   0.605   6.777 -0.0502  0.5806 -0.3306
   35MOL    O9911047   4.325   0.482   6.751  0.4613 -0.6934 -0.0806
   35MOL   C10011048   4.425   0.440   6.846  0.2106 -0.2584  0.5972
   35MOL   C10111049   4.467   0.306   6.788  0.4034  0.2970 -0.2306
   35MOL   C10211050   4.363   0.199   6.778 -0.3490  0.3982  0.1925
   35MOL   C10311051   4.218   0.676   6.647 -0.1204 -0.4234 -0.2401
   35MOL   H10411052   4.324   0.667   6.838  1.7601 -1.7681  0.1746
   35MOL   H10511053   4.510   0.507   6.849 -0.7306  1.1645 -2.4304
   35MOL   H10611054   4.395   0.427   6.950  0.2459 -2.5594  0.3476
   35MOL   H10711055   4.559   0.273   6.836  1.3863  1.4626 -1.2748
   35MOL   H10811056   4.491   0.328   6.684  0.0561 -0.2161 -0.4192
   35MOL   H10911057   4.332   0.166   6.877 -0.3071 -0.3286 -0.0343
   35MOL   H11011058   4.401   0.111   6.728  1.1627  2.2668 -2.0322
   35MOL   H11111059   4.276   0.237   6.726 -0.5834  1.2879  1.2075
   35MOL   H11211060   4.138   0.614   6.606 -0.7016 -0.0624  0.3352
   35MOL   H11311061   4.169   0.769   6.678  0.2321  0.0575 -1.1265
   35MOL   C11411062   4.333   0.704   6.551  0.8589  0.2225 -0.2901
   35MOL   O11511063   4.295   0.768   6.430  0.1410  0.2733  0.1635
   35MOL   C11611064   4.209   0.677   6.347 -0.2909 -0.4133 -0.1534
   35MOL   C11711065   4.224   0.732   6.203 -0.3209 -0.9802 -0.0681
   35MOL   C11811066   4.177   0.886   6.183 -0.3283  0.6189  0.0792
   35MOL   C11911067   4.445   0.794   6.619  0.2899 -0.3897  0.5118
   35MOL   H12011068   4.387   0.614   6.521 -0.2457 -0.4807 -0.2047
   35MOL   H12111069   4.252   0.577   6.343  0.1853 -0.2625  1.2137
   35MOL   H12211070   4.107   0.686   6.383 -0.3117  1.6204 -0.6739
   35MOL   H12311071   4.177   0.655   6.143  4.1342 -1.8804 -2.6025
   35MOL   H12411072   4.328   0.718   6.175 -0.7549  0.4406 -2.5188
   35MOL   H12511073   4.085   0.918   6.231 -0.6845  1.4745 -1.1384
   35MOL   H12611074   4.155   0.888   6.076 -1.4500  4.3818  0.3083
   35MOL   H12711075   4.260   0.951   6.211 -0.2661 -0.5313  2.7110
   35MOL   H12811076   4.400   0.875   6.676 -0.3441 -0.1169 -0.3635
   35MOL   H12911077   4.496   0.744   6.702  1.9396  0.1921 -0.1279
   35MOL   C13011078   4.564   0.855   6.527  0.3702 -0.5699  0.1109
   35MOL   O13111079   4.577   0.992   6.526 -0.1067 -0.7009 -0.2954
   35MOL   C13211080   4.463   1.061   6.465 -0.3035  0.0750  1.0063
   35MOL   C13311081   4.464   1.214   6.496 -0.1209  0.4130  0.4762
   35MOL   C13411082   4.600   1.273   6.456  0.4547 -0.1771  0.2439
   35MOL   C13511083   4.698   0.796   6.566  0.0115  0.3750 -0.4797
   35MOL   H13611084   4.543   0.815   6.428  2.1444  1.4790 -1.1354
   35MOL   H13711085   4.474   1.045   6.358  2.0540 -0.0245  1.2301
   35MOL   H13811086   4.370   1.019   6.502 -0.9191  1.0450  0.5698
   35MOL   H13911087   4.450   1.230   6.603  0.4268 -1.4102  0.8395
   35MOL   H14011088   4.380   1.256   6.440 -0.1964  0.0714  0.3318
   35MOL   H14111089   4.586   1.373   6.417 -2.4538 -1.0650 -1.1148
   35MOL   H14211090   4.647   1.216   6.375  0.8700 -0.3904  0.6309
   35MOL   H14311091   4.680   1.278   6.530  0.2355  0.1430  0.4579
   35MOL   H14411092   4.778   0.835   6.503 -0.2760 -0.5367 -1.4265
   35MOL   H14511093   4.725   0.804   6.672  1.1379  1.9760 -0.8723
   35MOL   C14611094   4.712   0.648   6.526  0.3641  0.1561  0.5722
   35MOL   O14711095   4.716   0.617   6.389 -0.1572 -0.0329  0.9784
   35MOL   C14811096   4.611   0.543   6.331 -0.0238  0.2776 -0.0093
   35MOL   C14911097   4.666   0.497   6.197  0.8691 -0.0694  0.1024
   35MOL   C15011098   4.776   0.389   6.204  0.2165 -0.9360 -0.5099
   35MOL   C15111099   4.850   0.600   6.580  1.1576 -0.0846  0.4453
   35MOL   H15211100   4.639   0.590   6.583 -0.6162  0.1880 -0.6302
   35MOL   H15311101   4.586   0.464   6.403  0.8525  0.8003  0.8783
   35MOL   H15411102   4.516   0.596   6.326  1.2309  2.6572  0.9510
   35MOL   H15511103   4.706   0.581   6.140 -0.0133  0.5040  0.3282
   35MOL   H15611104   4.585   0.462   6.132  1.1848 -1.6973  0.5666
   35MOL   H15711105   4.747   0.299   6.257  0.3858 -1.3479 -1.1047
   35MOL   H15811106   4.860   0.438   6.253 -0.4912  0.4547 -0.6605
   35MOL   H15911107   4.828   0.369   6.110  2.0110  0.8902  0.0605
   35MOL   H16011108   4.929   0.642   6.518 -0.7557  0.1331 -1.9396
   35MOL   H16111109   4.868   0.641   6.680  0.5151  0.3577  0.3858
   35MOL   C16211110   4.870   0.446   6.575  0.2946 -0.8235  0.1594
   35MOL   O16311111   5.004   0.438   6.531 -0.0373 -0.1685  0.4177
   35MOL   C16411112   5.043   0.303   6.503 -0.2570 -0.2160  1.0553
   35MOL   C16511113   5.193   0.312   6.463 -0.5777  0.0707  0.0795
   35MOL   C16611114   5.268   0.179   6.484  0.2254  0.0026  0.5394
   35MOL   C16711115   4.854   0.378   6.716  0.4957 -1.6518  1.3872
   35MOL   H16811116   4.808   0.402   6.497 -0.6698 -0.9270  0.9823
   35MOL   H16911117   5.024   0.237   6.588  0.4115 -1.4796  0.2357
   35MOL   H17011118   4.982   0.253   6.428  0.3206  1.8967 -0.8773
   35MOL   H17111119   5.241   0.368   6.543  1.3755 -1.2242 -0.1457
   35MOL   H17211120   5.215   0.363   6.369 -0.0441 -0.9455 -0.3597
   35MOL   H17311121   5.306   0.158   6.384 -1.0563  3.2014 -0.6929
   35MOL   H17411122   5.197   0.101   6.512  1.9221 -1.6628  0.2787
   35MOL   H17511123   5.360   0.178   6.543  0.9710  0.9527 -0.5739
   35MOL   H17611124   4.748   0.384   6.744  0.7234 -0.4114  2.0040
   35MOL   H17711125   4.856   0.270   6.698 -1.0213 -1.3809 -0.6437
   35MOL   C17811126   4.949   0.418   6.827  0.1144  0.9908  0.6630
   35MOL   O17911127   4.887   0.527   6.897  0.5313  0.5384  0.1435
   35MOL   C18011128   4.996   0.607   6.940 -0.4035 -0.3365 -0.0922
   35MOL   C18111129   4.957   0.753   6.974 -0.1424  0.0558 -0.9328
   35MOL   C18211130   5.081   0.843   7.011 -0.3680 -0.4361 -0.0117
   35MOL   C18311131   4.973   0.318   6.936 -0.0609 -0.1345 -0.4088
   35MOL   H18411132   5.041   0.441   6.773 -0.7117  1.7330 -0.4573
   35MOL   H18511133   5.052   0.563   7.023  0.3124  0.9516  0.1110
   35MOL   H18611134   5.077   0.620   6.869 -0.2720  0.0224  0.1211
   35MOL   H18711135   4.907   0.736   7.070  0.2463  1.6534 -0.4305
   35MOL   H18811136   4.889   0.795   6.900 -1.5130 -1.4036 -0.5431
   35MOL   H18911137   5.034   0.940   6.990  0.5274  0.1649  0.7614
   35MOL   H19011138   5.163   0.838   6.939 -0.0096 -2.6044  0.5349
   35MOL   H19111139   5.120   0.847   7.112 -1.2450  2.1841  0.2598
   35MOL   H19211140   5.014   0.366   7.025 -1.2709 -1.1760  0.7375
   35MOL   H19311141   4.876   0.279   6.968 -0.0497  0.4381  0.3297
   35MOL   C19411142   5.075   0.200   6.902  0.3590 -0.1212  0.1260
   35MOL   O19511143   5.203   0.233   6.951 -1.0762  0.1647 -0.5754
   35MOL   C19611144   5.296   0.237   6.844  0.0270  0.8363  0.1537
   35MOL   C19711145   5.446   0.260   6.890 -0.3336 -0.1015 -0.1112
   35MOL   C19811146   5.491   0.159   6.998 -0.1552  0.3347  0.6425
   35MOL   C19911147   5.039   0.081   6.996  0.6691 -0.4455  0.7660
   35MOL   H20011148   5.070   0.183   6.795  3.6684  3.8711 -0.8023
   35MOL   H20111149   5.280   0.148   6.783 -2.7664  2.3705 -1.4329
   35MOL   H20211150   5.277   0.320   6.775  0.5708  2.3528  1.7787
   35MOL   H20311151   5.468   0.362   6.921  0.4300 -0.7806  1.6216
   35MOL   H20411152   5.506   0.249   6.800  0.4526  2.3425  0.0774
   35MOL   H20511153   5.590   0.191   7.030  0.3846  0.3796 -0.9971
   35MOL   H20611154   5.496   0.053   6.972 -1.3345 -0.1057  2.1459
   35MOL   H20711155   5.421   0.163   7.081 -0.2920 -1.6777  0.6617
   35MOL   H20811156   5.064   0.098   7.101  1.1206  3.3143  0.1464
   35MOL   H20911157   4.932   0.060   6.988  0.6877  0.1155 -1.1382
   35MOL   C21011158   5.112   7.785   6.953  0.6287  0.1089 -0.4429
   35MOL   O21111159   5.061   7.687   7.034  0.1781 -0.1396 -0.1480
   35MOL   C21211160   5.158   7.630   7.121  0.2866 -0.2999 -0.6738
   35MOL   C21311161   5.114   7.482   7.144  0.1930 -1.0241  0.0440
   35MOL   C21411162   4.979   7.464   7.212  0.3468 -0.0928  0.3535
   35MOL   C21511163   5.082   7.724   6.814 -0.6949 -0.3187  0.2570
   35MOL   H21611164   5.220   7.799   6.964 -0.0437  2.6944  3.4965
   35MOL   H21711165   5.254   7.623   7.070  0.6786  1.9293 -0.2786
   35MOL   H21811166   5.154   7.694   7.209 -0.9644 -0.6341 -0.4734
   35MOL   H21911167   5.192   7.430   7.200  1.4625  1.1605  0.3784
   35MOL   H22011168   5.117   7.436   7.045  2.6603  2.1686 -1.4596
   35MOL   H22111169   4.895   7.516   7.165 -0.5259 -1.1651  0.7056
   35MOL   H22211170   4.982   7.495   7.316 -0.4448  2.9096 -0.4632
   35MOL   H22311171   4.961   7.358   7.195  0.8501 -0.1688  0.2908
   35MOL   H22411172   4.974   7.707   6.809 -0.9476  1.0868  0.5787
   35MOL   H22511173   5.097   7.785   6.725  0.7527 -1.7059 -0.4785
   35MOL   C22611174   5.156   7.596   6.774  0.5929  0.8141  0.6532
   35MOL   O22711175   5.096   7.520   6.670  0.4260  0.1917 -0.6483
   35MOL   C22811176   5.012   7.408   6.703  0.0202  0.1169  0.6581
   35MOL   C22911177   4.919   7.363   6.585 -0.1322 -0.3090 -0.1086
   35MOL   C23011178   4.839   7.238   6.620 -0.1412 -0.2761  0.4330
   35MOL   C23111179   5.305   7.631   6.731 -0.0080  0.4918  0.2036
   35MOL   H23211180   5.149   7.536   6.865 -1.2027  1.7841  1.1779
   35MOL   H23311181   5.090   7.333   6.720  1.0201  1.1755  0.7970
   35MOL   H23411182   4.954   7.423   6.794  2.8556  0.2561  2.5442
   35MOL   H23511183   4.982   7.341   6.499 -0.0860 -0.8505  0.0614
   35MOL   H23611184   4.855   7.450   6.571  2.5932  1.8514  0.3599
   35MOL   H23711185   4.789   7.207   6.529 -1.0391  2.0006  0.1149
   35MOL   H23811186   4.768   7.247   6.702 -0.5569 -1.4848  0.2164
   35MOL   H23911187   4.907   7.158   6.648  1.1378  0.8452  0.5991
   35MOL   H24011188   5.306   7.672   6.630 -1.5722  1.0127  0.3923
   35MOL   H24111189   5.350   7.694   6.808 -1.9118 -0.1268  1.8427
   35MOL   C24211190   5.388   7.501   6.712  0.2702 -0.2526  0.4237
   35MOL   O24311191   5.490   7.540   6.620  0.6397 -0.4045 -0.1142
   35MOL   C24411192   5.560   7.429   6.570 -0.0666  0.1001 -0.0495
   35MOL   C24511193   5.652   7.503   6.471 -0.5575  0.1104  0.8176
   35MOL   C24611194   5.752   7.409   6.395 -0.0750 -0.4211  0.7799
   35MOL   C24711195   5.442   7.441   6.848 -0.7894  0.5539  0.1534
   35MOL   H24811196   5.322   7.435   6.656  2.3678 -2.8116  0.8793
   35MOL   H24911197   5.617   7.388   6.653  0.9726 -2.0609 -1.7618
   35MOL   H25011198   5.501   7.359   6.510  2.0264 -1.5384 -0.2744
   35MOL   H25111199   5.704   7.576   6.533 -1.5617  0.1429  1.6270
   35MOL   H25211200   5.593   7.548   6.391 -0.3130  0.3690  0.7774
   35MOL   H25311201   5.685   7.335   6.352 -0.3302  0.2832 -0.0649
   35MOL   H25411202   5.815   7.368   6.474 -1.2255 -1.0262  1.3830
   35MOL   H25511203   5.807   7.469   6.322 -0.0570 -2.6372 -1.0858
   35MOL   H25611204   5.539   7.486   6.865 -0.0939 -1.5969  2.2159
   35MOL   H25711205   5.382   7.473   6.933  2.0368  0.0868  2.4052
   35MOL   C25811206   5.447   7.283   6.859  0.2772  0.1815  0.9594
   35MOL   O25911207   5.520   7.254   6.978 -0.0383  0.2244 -0.5479
   35MOL   C26011208   5.658   7.247   6.969  0.2877  0.3498 -0.6603
   35MOL   C26111209   5.718   7.200   7.094 -0.1430 -0.2054 -0.2255
   35MOL   C26211210   5.874   7.178   7.099  0.4163  0.0764  0.4889
   35MOL   C26311211   5.312   7.219   6.854  0.2001 -0.2793  0.1637
   35MOL   H26411212   5.508   7.244   6.777 -0.2912 -0.4853  0.8498
   35MOL   H26511213   5.692   7.169   6.901 -1.7436 -0.8507 -0.3353
   35MOL   H26611214   5.694   7.343   6.933 -1.4505  2.2904  2.4796
   35MOL   H26711215   5.659   7.111   7.114  1.4791 -0.6838  2.6942
   35MOL   H26811216   5.688   7.271   7.172  0.7084  1.6766 -1.5646
   35MOL   H26911217   5.925   7.275   7.095  1.0602 -0.2958 -0.9319
   35MOL   H27011218   5.900   7.127   7.006 -0.0133  3.3288 -1.5067
   35MOL   H27111219   5.907   7.117   7.183  0.7869  2.1438  1.8846
   35MOL   H27211220   5.240   7.260   6.925  0.2364  1.3608 -0.7104
   35MOL   H27311221   5.278   7.252   6.756  1.0211 -1.3133 -0.4638
   35MOL   C27411222   5.320   7.069   6.838 -0.0571 -0.4175 -0.4692
   35MOL   O27511223   5.434   7.027   6.769  0.0527  0.4521 -0.2890
   35MOL   C27611224   5.416   6.920   6.677  0.3284  0.5357 -0.1352
   35MOL   C27711225   5.363   6.967   6.549  0.1497  0.1016  0.9564
   35MOL   C27811226   5.440   7.081   6.495  0.1113  0.1821  0.0586
   35MOL   C27911227   5.324   7.002   6.979  0.3015  0.2576 -0.7736
   35MOL   H28011228   5.233   7.036   6.781 -0.7063 -0.0115  0.2731
   35MOL   H28111229   5.517   6.881   6.660  0.2973 -0.0176  0.9406
   35MOL   H28211230   5.363   6.831   6.711 -1.0053  0.8404 -1.3733
   35MOL   H28311231   5.265   7.015   6.556  0.0230  0.3912 -1.9821
   35MOL   H28411232   5.368   6.890   6.472  2.9071  2.3025 -1.1754
   35MOL   H28511233   5.441   7.160   6.570  0.7191  0.9810 -0.7809
   35MOL   H28611234   5.383   7.119   6.410 -0.7179  0.8020  0.8721
   35MOL   H28711235   5.540   7.055   6.459 -0.1588  1.0110 -1.3309
   35MOL   H28811236   5.339   6.895   6.968 -0.8189  0.1286 -1.1740
   35MOL   H28911237   5.407   7.040   7.039  0.3067  0.4114 -0.8763
   35MOL   C29011238   5.196   7.024   7.065  0.3422  0.1905 -0.8930
   35MOL   O29111239   5.077   6.982   7.003 -0.2754  0.5958  0.3399
   35MOL   C29211240   4.961   7.064   7.016  0.2166 -0.8689  0.4380
   35MOL   C29311241   4.865   7.017   6.911  0.4951  0.4884 -0.0185
   35MOL   C29411242   4.717   7.062   6.926  0.2240  0.2512  0.6742
   35MOL   C29511243   5.202   6.948   7.197  0.2255 -0.2589 -0.5308
   35MOL   H29611244   5.187   7.133   7.076 -0.9083  0.2153 -2.0427
   35MOL   H29711245   4.917   7.050   7.114  2.1767  2.1605  1.8448
   35MOL   H29811246   4.992   7.168   7.002 -0.0404 -0.9836 -1.0556
   35MOL   H29911247   4.857   6.908   6.920 -1.6778  0.6689  0.5035
   35MOL   H30011248   4.895   7.042   6.810 -2.2335  0.6172 -0.8321
   35MOL   H30111249   4.648   7.012   6.858  1.7064 -0.0237 -0.6415
   35MOL   H30211250   4.699   7.170   6.928 -0.2694  0.1691  0.7814
   35MOL   H30311251   4.681   7.040   7.027 -1.0030 -2.4690 -0.3163
   35MOL   H30411252   5.097   6.930   7.220 -0.7244  3.6755 -1.3980
   35MOL   H30511253   5.243   6.847   7.195  0.0856 -0.3017 -1.7418
   35MOL   C30611254   5.239   7.038   7.321  0.2305  0.0685 -0.5220
   35MOL   O30711255   5.218   6.964   7.443 -0.4516 -0.4922  0.4625
   35MOL   C30811256   5.171   7.039   7.554  0.1376  0.1065  0.7938
   35MOL   C30911257   5.135   6.933   7.659 -0.4045  0.0840 -0.6980
   35MOL   C31011258   5.256   6.862   7.710  0.2271  0.2617 -0.0195
   35MOL   C31111259   5.382   7.093   7.324  0.4528  0.5197 -0.8919
   35MOL   H31211260   5.186   7.133   7.319  3.3842  1.8943 -1.3720
   35MOL   H31311261   5.239   7.118   7.584  1.5796 -0.5155 -0.7525
   35MOL   H31411262   5.084   7.092   7.515  0.0151 -1.3014 -0.8847
   35MOL   H31511263   5.060   6.866   7.617  1.8946 -2.7676 -0.4254
   35MOL   H31611264   5.081   6.984   7.739  0.3085  0.6623 -0.5685
   35MOL   H31711265   5.305   6.928   7.782  0.5265  1.2197 -1.0897
   35MOL   H31811266   5.329   6.838   7.633 -1.2419  1.8020 -1.9568
   35MOL   H31911267   5.225   6.774   7.766 -0.8905  0.6744  0.0285
   35MOL   H32011268   5.447   7.007   7.318  1.1862  0.7482  2.5430
   35MOL   H32111269   5.411   7.158   7.241  1.7424 -0.5739 -1.3032
   35MOL   H32211270   5.401   7.137   7.422  0.7097 -1.7311  0.0891
   36MOL     C111271   6.066   2.772   4.545 -0.2877 -0.2364  0.6061
   36MOL     O211272   6.025   2.773   4.679 -0.4361  0.0423  0.4475
   36MOL     C311273   6.139   2.794   4.763 -0.7631 -0.2225 -0.5438
   36MOL     C411274   6.084   2.812   4.908 -0.7599 -0.8284  0.1072
   36MOL     C511275   6.030   2.950   4.929 -0.4260  0.2074  1.0501
   36MOL     C611276   5.943   2.696   4.476  0.3281  0.4581  0.2466
   36MOL     H711277   6.155   2.711   4.531  0.1270  0.6015 -0.4891
   36MOL     H811278   6.205   2.708   4.751 -0.2753  0.1233 -0.3832
   36MOL     H911279   6.196   2.885   4.746  0.0120 -0.6253 -0.1222
   36MOL    H1011280   6.166   2.794   4.977 -1.5675 -0.1032  1.2802
   36MOL    H1111281   6.010   2.741   4.946 -0.4875 -1.6147 -0.8116
   36MOL    H1211282   6.102   3.032   4.924 -1.0155  0.8061  2.0702
   36MOL    H1311283   5.999   2.959   5.034 -3.1187 -1.2947  0.4435
   36MOL    H1411284   5.936   2.976   4.881  0.0339  0.4283  0.2643
   36MOL    H1511285   5.928   2.596   4.517 -1.8642 -0.7138 -3.1939
   36MOL    H1611286   5.849   2.747   4.499  0.3545  0.5209  0.2165
   36MOL    H1711287   6.083   2.871   4.503  0.5191 -0.9170 -0.7039
   36MOL    C1811288   5.945   2.691   4.320  0.2879 -0.1375 -0.6093
   36MOL    O1911289   6.056   2.606   4.284 -0.6870 -0.2343 -0.7696
   36MOL    C2011290   6.105   2.599   4.157 -0.6008 -0.2884  0.1356
   36MOL    C2111291   6.200   2.474   4.153 -0.4225 -0.0763 -0.3537
   36MOL    C2211292   6.343   2.504   4.215  0.1542 -0.6376  0.2832
   36MOL    C2311293   5.807   2.626   4.280  0.5143 -0.5496  0.5591
   36MOL    H2411294   5.959   2.789   4.273  0.3266  0.2189  0.1335
   36MOL    H2511295   6.020   2.587   4.089 -1.3520 -0.7647  1.1396
   36MOL    H2611296   6.145   2.695   4.125 -2.1205  0.4453  0.3688
   36MOL    H2711297   6.221   2.453   4.048  1.1217  1.9052 -0.4789
   36MOL    H2811298   6.148   2.383   4.182  0.2334 -0.2348  0.3242
   36MOL    H2911299   6.332   2.586   4.286 -0.1406 -1.7054  1.4906
   36MOL    H3011300   6.412   2.536   4.138  1.0266 -0.7477  1.0103
   36MOL    H3111301   6.385   2.413   4.258  1.0909 -1.0227 -1.3907
   36MOL    H3211302   5.815   2.544   4.209 -0.3980 -0.1934  0.0311
   36MOL    H3311303   5.753   2.574   4.359 -2.0651 -0.0077 -0.7929
   36MOL    C3411304   5.709   2.722   4.207  0.4697 -0.1912 -0.0075
   36MOL    O3511305   5.673   2.829   4.299 -0.5232 -0.2002  0.4003
   36MOL    C3611306   5.544   2.832   4.352 -0.2382  0.9697 -0.3640
   36MOL    C3711307   5.521   2.983   4.385 -0.1698 -0.1399  0.4305
   36MOL    C3811308   5.476   3.079   4.270  0.0775 -0.2717  0.5073
   36MOL    C3911309   5.761   2.765   4.073  0.7430  0.3631 -0.2613
   36MOL    H4011310   5.624   2.655   4.192  0.0758  0.1636  0.6097
   36MOL    H4111311   5.467   2.787   4.290 -1.6022  0.9650  1.3000
   36MOL    H4211312   5.546   2.770   4.441  1.3585  2.7126  0.8655
   36MOL    H4311313   5.602   3.020   4.447  2.1384 -2.5966 -0.9916
   36MOL    H4411314   5.437   2.979   4.454 -0.9485  1.1277 -0.4407
   36MOL    H4511315   5.445   3.174   4.314  1.3713 -0.6717  2.3448
   36MOL    H4611316   5.399   3.042   4.203  0.8950  0.1089 -0.6509
   36MOL    H4711317   5.563   3.101   4.208  1.4035 -0.7071  2.1603
   36MOL    H4811318   5.840   2.839   4.081 -1.7553  3.1058  0.0282
   36MOL    H4911319   5.810   2.685   4.018 -1.0789  0.5380 -2.2371
   36MOL    C5011320   5.647   2.830   3.989  0.0325 -0.0779  0.2078
   36MOL    O5111321   5.709   2.850   3.861 -0.4059 -0.1439  0.4834
   36MOL    C5211322   5.748   2.983   3.824  0.7217 -0.6884  0.7529
   36MOL    C5311323   5.839   2.991   3.698  0.1856 -0.3105  0.3573
   36MOL    C5411324   5.977   2.921   3.720 -0.2742 -0.3756  0.3437
   36MOL    C5511325   5.506   2.763   3.968  0.0437 -0.6343 -0.1948
   36MOL    H5611326   5.635   2.927   4.036 -0.7878  1.1443 -2.4506
   36MOL    H5711327   5.657   3.037   3.799  2.4712  2.3024  0.6514
   36MOL    H5811328   5.779   3.050   3.903 -1.3026  1.3699 -0.1471
   36MOL    H5911329   5.864   3.094   3.676  1.9488 -1.0528 -1.3057
   36MOL    H6011330   5.790   2.952   3.609 -0.6280 -2.9634  1.9082
   36MOL    H6111331   6.051   2.971   3.783  0.3056 -0.6459 -0.1133
   36MOL    H6211332   6.031   2.912   3.625 -2.2739 -1.0986 -0.7441
   36MOL    H6311333   5.967   2.823   3.766 -0.9057 -0.0595  0.8810
   36MOL    H6411334   5.529   2.664   3.929  0.5939 -0.7705  0.4652
   36MOL    H6511335   5.450   2.758   4.061  0.3152 -1.1062 -0.0580
   36MOL    C6611336   5.424   2.836   3.858 -0.0101  0.2713  0.1786
   36MOL    O6711337   5.311   2.747   3.846  0.3874  0.1346  0.5757
   36MOL    C6811338   5.328   2.655   3.742  0.1572  0.1593 -0.3657
   36MOL    C6911339   5.214   2.555   3.763  0.2455 -0.0519 -0.0280
   36MOL    C7011340   5.184   2.471   3.636  0.9024 -0.0044  0.4326
   36MOL    C7111341   5.364   2.982   3.888 -0.0359 -0.3034 -0.3232
   36MOL    H7211342   5.485   2.834   3.768 -1.5625 -0.0199 -0.8750
   36MOL    H7311343   5.318   2.693   3.640 -1.8679  1.9324  0.4488
   36MOL    H7411344   5.425   2.606   3.735 -0.4900 -1.1041 -0.7012
   36MOL    H7511345   5.130   2.619   3.790 -0.0955 -0.9835  1.1713
   36MOL    H7611346   5.225   2.497   3.855  2.0850  0.7460  0.2776
   36MOL    H7711347   5.155   2.531   3.549 -3.1887 -1.4155  0.7139
   36MOL    H7811348   5.102   2.402   3.659  0.3799 -0.1333 -1.6644
   36MOL    H7911349   5.259   2.396   3.611  0.4034 -0.5263  0.4778
   36MOL    H8011350   5.288   2.971   3.965 -1.9105  3.8219 -1.4635
   36MOL    H8111351   5.439   3.050   3.928 -0.5560 -0.0189  0.1754
   36MOL    C8211352   5.295   3.063   3.771 -0.3972  0.3132 -0.5484
   36MOL    O8311353   5.253   3.193   3.831  0.2928 -0.1603  0.3064
   36MOL    C8411354   5.118   3.191   3.891 -0.6214 -0.6271 -0.4556
   36MOL    C8511355   5.106   3.235   4.039  0.2027  0.3992  0.3727
   36MOL    C8611356   5.146   3.380   4.055 -0.4736  0.2682  0.1974
   36MOL    C8711357   5.394   3.096   3.661  0.4086  0.0075  0.7497
   36MOL    H8811358   5.206   3.009   3.738 -0.3183 -0.5819  0.6936
   36MOL    H8911359   5.054   3.256   3.830 -0.0022  0.7913  0.3787
   36MOL    H9011360   5.081   3.089   3.894 -3.0251  0.2021  0.0505
   36MOL    H9111361   5.180   3.179   4.095 -1.4003 -0.6606  1.4869
   36MOL    H9211362   5.010   3.205   4.082 -0.1397 -0.6304 -1.0674
   36MOL    H9311363   5.067   3.442   4.012 -0.2626 -1.0328 -2.1126
   36MOL    H9411364   5.243   3.396   4.008 -0.6772  0.6833 -0.0927
   36MOL    H9511365   5.158   3.408   4.160 -0.3553  0.2240  0.1959
   36MOL    H9611366   5.490   3.137   3.693  1.2708  0.6987 -2.5414
   36MOL    H9711367   5.436   3.005   3.618 -1.0139  0.7864 -2.4125
   36MOL    C9811368   5.351   3.194   3.549  0.1061 -0.2016 -0.4780
   36MOL    O9911369   5.467   3.236   3.491 -0.4507 -1.1302  0.0936
   36MOL   C10011370   5.468   3.346   3.401 -0.1815  0.3886 -0.3022
   36MOL   C10111371   5.605   3.398   3.371  0.0882  0.1693  0.6397
   36MOL   C10211372   5.670   3.469   3.484 -0.0357  0.0217 -0.3032
   36MOL   C10311373   5.263   3.124   3.448  0.4352 -0.2134  0.4805
   36MOL   H10411374   5.297   3.276   3.596 -0.8951 -1.9267  1.4634
   36MOL   H10511375   5.421   3.308   3.310  1.0677 -1.1328 -0.3362
   36MOL   H10611376   5.415   3.431   3.444  3.8401  2.3703  0.9695
   36MOL   H10711377   5.596   3.472   3.291  3.3279  1.6833  1.5955
   36MOL   H10811378   5.668   3.316   3.334  2.1278  1.5721  0.9308
   36MOL   H10911379   5.778   3.471   3.469 -0.1535  0.8961 -1.0533
   36MOL   H11011380   5.648   3.408   3.572  0.4178  0.0283 -0.1852
   36MOL   H11111381   5.645   3.574   3.498 -1.0905 -0.3265  0.5071
   36MOL   H11211382   5.272   3.171   3.350 -1.6241  1.7802  1.1926
   36MOL   H11311383   5.291   3.021   3.427  1.9016  0.0663  0.9895
   36MOL   C11411384   5.114   3.140   3.472  0.1981 -0.2510  0.2718
   36MOL   O11511385   5.095   3.276   3.435  0.4526 -0.0656  0.8684
   36MOL   C11611386   4.995   3.335   3.512  0.9990  0.1577 -0.3840
   36MOL   C11711387   4.998   3.490   3.511  0.0185  0.1678  0.0309
   36MOL   C11811388   5.096   3.544   3.615 -0.5726 -0.0253 -0.1835
   36MOL   C11911389   5.014   3.050   3.391 -1.0912 -0.4135 -0.8532
   36MOL   H12011390   5.088   3.114   3.575  0.2531  4.1495  1.5174
   36MOL   H12111391   4.893   3.307   3.485  0.4491  1.6938  0.0332
   36MOL   H12211392   5.001   3.303   3.616 -1.4422 -0.3917 -0.3808
   36MOL   H12311393   4.903   3.529   3.548  0.2099  1.5882 -0.9443
   36MOL   H12411394   5.011   3.535   3.413 -2.7807  0.1357 -0.3857
   36MOL   H12511395   5.080   3.511   3.718 -0.7801 -0.5714 -0.3914
   36MOL   H12611396   5.086   3.652   3.627  1.2646 -0.1430  3.1813
   36MOL   H12711397   5.198   3.533   3.577 -0.9178 -0.8508 -0.8699
   36MOL   H12811398   4.911   3.085   3.398 -0.1676  2.0545  0.8973
   36MOL   H12911399   5.042   3.057   3.286  0.0012  1.2912 -0.4724
   36MOL   C13011400   5.012   2.906   3.439  0.4946  0.1427 -0.1270
   36MOL   O13111401   4.937   2.910   3.562 -0.1720 -0.2653  0.4248
   36MOL   C13211402   4.972   2.801   3.650  0.2207 -0.2850  0.5613
   36MOL   C13311403   4.887   2.825   3.767  0.5494  0.4602  1.2709
   36MOL   C13411404   4.738   2.809   3.742 -0.7058  0.8278 -0.0511
   36MOL   C13511405   4.935   2.810   3.350 -0.0422 -0.1618 -0.4206
   36MOL   H13611406   5.115   2.874   3.459  0.6264  1.7337  1.9415
   36MOL   H13711407   4.937   2.704   3.614  0.8537  0.7228 -3.0190
   36MOL   H13811408   5.078   2.799   3.674  0.8100 -0.7662 -1.9537
   36MOL   H13911409   4.901   2.925   3.808  0.3745  0.9627  0.1381
   36MOL   H14011410   4.925   2.767   3.850 -1.8760 -1.4923  1.0790
   36MOL   H14111411   4.698   2.858   3.653 -1.6801  0.9637  0.4509
   36MOL   H14211412   4.692   2.860   3.827 -1.2484 -2.2321  1.5830
   36MOL   H14311413   4.713   2.703   3.752  1.6929  0.2399 -0.0563
   36MOL   H14411414   4.893   2.725   3.405 -0.0950  0.8993  1.1909
   36MOL   H14511415   4.842   2.858   3.317  1.4346  3.8118  0.9408
   36MOL   C14611416   5.005   2.767   3.219  0.4069 -0.0860 -0.5299
   36MOL   O14711417   5.128   2.710   3.265 -0.2269  0.3563 -0.2411
   36MOL   C14811418   5.248   2.742   3.198  0.8207  0.9352 -0.0578
   36MOL   C14911419   5.356   2.654   3.268  0.7102  0.4479  0.1206
   36MOL   C15011420   5.331   2.505   3.239 -0.1722 -0.1843  0.3260
   36MOL   C15111421   4.941   2.662   3.131  0.2086  0.1394  0.1063
   36MOL   H15211422   5.047   2.844   3.155 -1.2235 -0.5716 -2.2052
   36MOL   H15311423   5.240   2.716   3.093 -1.3284  1.3522 -0.0064
   36MOL   H15411424   5.273   2.848   3.208  1.9544  0.6966 -0.2709
   36MOL   H15511425   5.357   2.671   3.376  1.5791 -1.1128  0.3700
   36MOL   H15611426   5.451   2.688   3.226  0.2040  0.7354 -0.8226
   36MOL   H15711427   5.404   2.441   3.288 -0.3885  0.4242  1.4648
   36MOL   H15811428   5.341   2.483   3.133  0.8796 -2.4328  0.8754
   36MOL   H15911429   5.238   2.469   3.283 -0.9014 -1.5806 -2.2852
   36MOL   H16011430   5.016   2.602   3.079  0.0200  0.1291 -0.1516
   36MOL   H16111431   4.898   2.585   3.195 -0.3072 -0.0376 -0.4491
   36MOL   C16211432   4.826   2.708   3.038 -0.4462  0.9047 -0.4394
   36MOL   O16311433   4.868   2.821   2.958  0.1288 -0.6726  0.3182
   36MOL   C16411434   4.956   2.808   2.855 -0.0439  0.0776  0.6133
   36MOL   C16511435   5.010   2.943   2.811  0.4416  0.7982 -0.0594
   36MOL   C16611436   5.091   3.011   2.916  0.3437  0.2571 -0.3651
   36MOL   C16711437   4.766   2.602   2.946  0.0157 -0.4607 -0.0935
   36MOL   H16811438   4.749   2.750   3.101  0.4488  0.3958  1.0285
   36MOL   H16911439   5.050   2.755   2.870 -0.7614 -1.5226 -0.4043
   36MOL   H17011440   4.904   2.751   2.778 -0.9080 -0.1532  1.3599
   36MOL   H17111441   4.921   2.998   2.778 -0.3044 -0.4091 -0.0798
   36MOL   H17211442   5.077   2.937   2.725 -3.5723 -1.6749 -3.2328
   36MOL   H17311443   5.126   3.107   2.876  1.1320  0.7040  1.3547
   36MOL   H17411444   5.178   2.956   2.952 -0.6916  0.2387  2.1948
   36MOL   H17511445   5.035   3.034   3.007  0.8059  0.0249 -0.0213
   36MOL   H17611446   4.703   2.655   2.875  0.5150 -2.2538 -1.9130
   36MOL   H17711447   4.842   2.562   2.878  1.2264  3.1905 -0.9903
   36MOL   C17811448   4.686   2.477   3.007  0.9635 -0.8174 -0.0673
   36MOL   O17911449   4.559   2.506   3.066  0.3846 -0.0692  0.3806
   36MOL   C18011450   4.456   2.577   2.992 -0.3631 -0.5628 -0.1993
   36MOL   C18111451   4.328   2.569   3.091 -0.2391  0.0887  0.4246
   36MOL   C18211452   4.280   2.417   3.103  0.6647  0.3445  0.0031
   36MOL   C18311453   4.677   2.355   2.915  0.7888  0.3020 -0.8312
   36MOL   H18411454   4.754   2.439   3.083  3.7543  0.4463 -1.8612
   36MOL   H18511455   4.499   2.675   2.975  2.0413 -1.3441  1.1730
   36MOL   H18611456   4.437   2.533   2.893  0.6516 -0.6362 -0.3674
   36MOL   H18711457   4.250   2.633   3.048 -1.4154 -0.4181  1.7586
   36MOL   H18811458   4.350   2.609   3.190  0.9381 -1.7330  0.9143
   36MOL   H18911459   4.185   2.413   3.156 -0.3488 -0.1330 -1.8109
   36MOL   H19011460   4.361   2.371   3.160  2.5836  1.7273 -1.5417
   36MOL   H19111461   4.261   2.368   3.007  1.3946  1.2686 -0.6258
   36MOL   H19211462   4.602   2.383   2.842  0.4927  0.1365 -0.5925
   36MOL   H19311463   4.768   2.336   2.858  1.3064 -1.1807  0.4437
   36MOL   C19411464   4.628   2.222   2.985  0.4095  0.0779 -1.2415
   36MOL   O19511465   4.591   2.144   2.880  0.3600  0.4267  0.8015
   36MOL   C19611466   4.482   2.053   2.903  0.2121  0.8230 -0.1947
   36MOL   C19711467   4.470   1.971   2.775 -0.6756  0.7130 -0.3125
   36MOL   C19811468   4.580   1.862   2.755 -0.3037 -0.3467 -0.3045
   36MOL   C19911469   4.739   2.154   3.074  0.1890 -0.0016 -0.7410
   36MOL   H20011470   4.549   2.243   3.056  0.0523  0.3199 -1.7097
   36MOL   H20111471   4.501   1.981   2.982 -1.8582  0.1733 -0.2666
   36MOL   H20211472   4.385   2.100   2.919 -0.3376 -0.7415  1.1442
   36MOL   H20311473   4.481   2.040   2.692 -0.0101  1.2666  0.2255
   36MOL   H20411474   4.372   1.927   2.760 -1.1851  0.8834  2.3171
   36MOL   H20511475   4.679   1.906   2.764 -1.9071  3.4704 -0.0705
   36MOL   H20611476   4.559   1.814   2.659 -0.0971 -2.0305  0.4708
   36MOL   H20711477   4.577   1.780   2.826 -0.2998 -1.2609 -1.3434
   36MOL   H20811478   4.744   2.191   3.176 -0.6102 -1.1818 -0.2662
   36MOL   H20911479   4.706   2.052   3.091  0.3638 -0.2645 -1.9308
   36MOL   C21011480   4.888   2.148   3.011  0.0728  0.5472  0.3046
   36MOL   O21111481   4.976   2.131   3.116 -0.0689  0.0259  0.1376
   36MOL   C21211482   5.010   2.258   3.177 -0.0758  0.2300 -0.7129
   36MOL   C21311483   5.056   2.234   3.325  0.7965 -0.2642  0.5458
   36MOL   C21411484   5.195   2.177   3.351  0.1778  0.1881 -0.4831
   36MOL   C21511485   4.911   2.036   2.905  0.0264  0.0921 -0.1056
   36MOL   H21611486   4.912   2.240   2.957 -2.1544  0.6526 -0.5479
   36MOL   H21711487   5.086   2.312   3.121  1.4371  0.0398  1.1251
   36MOL   H21811488   4.929   2.331   3.191 -0.3543 -0.2328  0.1271
   36MOL   H21911489   4.983   2.173   3.377  2.6084 -0.7601  2.5662
   36MOL   H22011490   5.047   2.328   3.380  0.0588  0.0287 -0.0711
   36MOL   H22111491   5.265   2.257   3.325 -1.0067  1.3230 -0.2005
   36MOL   H22211492   5.209   2.081   3.301 -0.9195 -1.2937  1.9866
   36MOL   H22311493   5.198   2.155   3.457 -3.2769 -1.8204 -0.7394
   36MOL   H22411494   4.870   1.943   2.946  1.2696 -0.4890 -0.1711
   36MOL   H22511495   4.849   2.061   2.819 -0.6051 -1.7711 -0.2368
   36MOL   C22611496   5.054   2.003   2.873 -0.0859 -0.4276  0.3644
   36MOL   O22711497   5.047   1.897   2.778 -0.1408 -0.1540  0.0574
   36MOL   C22811498   5.061   1.768   2.833 -0.2346 -0.1273  1.0811
   36MOL   C22911499   5.049   1.678   2.704 -0.0886 -0.6096 -0.4078
   36MOL   C23011500   4.900   1.674   2.660 -0.5243 -0.0966 -0.7142
   36MOL   C23111501   5.129   2.129   2.814  0.1416  0.2004 -0.3949
   36MOL   H23211502   5.109   1.974   2.963 -0.7976 -0.8270  0.6770
   36MOL   H23311503   5.160   1.756   2.875  0.4221  2.5353  0.4094
   36MOL   H23411504   4.993   1.738   2.913 -1.5117  0.4174  0.2123
   36MOL   H23511505   5.081   1.578   2.733 -0.6938 -0.3958  1.0020
   36MOL   H23611506   5.117   1.700   2.621  1.4142 -0.4580  0.8426
   36MOL   H23711507   4.874   1.590   2.596 -1.5770  2.2489 -3.5060
   36MOL   H23811508   4.867   1.762   2.605 -0.3945 -0.1872 -0.9362
   36MOL   H23911509   4.827   1.669   2.741  0.5588  1.4782  0.3698
   36MOL   H24011510   5.089   2.142   2.714 -0.3696  1.4352 -0.0342
   36MOL   H24111511   5.110   2.220   2.871 -0.3131  0.8293 -1.5455
   36MOL   C24211512   5.283   2.112   2.804 -0.0074  0.0842  0.0450
   36MOL   O24311513   5.335   2.168   2.683  0.1257 -0.0149 -0.3192
   36MOL   C24411514   5.354   2.093   2.571 -1.3197  0.3071  0.1452
   36MOL   C24511515   5.240   2.034   2.494 -0.6430 -0.0546  0.4401
   36MOL   C24611516   5.284   1.960   2.358  0.4750  0.2645 -0.0904
   36MOL   C24711517   5.361   2.187   2.919 -0.2157  0.0372  0.2136
   36MOL   H24811518   5.302   2.005   2.805 -1.0724 -0.1454 -1.8405
   36MOL   H24911519   5.423   2.145   2.505 -2.7666 -0.6690 -2.2117
   36MOL   H25011520   5.414   2.007   2.601 -1.3515  0.1865 -0.1322
   36MOL   H25111521   5.169   2.110   2.461 -0.3969  0.8770  1.9985
   36MOL   H25211522   5.177   1.964   2.548 -0.1159 -1.1671 -0.3689
   36MOL   H25311523   5.315   1.860   2.390  0.0374 -0.6071 -2.2889
   36MOL   H25411524   5.369   2.002   2.304  0.4948 -0.1178 -0.3615
   36MOL   H25511525   5.196   1.939   2.297  1.3359  0.7764 -1.5477
   36MOL   H25611526   5.352   2.294   2.902 -1.0291 -0.1537 -0.6144
   36MOL   H25711527   5.317   2.159   3.014 -0.4013  1.0498  0.4334
   36MOL   C25811528   5.517   2.145   2.926 -0.1257 -0.0101  0.0783
   36MOL   O25911529   5.585   2.251   3.006  0.4994  0.3578 -0.1702
   36MOL   C26011530   5.729   2.249   2.998 -0.0009  0.3162  0.1325
   36MOL   C26111531   5.784   2.390   3.018 -0.1182  0.3434  0.4113
   36MOL   C26211532   5.778   2.435   3.164  0.2773 -0.9772  0.3250
   36MOL   C26311533   5.531   2.009   3.010 -0.3510 -0.5992 -0.0565
   36MOL   H26411534   5.556   2.147   2.824 -0.8970  0.2224 -0.2186
   36MOL   H26511535   5.773   2.184   3.073 -1.7572 -1.2458 -0.1547
   36MOL   H26611536   5.767   2.214   2.902 -0.9118 -0.6731  0.1255
   36MOL   H26711537   5.726   2.460   2.958  1.8663  1.7633  0.0977
   36MOL   H26811538   5.887   2.413   2.990 -0.5008  1.1457 -0.3802
   36MOL   H26911539   5.677   2.421   3.204 -0.2633 -0.9674 -1.0171
   36MOL   H27011540   5.809   2.539   3.175  1.0240 -1.3146  1.5539
   36MOL   H27111541   5.842   2.373   3.227  0.6337 -0.7405  0.1934
   36MOL   H27211542   5.587   2.026   3.102 -0.1315 -0.0151 -0.2990
   36MOL   H27311543   5.437   1.958   3.034  0.0690 -0.2766  2.3530
   36MOL   C27411544   5.616   1.906   2.931 -0.5627  0.5103 -0.3279
   36MOL   O27511545   5.746   1.940   2.964  0.2851 -0.2061  0.0916
   36MOL   C27611546   5.830   1.946   2.855  0.5131 -0.2117  0.3005
   36MOL   C27711547   5.980   1.956   2.917  0.4452  0.3874  0.0307
   36MOL   C27811548   6.080   1.958   2.802 -0.1396  0.1196 -0.3608
   36MOL   C27911549   5.578   1.761   2.986 -0.3348 -0.3133 -0.6907
   36MOL   H28011550   5.587   1.917   2.827  0.1969  1.0041 -0.4923
   36MOL   H28111551   5.823   1.865   2.783 -0.6105  1.2966 -1.3314
   36MOL   H28211552   5.803   2.035   2.798  1.2570  0.1113  0.4354
   36MOL   H28311553   6.000   1.877   2.990  2.2026  1.6434  0.9333
   36MOL   H28411554   5.979   2.053   2.967 -2.5120  1.3228 -1.6960
   36MOL   H28511555   6.184   1.976   2.830 -0.4122  0.7081  0.2816
   36MOL   H28611556   6.044   2.038   2.737  2.5903  2.3964  0.7972
   36MOL   H28711557   6.092   1.860   2.755  1.6267 -0.0199  0.3277
   36MOL   H28811558   5.663   1.693   2.981 -0.3916 -0.4175 -0.2657
   36MOL   H28911559   5.555   1.773   3.092  1.3381  0.3714 -0.3879
   36MOL   C29011560   5.465   1.700   2.901  0.1825 -0.7842  0.1839
   36MOL   O29111561   5.508   1.661   2.770  0.1062  0.7585 -0.3542
   36MOL   C29211562   5.420   1.687   2.661  0.5329  0.3828 -0.1867
   36MOL   C29311563   5.494   1.637   2.531 -0.0652 -0.1239 -0.3582
   36MOL   C29411564   5.507   1.487   2.528 -0.7541  0.4270  0.6067
   36MOL   C29511565   5.411   1.571   2.964 -0.2610  0.5888  0.3554
   36MOL   H29611566   5.385   1.772   2.884 -0.1038 -1.5662 -1.9780
   36MOL   H29711567   5.325   1.640   2.685  0.6404  1.8635  3.2984
   36MOL   H29811568   5.395   1.793   2.664 -2.8442 -0.3541 -0.0171
   36MOL   H29911569   5.592   1.686   2.536 -0.6864  1.1671 -0.7212
   36MOL   H30011570   5.438   1.669   2.444 -0.1165  0.4595 -0.1110
   36MOL   H30111571   5.416   1.428   2.529 -0.1500 -0.6085 -1.8686
   36MOL   H30211572   5.577   1.444   2.600  1.5179  1.8726 -0.6619
   36MOL   H30311573   5.557   1.462   2.434 -1.1177  1.7570  0.0462
   36MOL   H30411574   5.327   1.541   2.901  0.1549 -1.7231  0.8589
   36MOL   H30511575   5.493   1.501   2.952  0.2856  1.2802 -0.0289
   36MOL   C30611576   5.355   1.580   3.106  0.0183  0.1895  0.4589
   36MOL   O30711577   5.234   1.656   3.107 -0.2525 -0.1198 -0.0671
   36MOL   C30811578   5.218   1.737   3.230 -0.0827 -0.4951  0.3625
   36MOL   C30911579   5.090   1.809   3.260  0.6371 -0.3736  0.4736
   36MOL   C31011580   4.969   1.714   3.254 -0.1895 -0.7570 -0.1523
   36MOL   C31111581   5.311   1.438   3.162  0.2422 -0.4327  0.5329
   36MOL   H31211582   5.427   1.619   3.177 -0.5422  1.5845  0.2877
   36MOL   H31311583   5.228   1.663   3.309  1.0624  1.6213  2.2644
   36MOL   H31411584   5.301   1.806   3.238  0.4689 -0.9903 -0.9281
   36MOL   H31511585   5.090   1.887   3.183  1.9551  1.9505  2.7405
   36MOL   H31611586   5.102   1.855   3.358  1.9998 -0.5011  0.3678
   36MOL   H31711587   4.972   1.635   3.330 -1.9134 -0.3252  0.3870
   36MOL   H31811588   4.976   1.665   3.157 -2.6425 -1.2840 -0.1067
   36MOL   H31911589   4.874   1.767   3.258  0.4324  0.5657 -2.4530
   36MOL   H32011590   5.252   1.393   3.082  1.4057  1.2913 -1.3596
   36MOL   H32111591   5.401   1.381   3.185  2.2128  2.4817  0.2978
   36MOL   H32211592   5.258   1.425   3.256  0.3330  0.2379  0.6771
   37MOL     C111593   1.130   4.098   0.599  0.6468  0.9026 -0.1961
   37MOL     O211594   1.061   4.211   0.619 -0.3904 -0.2923  0.2776
   37MOL     C311595   1.125   4.323   0.562 -0.0464 -0.3448  0.3183
   37MOL     C411596   1.012   4.426   0.559 -0.2808  0.5958  0.2568
   37MOL     C511597   0.957   4.461   0.698 -0.1961  0.3445  0.5858
   37MOL     C611598   1.041   3.989   0.647 -0.2613  0.1354 -0.2088
   37MOL     H711599   1.227   4.099   0.649 -0.2930 -1.4487  1.8211
   37MOL     H811600   1.205   4.367   0.623 -1.0879  0.5119  1.0904
   37MOL     H911601   1.165   4.316   0.461  1.7403  0.1310  0.9699
   37MOL    H1011602   0.921   4.390   0.511  1.1390 -1.4908 -0.9677
   37MOL    H1111603   1.039   4.518   0.508 -2.4778  0.3779 -1.3734
   37MOL    H1211604   0.919   4.369   0.743 -0.4686  0.6830  1.0536
   37MOL    H1311605   0.883   4.541   0.694 -0.6148  0.0843  2.4017
   37MOL    H1411606   1.040   4.490   0.762  0.3931 -1.6801  0.7892
   37MOL    H1511607   1.004   4.009   0.747  1.4516 -3.6439  1.2739
   37MOL    H1611608   0.956   3.970   0.581  0.1320  0.1422 -0.7250
   37MOL    H1711609   1.142   4.091   0.491  3.4855 -0.7217  0.1740
   37MOL    C1811610   1.111   3.841   0.636  1.3382 -0.5527  0.1432
   37MOL    O1911611   1.017   3.735   0.683  0.2904 -0.4609  0.4143
   37MOL    C2011612   0.996   3.731   0.819 -0.6685  0.3836 -0.5132
   37MOL    C2111613   0.932   3.596   0.842 -0.5202  0.3205 -0.3963
   37MOL    C2211614   0.791   3.599   0.766  0.5011 -0.5148  0.1931
   37MOL    C2311615   1.150   3.795   0.494 -0.7976 -0.7857  0.6914
   37MOL    H2411616   1.189   3.838   0.712  1.5575  1.3484  0.0186
   37MOL    H2511617   1.086   3.718   0.879 -1.6492 -3.4975  0.2809
   37MOL    H2611618   0.933   3.816   0.844  0.3491  2.1064 -3.4970
   37MOL    H2711619   0.909   3.587   0.948  0.1807  2.5276 -0.0357
   37MOL    H2811620   0.994   3.514   0.805  2.3080  2.0899  0.3167
   37MOL    H2911621   0.724   3.679   0.797 -0.4114 -1.2880  0.2215
   37MOL    H3011622   0.726   3.514   0.787 -0.4209  0.7664  2.7733
   37MOL    H3111623   0.810   3.620   0.661 -1.5411  1.7919  0.2407
   37MOL    H3211624   1.150   3.686   0.495  2.0568 -0.8025  0.9927
   37MOL    H3311625   1.070   3.828   0.427  0.0631  0.9470  0.5079
   37MOL    C3411626   1.293   3.847   0.459 -0.4435 -0.1667 -0.8630
   37MOL    O3511627   1.379   3.773   0.546  0.8191  0.6768  0.4147
   37MOL    C3611628   1.505   3.830   0.578  0.1052 -0.1663  0.0009
   37MOL    C3711629   1.556   3.773   0.709 -0.3727 -0.3629 -0.0831
   37MOL    C3811630   1.455   3.796   0.823 -0.3549  0.1433  0.3763
   37MOL    C3911631   1.329   3.832   0.307  0.2182 -0.1347 -0.8352
   37MOL    H4011632   1.303   3.953   0.481 -2.3059 -0.2389  0.3893
   37MOL    H4111633   1.578   3.820   0.498  0.3642  1.8404 -0.0393
   37MOL    H4211634   1.492   3.936   0.603  0.1688  0.2249 -1.5909
   37MOL    H4311635   1.651   3.818   0.738 -0.2419 -0.8713  0.2797
   37MOL    H4411636   1.574   3.667   0.691  0.6769 -0.1997 -0.0205
   37MOL    H4511637   1.484   3.770   0.924  0.8937 -0.7834 -0.2010
   37MOL    H4611638   1.364   3.741   0.798 -0.2928  0.8076 -1.3737
   37MOL    H4711639   1.443   3.903   0.834 -1.4935  0.0785 -0.0733
   37MOL    H4811640   1.430   3.871   0.304 -0.2069  1.2739  1.7424
   37MOL    H4911641   1.339   3.725   0.294 -4.0547 -0.7632  0.3254
   37MOL    C5011642   1.243   3.907   0.199 -0.7600  0.1592  0.0969
   37MOL    O5111643   1.290   4.044   0.211  0.1532  0.6229  0.4108
   37MOL    C5211644   1.190   4.148   0.192 -0.2197 -0.0893  0.0317
   37MOL    C5311645   1.262   4.275   0.141  1.1135 -0.7019 -0.2135
   37MOL    C5411646   1.371   4.329   0.229  0.2440 -0.0254 -0.1018
   37MOL    C5511647   1.279   3.866   0.057  0.9302 -0.1514  0.2887
   37MOL    H5611648   1.137   3.899   0.224 -1.2179  1.3664 -1.4289
   37MOL    H5711649   1.129   4.114   0.108 -1.8416  0.2533  1.0284
   37MOL    H5811650   1.130   4.174   0.280  0.6725 -0.6843  0.8222
   37MOL    H5911651   1.185   4.350   0.119  1.0292 -0.6177  0.3636
   37MOL    H6011652   1.306   4.256   0.043 -1.7995 -0.7260 -1.5596
   37MOL    H6111653   1.443   4.392   0.178 -1.7576  1.4606 -1.2031
   37MOL    H6211654   1.426   4.243   0.266 -0.2388 -0.7404 -1.0334
   37MOL    H6311655   1.335   4.389   0.313 -0.1291  3.4278 -2.6410
   37MOL    H6411656   1.241   3.940   7.814  0.5705 -0.0606  0.5755
   37MOL    H6511657   1.388   3.867   0.051  0.9628 -1.1661  0.6410
   37MOL    C6611658   1.211   3.730   0.036  0.4808 -0.1823  0.1905
   37MOL    O6711659   1.115   3.741   7.762 -0.3970 -0.4731 -0.4641
   37MOL    C6811660   1.002   3.819   7.801 -0.1299 -0.1748 -0.1633
   37MOL    C6911661   0.905   3.823   7.680  0.1650 -0.5337  0.0931
   37MOL    C7011662   0.965   3.894   7.557  0.1245 -0.6579  0.0164
   37MOL    C7111663   1.315   3.630   7.826 -0.2029 -0.2336  0.1033
   37MOL    H7211664   1.152   3.704   0.123  3.3311 -2.3075  1.5550
   37MOL    H7311665   0.959   3.777   0.064 -1.3977 -0.7859 -1.0434
   37MOL    H7411666   1.023   3.925   7.820 -0.8649 -0.1216  0.3611
   37MOL    H7511667   0.814   3.875   7.710  0.4381  0.9365 -1.5925
   37MOL    H7611668   0.873   3.722   7.654 -0.0799 -0.1422 -1.1480
   37MOL    H7711669   0.963   4.003   7.561 -0.3712 -0.5816 -1.7418
   37MOL    H7811670   0.910   3.865   7.468  1.2037  0.7721 -1.1378
   37MOL    H7911671   1.068   3.864   7.535 -1.0708 -2.7492 -2.9965
   37MOL    H8011672   1.361   3.660   7.732 -4.6442  0.3224 -2.0300
   37MOL    H8111673   1.389   3.632   0.079 -0.3863  2.0919  0.2542
   37MOL    C8211674   1.253   3.491   7.795 -0.4371 -0.0788  0.0556
   37MOL    O8311675   1.355   3.393   7.767 -0.5106  0.2213  0.3275
   37MOL    C8411676   1.392   3.384   7.631  0.3276 -0.4670 -0.1249
   37MOL    C8511677   1.503   3.276   7.613  0.0646  0.6001 -0.3102
   37MOL    C8611678   1.449   3.136   7.618  0.0351 -0.0978  0.0304
   37MOL    C8711679   1.172   3.420   0.075  0.2707 -0.3892  0.0298
   37MOL    H8811680   1.188   3.495   7.707  0.1309  2.1198 -0.2949
   37MOL    H8911681   1.303   3.367   7.571 -0.0251  1.5963 -0.2196
   37MOL    H9011682   1.431   3.481   7.600 -0.9913  0.9312  2.4433
   37MOL    H9111683   1.583   3.291   7.685 -0.9472 -0.4043  1.0507
   37MOL    H9211684   1.559   3.290   7.521  1.5003 -0.3071  0.3937
   37MOL    H9311685   1.395   3.118   7.525 -1.0667  0.5160  0.5347
   37MOL    H9411686   1.390   3.120   7.708  2.9718 -1.7729  1.7013
   37MOL    H9511687   1.529   3.063   7.609 -0.5884 -0.7573 -0.2627
   37MOL    H9611688   1.187   3.312   0.068 -2.1576 -0.6290 -2.2819
   37MOL    H9711689   1.193   3.449   0.177 -1.5045  1.4351 -0.0921
   37MOL    C9811690   1.018   3.432   0.051  0.0206 -0.2532 -0.4715
   37MOL    O9911691   0.983   3.330   7.781  0.1819 -0.1715  0.1029
   37MOL   C10011692   0.945   3.384   7.655  0.1006  0.1549  0.2573
   37MOL   C10111693   0.946   3.271   7.561  0.9112  0.1216 -0.0482
   37MOL   C10211694   0.812   3.194   7.576  0.3456  0.0998  0.5190
   37MOL   C10311695   0.942   3.394   0.171  0.4875 -0.7599 -0.5084
   37MOL   H10411696   0.980   3.529   0.019 -0.3686 -0.9689 -2.2850
   37MOL   H10511697   0.850   3.438   7.663  0.3986  0.8766 -0.9013
   37MOL   H10611698   1.015   3.463   7.629  1.1858 -0.4988  1.1800
   37MOL   H10711699   1.031   3.210   7.591  0.1116 -0.7213  0.5516
   37MOL   H10811700   0.958   3.297   7.456  1.7608 -0.8917 -0.2183
   37MOL   H10911701   0.798   3.128   7.491  0.2157  2.3507 -1.2715
   37MOL   H11011702   0.728   3.263   7.564 -0.2722 -0.5772  0.8776
   37MOL   H11111703   0.801   3.131   7.665  0.4869  1.3736  1.4637
   37MOL   H11211704   0.967   3.293   0.207  4.0040 -0.5278 -2.0261
   37MOL   H11311705   0.973   3.461   0.251 -1.0525  0.3441 -0.8303
   37MOL   C11411706   0.796   3.402   0.147  0.1743  0.2756 -0.6125
   37MOL   O11511707   0.738   3.376   0.275  0.3341  0.2667  0.4426
   37MOL   C11611708   0.722   3.241   0.322 -0.3804  0.3524  0.6296
   37MOL   C11711709   0.635   3.245   0.442  0.6527  0.2867 -0.2330
   37MOL   C11811710   0.703   3.317   0.561 -0.2751  0.6536  0.0408
   37MOL   C11911711   0.737   3.536   0.091  1.1160 -0.5476 -0.7463
   37MOL   H12011712   0.759   3.321   0.084  0.9361 -0.9489  0.4995
   37MOL   H12111713   0.666   3.187   0.246  0.5962  0.9723 -0.5401
   37MOL   H12211714   0.815   3.185   0.332 -0.7436 -0.4543 -0.4241
   37MOL   H12311715   0.617   3.143   0.477 -1.2887  0.3234 -1.0628
   37MOL   H12411716   0.536   3.287   0.420  0.7774 -0.0691 -1.5035
   37MOL   H12511717   0.784   3.256   0.600 -1.2145  0.0756  1.1165
   37MOL   H12611718   0.628   3.352   0.631 -2.6219 -2.6538 -0.6843
   37MOL   H12711719   0.762   3.403   0.529 -0.6911  1.4119  1.2719
   37MOL   H12811720   0.770   3.622   0.149 -1.8297  0.0778  0.1123
   37MOL   H12911721   0.775   3.563   7.820  0.5218 -3.1750 -1.7482
   37MOL   C13011722   0.582   3.526   0.073 -0.1017  0.8124 -1.0098
   37MOL   O13111723   0.544   3.656   0.032 -0.5150  0.2725 -0.8762
   37MOL   C13211724   0.487   3.733   0.140 -0.9354 -0.1766 -0.2637
   37MOL   C13311725   0.481   3.883   0.091  0.1698 -0.0478  0.0471
   37MOL   C13411726   0.349   3.909   0.011  0.3407 -0.2113  0.0802
   37MOL   C13511727   0.539   3.424   7.788  0.4567 -0.6318  0.1849
   37MOL   H13611728   0.523   3.499   0.160 -0.7205 -0.0695 -1.6914
   37MOL   H13711729   0.387   3.691   0.141 -1.8455  1.9148  2.4090
   37MOL   H13811730   0.538   3.724   0.236 -0.6696 -0.3763 -0.4204
   37MOL   H13911731   0.552   3.902   0.011  0.5526 -2.0201 -0.1145
   37MOL   H14011732   0.502   3.947   0.176 -0.5233 -1.2454  1.1391
   37MOL   H14111733   0.263   3.891   0.076 -0.8588 -0.4125 -1.5274
   37MOL   H14211734   0.337   3.828   7.767  0.8028 -1.3817  1.2941
   37MOL   H14311735   0.338   4.008   7.795 -1.0576  0.9581  2.9390
   37MOL   H14411736   0.598   3.447   7.700 -0.2712 -0.5907 -0.2931
   37MOL   H14511737   0.577   3.323   7.805 -0.0747 -0.8865 -0.1476
   37MOL   C14611738   0.397   3.418   7.744 -0.2681  0.8212 -0.8381
   37MOL   O14711739   0.393   3.325   7.633  0.1446  0.2467 -0.2327
   37MOL   C14811740   0.379   3.395   7.508  0.0898 -0.0966  0.0453
   37MOL   C14911741   0.364   3.286   7.398 -0.0369 -0.3031  0.1869
   37MOL   C15011742   0.504   3.223   7.371 -0.1066 -0.2694  0.7408
   37MOL   C15111743   0.290   3.377   0.018 -0.1789  0.1475 -0.8077
   37MOL   H15211744   0.381   3.518   7.705 -1.4174  2.3421  3.2047
   37MOL   H15311745   0.294   3.464   7.514 -0.2664 -0.2550 -2.3551
   37MOL   H15411746   0.466   3.456   7.486  0.6888 -0.4261  1.4860
   37MOL   H15511747   0.328   3.343   7.312 -0.5024 -1.7219 -0.5737
   37MOL   H15611748   0.297   3.203   7.421  0.3551 -0.6738 -0.0068
   37MOL   H15711749   0.507   3.172   7.274 -0.8663 -1.8568  1.5403
   37MOL   H15811750   0.526   3.148   7.446 -1.6543 -0.3226  1.1505
   37MOL   H15911751   0.586   3.296   7.364 -0.1843 -0.3354 -1.3308
   37MOL   H16011752   0.335   3.294   0.073 -2.3527 -1.2125 -1.0155
   37MOL   H16111753   0.303   3.458   0.090  0.4632 -0.2160 -0.5066
   37MOL   C16211754   0.139   3.348   7.809  1.0347  0.2829  0.0291
   37MOL   O16311755   0.066   3.452   7.758 -0.1866  0.9020  0.2834
   37MOL   C16411756   0.081   3.580   7.828  0.3970 -0.1961 -0.6353
   37MOL   C16511757   7.826   3.679   7.745  0.3243  0.5514  0.8192
   37MOL   C16611758   7.680   3.651   7.748 -0.3536 -0.4846 -0.2017
   37MOL   C16711759   0.111   3.226   7.714 -0.0346 -0.3418  0.7757
   37MOL   H16811760   0.089   3.315   0.072  2.3644 -0.5362  0.4875
   37MOL   H16911761   0.037   3.557   0.097 -1.0865 -2.1161 -1.7103
   37MOL   H17011762   0.183   3.618   0.006  0.9340 -1.5203 -1.2611
   37MOL   H17111763   0.029   3.670   7.641 -1.3601  0.5874  0.3022
   37MOL   H17211764   0.022   3.784   7.761  0.2140  0.9241 -1.3329
   37MOL   H17311765   7.643   3.551   7.727  0.9615 -0.8313 -0.8648
   37MOL   H17411766   7.629   3.722   7.684 -2.7152 -1.8476  0.0993
   37MOL   H17511767   7.648   3.655   0.025  3.3686 -4.8469  1.2814
   37MOL   H17611768   0.007   3.217   7.685  0.3021  0.4138 -0.7519
   37MOL   H17711769   0.165   3.257   7.624 -0.9108  0.3775  0.4835
   37MOL   C17811770   0.157   3.090   7.770 -0.1089 -0.0591  0.2209
   37MOL   O17911771   0.086   3.062   0.059  0.0210  0.5875  0.6138
   37MOL   C18011772   0.158   3.001   0.161  0.2122 -0.1677 -0.4709
   37MOL   C18111773   0.065   2.911   0.243  0.0248  0.3072 -0.2404
   37MOL   C18211774   7.767   2.980   0.304  0.5787  0.0078  0.4073
   37MOL   C18311775   0.127   2.976   7.672  0.1635 -0.1844 -0.4882
   37MOL   H18411776   0.262   3.111   7.790 -0.2145 -1.0585  1.9170
   37MOL   H18511777   0.239   2.938   0.124 -0.5793 -0.7300 -1.2683
   37MOL   H18611778   0.202   3.073   0.231  0.0493 -0.1395 -0.3975
   37MOL   H18711779   0.122   2.862   0.321 -0.7699  1.9107  1.4057
   37MOL   H18811780   0.027   2.827   0.186  0.0770  0.3330 -0.3128
   37MOL   H18911781   7.702   2.900   0.338  0.7756 -0.1806  0.3380
   37MOL   H19011782   7.708   3.030   0.228 -0.3594  1.0889  1.8203
   37MOL   H19111783   7.784   3.055   0.382 -1.9961  0.0054  1.0151
   37MOL   H19211784   0.024   2.940   7.675 -0.4937  1.7347  1.0262
   37MOL   H19311785   0.130   3.011   7.569  1.0466  1.3974  0.0574
   37MOL   C19411786   0.229   2.859   7.682 -0.3408  0.7871  1.0682
   37MOL   O19511787   0.198   2.751   7.593  0.0930  0.5569  0.1559
   37MOL   C19611788   0.118   2.648   7.654 -0.5353  0.8409  0.2986
   37MOL   C19711789   0.210   2.536   7.695 -0.0637  0.9401  0.4339
   37MOL   C19811790   0.278   2.460   7.587 -0.1824 -0.3039  0.0572
   37MOL   C19911791   0.373   2.907   7.645 -0.6437 -0.1522  0.4010
   37MOL   H20011792   0.233   2.816   7.782  2.3043 -3.7552 -0.8263
   37MOL   H20111793   0.070   2.693   7.741 -2.0219  1.2904 -0.7473
   37MOL   H20211794   0.037   2.621   7.587 -0.5335  0.7453  0.3343
   37MOL   H20311795   0.142   2.462   7.736 -1.5077 -0.5303 -4.3200
   37MOL   H20411796   0.282   2.568   7.771  1.8891 -0.7522 -0.6755
   37MOL   H20511797   0.359   2.520   7.544  0.1258 -2.2427 -2.1492
   37MOL   H20611798   0.210   2.423   7.510  1.4525  0.0832 -1.6336
   37MOL   H20711799   0.341   2.380   7.626  0.8830 -1.0569 -3.0084
   37MOL   H20811800   0.389   2.917   7.538  0.1157 -1.1640  0.4111
   37MOL   H20911801   0.391   3.009   7.680 -1.2213  0.0293  0.1766
   37MOL   C21011802   0.483   2.807   7.698  0.4300 -0.3261 -0.5139
   37MOL   O21111803   0.610   2.834   7.642 -0.0429 -0.3825 -0.5119
   37MOL   C21211804   0.623   2.808   7.502  0.6310 -0.5384  0.3232
   37MOL   C21311805   0.775   2.795   7.483  0.1427  0.1847  0.2350
   37MOL   C21411806   0.810   2.777   7.333 -0.2539 -0.7264  0.2722
   37MOL   C21511807   0.502   2.817   0.025 -0.1708 -0.0475 -0.7516
   37MOL   H21611808   0.464   2.702   7.673 -1.7735  0.0751 -0.5872
   37MOL   H21711809   0.574   2.711   7.490  1.5616 -0.9771 -0.0282
   37MOL   H21811810   0.581   2.884   7.436  1.1164 -0.5308  0.0167
   37MOL   H21911811   0.821   2.716   7.543 -1.0051 -1.2858 -0.7762
   37MOL   H22011812   0.831   2.877   7.528 -1.1121  1.1082  0.1475
   37MOL   H22111813   0.797   2.861   7.264  1.4880 -1.5682 -1.1100
   37MOL   H22211814   0.758   2.693   7.288 -0.1025 -0.6324 -0.0788
   37MOL   H22311815   0.914   2.756   7.308  0.3286 -0.0509  2.0055
   37MOL   H22411816   0.497   2.921   0.057 -0.5578 -1.0097  2.5166
   37MOL   H22511817   0.414   2.768   0.067 -0.2030  0.2453 -0.4740
   37MOL   C22611818   0.615   2.741   0.093 -0.4091 -0.7979 -0.3729
   37MOL   O22711819   0.603   2.750   0.229  0.6244 -0.3053  0.0787
   37MOL   C22811820   0.683   2.851   0.291 -0.1863 -0.6786  0.1973
   37MOL   C22911821   0.664   2.840   0.442  0.2604  0.7465  0.1224
   37MOL   C23011822   0.520   2.845   0.486 -0.2970  0.2443  0.0714
   37MOL   C23111823   0.620   2.597   0.053  0.1649 -0.0152 -1.1114
   37MOL   H23211824   0.715   2.762   0.054 -0.3634 -2.4628 -1.1665
   37MOL   H23311825   0.787   2.851   0.257 -0.3044 -0.0910 -0.1751
   37MOL   H23411826   0.639   2.947   0.268  1.0354  0.9066  4.1763
   37MOL   H23511827   0.716   2.923   0.491  1.5641  0.0517 -0.0564
   37MOL   H23611828   0.715   2.754   0.487 -3.3760 -1.2430  0.6821
   37MOL   H23711829   0.483   2.946   0.465  0.0828  0.0167 -1.7423
   37MOL   H23811830   0.506   2.833   0.593 -2.4438  1.2978 -0.0579
   37MOL   H23911831   0.459   2.770   0.437  0.1977 -0.2910  0.2753
   37MOL   H24011832   0.521   2.557   0.071 -0.6810  2.9253  1.0884
   37MOL   H24111833   0.636   2.601   7.773  0.4982  0.0268 -1.0634
   37MOL   C24211834   0.713   2.506   0.130  0.3424 -0.5375  0.7668
   37MOL   O24311835   0.705   2.376   0.074  0.2898 -0.0545  0.2604
   37MOL   C24411836   0.575   2.311   0.093 -0.2483 -0.4207 -0.7341
   37MOL   C24511837   0.578   2.161   0.071  0.6270 -0.5888  0.2695
   37MOL   C24611838   0.585   2.120   7.746 -0.1625 -0.2941  1.0781
   37MOL   C24711839   0.861   2.548   0.118 -0.3374  0.0558 -0.2603
   37MOL   H24811840   0.683   2.515   0.234  0.7638 -1.3991  0.9625
   37MOL   H24911841   0.554   2.333   0.198  1.3814 -0.9104 -0.2946
   37MOL   H25011842   0.508   2.360   0.023 -1.7707 -1.8497 -0.3008
   37MOL   H25111843   0.480   2.123   0.101  0.5308  0.2293  0.9860
   37MOL   H25211844   0.650   2.099   0.124 -0.1988  0.5162  2.7666
   37MOL   H25311845   0.505   2.167   7.689  0.1127 -2.1407 -0.9279
   37MOL   H25411846   0.589   2.012   7.734  0.5107 -0.0689 -0.8908
   37MOL   H25511847   0.678   2.146   7.695 -0.9241  1.0048  0.3214
   37MOL   H25611848   0.882   2.548   0.011  3.6766  0.3781  0.4458
   37MOL   H25711849   0.861   2.652   0.150 -0.3535 -0.2904  0.8742
   37MOL   C25811850   0.958   2.474   0.210 -0.2024  0.1126  0.4194
   37MOL   O25911851   1.090   2.505   0.170 -0.7709  0.4345  0.0408
   37MOL   C26011852   1.154   2.420   0.071 -0.7808  0.5886 -0.1379
   37MOL   C26111853   1.290   2.480   0.037  0.1432  0.3449 -0.0476
   37MOL   C26211854   1.386   2.497   0.157  0.3535  0.1594 -0.4006
   37MOL   C26311855   0.956   2.528   0.356 -0.3652  0.6234 -0.5290
   37MOL   H26411856   0.944   2.366   0.207  1.9443 -0.3206  3.2721
   37MOL   H26511857   1.168   2.317   0.104 -0.9991 -0.2643 -2.5739
   37MOL   H26611858   1.092   2.399   7.812 -0.9289 -3.2832  0.7862
   37MOL   H26711859   1.295   2.572   7.807 -2.8085  1.7318  1.7976
   37MOL   H26811860   1.333   2.403   7.800  0.0283 -0.2036  0.5182
   37MOL   H26911861   1.387   2.412   0.226 -1.8823  0.1385 -0.3818
   37MOL   H27011862   1.361   2.587   0.214  0.0338 -0.5229  0.5542
   37MOL   H27111863   1.491   2.504   0.128  1.1985 -0.1668  2.3820
   37MOL   H27211864   1.018   2.617   0.356  0.4968  0.0474  1.4756
   37MOL   H27311865   0.860   2.572   0.383 -0.6770  1.2154 -2.5043
   37MOL   C27411866   1.021   2.439   0.464 -0.3405 -0.2671 -0.5157
   37MOL   O27511867   1.089   2.523   0.556 -0.4891 -0.2044  0.4179
   37MOL   C27611868   1.236   2.545   0.520  0.3089  0.1092  0.1572
   37MOL   C27711869   1.300   2.639   0.622  0.9636  0.3556 -0.0614
   37MOL   C27811870   1.444   2.654   0.589 -0.2699 -0.4999 -0.3191
   37MOL   C27911871   0.914   2.369   0.542  0.1117 -0.0186 -0.2677
   37MOL   H28011872   1.095   2.373   0.420 -0.6670 -0.4235 -0.8359
   37MOL   H28111873   1.283   2.447   0.518 -0.3141 -0.2032  0.5755
   37MOL   H28211874   1.241   2.579   0.417 -2.0531 -2.7343 -0.9647
   37MOL   H28311875   1.282   2.616   0.727  1.3294 -0.5646 -0.1967
   37MOL   H28411876   1.252   2.734   0.599  1.1120 -0.0213 -2.0399
   37MOL   H28511877   1.451   2.657   0.481  0.4778  1.7750 -0.2315
   37MOL   H28611878   1.501   2.570   0.630  1.0119  0.2017 -0.6253
   37MOL   H28711879   1.484   2.746   0.632  0.1116 -0.2686 -1.1645
   37MOL   H28811880   0.966   2.313   0.620 -1.8373  0.8249  1.7150
   37MOL   H28911881   0.844   2.439   0.589  1.2500  1.0969 -0.2219
   37MOL   C29011882   0.831   2.267   0.455 -0.5703 -0.7178 -0.1048
   37MOL   O29111883   0.927   2.176   0.408  0.0822  0.2922  0.7848
   37MOL   C29211884   0.886   2.107   0.296  0.1933 -0.2473  0.7211
   37MOL   C29311885   1.006   2.036   0.227  0.0611 -0.3167  0.5967
   37MOL   C29411886   0.949   1.974   0.097 -0.6163  0.0019  0.5320
   37MOL   C29511887   0.726   2.197   0.547 -0.8923 -0.0198  0.0285
   37MOL   H29611888   0.775   2.312   0.373 -2.1602 -2.1223  0.1763
   37MOL   H29711889   0.818   2.028   0.328  0.9237 -0.4397  1.8541
   37MOL   H29811890   0.843   2.178   0.225  0.3063  0.4855  1.3776
   37MOL   H29911891   1.062   1.961   0.282 -0.0428 -0.5830  0.3385
   37MOL   H30011892   1.084   2.107   0.201  1.4315 -0.9146  2.9610
   37MOL   H30111893   0.869   1.902   0.114 -1.1148  0.6440  0.9482
   37MOL   H30211894   1.026   1.907   0.059  0.4974  0.3597  2.0819
   37MOL   H30311895   0.922   2.049   0.023  2.2704 -0.2066 -0.8187
   37MOL   H30411896   0.683   2.117   0.486 -0.2603 -0.1279 -0.2889
   37MOL   H30511897   0.778   2.144   0.626 -0.9359  1.7168  1.2446
   37MOL   C30611898   0.617   2.286   0.604 -0.1741  0.2421 -0.0713
   37MOL   O30711899   0.543   2.344   0.497 -0.2703 -0.1059  0.7715
   37MOL   C30811900   0.485   2.473   0.526  0.5267  0.3211 -0.0122
   37MOL   C30911901   0.331   2.457   0.500  0.5126  0.2706  0.2801
   37MOL   C31011902   0.281   2.471   0.354  1.2556 -0.7963  0.4878
   37MOL   C31111903   0.530   2.209   0.691 -0.3723 -0.0578  0.0871
   37MOL   H31211904   0.659   2.365   0.666 -1.6306  1.3713 -0.4876
   37MOL   H31311905   0.500   2.500   0.630 -1.2653 -0.9544  0.6015
   37MOL   H31411906   0.529   2.550   0.463  0.9375 -0.4808 -0.7099
   37MOL   H31511907   0.263   2.528   0.546 -0.1820  1.0564 -1.8738
   37MOL   H31611908   0.298   2.355   0.519 -2.9066  0.9110 -1.6781
   37MOL   H31711909   0.172   2.469   0.346  1.2454  2.3709 -1.2735
   37MOL   H31811910   0.327   2.394   0.292 -0.7819 -1.9579  0.3749
   37MOL   H31911911   0.323   2.569   0.330 -1.1328 -0.2862 -1.9086
   37MOL   H32011912   0.467   2.287   0.734 -0.2104 -0.4483  1.0541
   37MOL   H32111913   0.476   2.130   0.638 -1.0653 -1.0540  2.2035
   37MOL   H32211914   0.594   2.162   0.766 -1.0338 -1.1789 -0.0325
   38MOL     C111915   1.398   3.706   6.379  0.4455  0.3376 -0.0027
   38MOL     O211916   1.432   3.669   6.248  0.2741  0.1808  0.3814
   38MOL     C311917   1.449   3.531   6.226 -0.1790  0.3658 -0.2155
   38MOL     C411918   1.507   3.515   6.085 -0.1541 -0.4959 -0.2900
   38MOL     C511919   1.654   3.555   6.089 -0.5101 -0.0806 -0.1146
   38MOL     C611920   1.372   3.849   6.402  0.2270  0.2466 -0.3934
   38MOL     H711921   1.482   3.687   6.447 -0.0919 -0.3844  0.4680
   38MOL     H811922   1.526   3.488   6.291  0.7280  0.9563 -0.8735
   38MOL     H911923   1.349   3.488   6.228 -0.1675  0.3574  0.1850
   38MOL    H1011924   1.456   3.584   6.018  2.8357  1.0661 -1.0403
   38MOL    H1111925   1.490   3.416   6.042 -0.2403 -0.6767  0.1514
   38MOL    H1211926   1.698   3.548   5.989  1.0449 -0.4916  0.5772
   38MOL    H1311927   1.708   3.480   6.147  0.4299  0.7808  0.1436
   38MOL    H1411928   1.667   3.656   6.127 -0.7184  0.5344 -1.6589
   38MOL    H1511929   1.457   3.908   6.367  3.1520 -3.2624  0.4617
   38MOL    H1611930   1.286   3.874   6.339  0.3391 -2.0037 -1.4827
   38MOL    H1711931   1.309   3.653   6.413 -0.3810  2.2376  0.8699
   38MOL    C1811932   1.330   3.897   6.544 -0.0393 -1.0452  0.1544
   38MOL    O1911933   1.270   3.799   6.615 -0.0393 -0.3648 -0.2016
   38MOL    C2011934   1.125   3.784   6.602 -0.5458  0.6906 -0.2933
   38MOL    C2111935   1.079   3.701   6.724  0.5529  1.1971 -0.3274
   38MOL    C2211936   1.107   3.766   6.858 -0.1585  0.2376  0.6590
   38MOL    C2311937   1.459   3.937   6.632  0.4418 -0.1953  0.1234
   38MOL    H2411938   1.257   3.977   6.536  1.3709  0.1626 -0.8171
   38MOL    H2511939   1.073   3.879   6.603 -0.0429  1.0373 -2.7820
   38MOL    H2611940   1.100   3.736   6.507 -2.0596  2.4558 -0.8087
   38MOL    H2711941   1.128   3.604   6.732 -2.0810 -0.1411  0.1452
   38MOL    H2811942   0.974   3.672   6.727  1.1990 -1.0407  1.2584
   38MOL    H2911943   1.066   3.704   6.938 -0.7116  0.0742  0.2471
   38MOL    H3011944   1.068   3.867   6.870 -0.8554 -0.0811  1.0546
   38MOL    H3111945   1.213   3.769   6.886 -0.1519 -1.4275  0.8848
   38MOL    H3211946   1.504   3.839   6.649 -1.6636 -1.4117 -1.0960
   38MOL    H3311947   1.528   4.001   6.577 -1.0766 -0.4849 -2.1978
   38MOL    C3411948   1.425   4.000   6.773 -0.2857 -0.2783  0.1184
   38MOL    O3511949   1.543   4.010   6.855 -0.5681 -0.2644 -0.4854
   38MOL    C3611950   1.611   3.895   6.898  0.5312  0.1224  0.3603
   38MOL    C3711951   1.674   3.932   7.029  0.2944  0.8117 -0.4966
   38MOL    C3811952   1.568   3.955   7.140  0.2294  0.2572 -0.5953
   38MOL    C3911953   1.358   4.139   6.775 -0.4526  1.1475 -0.1779
   38MOL    H4011954   1.357   3.927   6.818 -1.5153  0.8820  0.1440
   38MOL    H4111955   1.541   3.811   6.905  0.7489  0.0692  2.1018
   38MOL    H4211956   1.687   3.866   6.826 -1.0584  1.9775 -2.1478
   38MOL    H4311957   1.746   4.011   7.010 -1.0313  1.7692 -1.5463
   38MOL    H4411958   1.727   3.845   7.069  0.2764  1.8175  1.7810
   38MOL    H4511959   1.512   4.044   7.112 -1.2475 -0.5550 -0.2765
   38MOL    H4611960   1.607   3.968   7.241  0.9898 -0.8714 -0.7362
   38MOL    H4711961   1.498   3.872   7.141  1.0171 -0.4325  2.5684
   38MOL    H4811962   1.441   4.200   6.742  0.9815  0.4781  2.0897
   38MOL    H4911963   1.273   4.138   6.707 -0.8511  2.2273  0.2876
   38MOL    C5011964   1.305   4.182   6.917  0.6157 -0.3141 -0.5255
   38MOL    O5111965   1.260   4.315   6.897  0.1906  1.1961 -0.7567
   38MOL    C5211966   1.365   4.417   6.919 -0.6038 -0.0270  0.9688
   38MOL    C5311967   1.336   4.497   7.046  0.4765 -0.4578 -0.4976
   38MOL    C5411968   1.192   4.560   7.050 -0.8745 -0.1762  0.4672
   38MOL    C5511969   1.192   4.101   6.973 -0.0131  0.0399 -0.5639
   38MOL    H5611970   1.383   4.180   6.993 -0.6303  0.4847  0.7983
   38MOL    H5711971   1.462   4.372   6.940  0.1895  1.5833  0.8571
   38MOL    H5811972   1.385   4.477   6.831 -1.0817 -0.8325  0.3043
   38MOL    H5911973   1.421   4.561   7.067 -1.9553  3.2410 -1.4727
   38MOL    H6011974   1.345   4.426   7.129  2.1987  0.6318  0.2710
   38MOL    H6111975   1.186   4.635   6.971  0.7373 -0.4427  0.0766
   38MOL    H6211976   1.177   4.614   7.144 -1.6754 -0.5331  0.5491
   38MOL    H6311977   1.112   4.491   7.024 -1.2780  0.8459 -1.0481
   38MOL    H6411978   1.110   4.106   6.902 -0.9454 -0.6818  0.4283
   38MOL    H6511979   1.220   3.997   6.989  1.0426  0.6030  1.3505
   38MOL    C6611980   1.141   4.145   7.106  0.3470 -0.6734  0.6543
   38MOL    O6711981   1.043   4.044   7.131  0.4245  0.1327  0.1641
   38MOL    C6811982   0.909   4.081   7.093  0.5320  0.2202 -0.0921
   38MOL    C6911983   0.818   3.958   7.112 -0.7984  0.4504  0.3246
   38MOL    C7011984   0.670   3.985   7.079 -0.0285  0.1034  0.8625
   38MOL    C7111985   1.242   4.137   7.222  0.0499 -0.6868 -0.5576
   38MOL    H7211986   1.097   4.243   7.092  1.1036 -0.3191  0.7259
   38MOL    H7311987   0.889   4.172   7.150  1.3943 -0.0828  0.7170
   38MOL    H7411988   0.899   4.114   6.990 -4.6709 -0.1063  0.1494
   38MOL    H7511989   0.827   3.927   7.216 -0.8247  0.5049  0.3426
   38MOL    H7611990   0.867   3.880   7.053  0.1266  0.3724  1.1795
   38MOL    H7711991   0.657   4.050   6.992  0.9862 -1.5650 -0.5768
   38MOL    H7811992   0.645   4.050   7.163 -2.4862 -0.0252  0.2904
   38MOL    H7911993   0.605   3.897   7.078  1.3336 -0.9205  1.0664
   38MOL    H8011994   1.285   4.037   7.212 -1.1759 -1.5499  2.2787
   38MOL    H8111995   1.327   4.198   7.192  0.9457 -2.5563 -1.9183
   38MOL    C8211996   1.198   4.168   7.368  0.6677 -0.0306  0.0737
   38MOL    O8311997   1.314   4.161   7.461  0.5818 -0.0252 -0.0018
   38MOL    C8411998   1.362   4.032   7.479  0.0088  0.7879  0.8860
   38MOL    C8511999   1.480   4.048   7.570  0.1925 -0.1634  0.4213
   38MOL    C8612000   1.564   3.925   7.585 -0.6839 -0.0552  0.0590
   38MOL    C8712001   1.151   4.316   7.371  0.1409  0.5187 -0.5617
   38MOL    H8812002   1.118   4.098   7.392 -1.0757  1.0441 -2.3367
   38MOL    H8912003   1.276   3.969   7.503 -0.2123  1.2376  1.2834
   38MOL    H9012004   1.401   3.989   7.387 -1.1768 -1.8111  1.5490
   38MOL    H9112005   1.440   4.066   7.669 -1.2393  0.8998 -0.3229
   38MOL    H9212006   1.546   4.131   7.545 -0.5040  0.7827  1.6960
   38MOL    H9312007   1.609   3.897   7.490 -0.3567 -0.4891  0.3387
   38MOL    H9412008   1.497   3.840   7.599 -0.0557 -0.7854 -1.3074
   38MOL    H9512009   1.643   3.927   7.660  1.6612 -1.3872 -2.3038
   38MOL    H9612010   1.236   4.383   7.358  0.8430 -0.6318 -2.0414
   38MOL    H9712011   1.081   4.334   7.289 -0.1954  0.4142 -0.2948
   38MOL    C9812012   1.092   4.346   7.504  0.4717 -0.3645 -0.8083
   38MOL    O9912013   1.112   4.486   7.550  0.0352 -0.5997  0.4649
   38MOL   C10012014   1.212   4.508   7.648 -0.6632 -0.5814 -0.2317
   38MOL   C10112015   1.346   4.520   7.589  0.1220  0.0406  0.3243
   38MOL   C10212016   1.358   4.639   7.500  0.5774  0.3480  0.0153
   38MOL   C10312017   0.943   4.310   7.491 -0.0357 -0.2908 -0.5202
   38MOL   H10412018   1.135   4.278   7.578  2.2741  0.5250 -1.0231
   38MOL   H10512019   1.190   4.598   7.705  0.3421 -0.7976  0.5282
   38MOL   H10612020   1.207   4.435   7.729 -2.3400 -1.5942 -1.2328
   38MOL   H10712021   1.381   4.424   7.550  0.8698 -0.0704  1.2498
   38MOL   H10812022   1.411   4.535   7.675 -0.1550 -0.3141  0.5948
   38MOL   H10912023   1.334   4.734   7.548  2.1248  0.2460  1.0581
   38MOL   H11012024   1.287   4.626   7.419  1.2689 -2.3399 -0.2169
   38MOL   H11112025   1.455   4.629   7.451  0.8575  0.0481  0.6273
   38MOL   H11212026   0.910   4.361   7.400  0.7850 -0.5779 -0.9844
   38MOL   H11312027   0.925   4.207   7.460  0.1081 -0.5121  0.1257
   38MOL   C11412028   0.849   4.339   7.609  0.6486  0.1766 -0.0404
   38MOL   O11512029   0.717   4.286   7.582  0.4840  0.1330 -0.0565
   38MOL   C11612030   0.623   4.373   7.526 -0.0436  0.7116 -0.5548
   38MOL   C11712031   0.510   4.296   7.454 -0.5635 -0.3021 -0.2243
   38MOL   C11812032   0.430   4.202   7.545 -0.1786  0.3273 -0.4837
   38MOL   C11912033   0.890   4.261   7.739 -0.6045 -0.4143 -0.3578
   38MOL   H12012034   0.845   4.444   7.638 -1.3415 -0.3493  1.7809
   38MOL   H12112035   0.572   4.439   7.596  0.3532 -0.9357  1.3386
   38MOL   H12212036   0.678   4.440   7.460 -0.2404  2.2026  0.7613
   38MOL   H12312037   0.562   4.236   7.379 -0.9327 -0.7759 -0.0955
   38MOL   H12412038   0.447   4.364   7.397  2.5350  1.9262 -1.1660
   38MOL   H12512039   0.351   4.145   7.496 -1.3308  1.5946 -0.1279
   38MOL   H12612040   0.367   4.257   7.615  0.0121 -1.6077  1.2547
   38MOL   H12712041   0.491   4.137   7.608 -1.3752  0.0953  0.4465
   38MOL   H12812042   0.908   4.160   7.705 -2.5182 -0.8809 -0.0719
   38MOL   H12912043   0.983   4.293   7.786  0.4062  0.4813 -2.8763
   38MOL   C13012044   0.786   4.269   0.030 -0.0745  0.4456  0.0253
   38MOL   O13112045   0.847   4.194   0.132  0.9763 -0.5003  0.2531
   38MOL   C13212046   0.771   4.091   0.191 -0.7664  0.1691 -0.6095
   38MOL   C13312047   0.847   4.030   0.316 -0.5578  0.1803 -0.1921
   38MOL   C13412048   0.793   3.885   0.336 -0.2281  0.0244 -0.2581
   38MOL   C13512049   0.751   4.412   0.080 -0.5148 -0.1912  0.4290
   38MOL   H13612050   0.693   4.225   7.823  0.6416  0.6773 -2.2682
   38MOL   H13712051   0.674   4.125   0.228 -0.9001 -2.3545  1.4964
   38MOL   H13812052   0.762   4.016   0.112 -0.5764 -0.1877 -0.2936
   38MOL   H13912053   0.824   4.090   0.405 -0.0558 -1.1690  0.8605
   38MOL   H14012054   0.954   4.019   0.302 -0.4061 -0.9467  1.6232
   38MOL   H14112055   0.838   3.821   0.412  2.7172  3.0379  0.6502
   38MOL   H14212056   0.805   3.855   0.232  0.3275  0.6148 -0.3650
   38MOL   H14312057   0.687   3.879   0.360 -0.5362  0.5027 -1.4747
   38MOL   H14412058   0.838   4.445   0.137 -0.0229  0.9410 -0.9450
   38MOL   H14512059   0.736   4.493   0.009 -0.9208  0.7095  1.5297
   38MOL   C14612060   0.633   4.420   0.185  0.5117 -0.1033  0.1623
   38MOL   O14712061   0.616   4.549   0.250  0.0464  0.6969  0.4841
   38MOL   C14812062   0.688   4.564   0.363 -0.4544 -0.3207 -0.5069
   38MOL   C14912063   0.647   4.701   0.412  0.5548 -0.7075 -0.4630
   38MOL   C15012064   0.499   4.714   0.431 -0.2917 -0.1500 -0.2454
   38MOL   C15112065   0.495   4.417   0.110  0.3731 -0.4544  0.3002
   38MOL   H15212066   0.640   4.343   0.262  2.6049 -1.3662 -1.2392
   38MOL   H15312067   0.673   4.481   0.432  2.7704 -1.1560 -0.6829
   38MOL   H15412068   0.796   4.566   0.343 -0.3474 -1.3636 -0.0751
   38MOL   H15512069   0.679   4.773   0.336  0.1483 -0.1627 -0.1247
   38MOL   H15612070   0.697   4.734   0.503  1.3264 -0.2965 -1.0288
   38MOL   H15712071   0.455   4.653   0.509 -0.0709 -0.7915 -0.6211
   38MOL   H15812072   0.440   4.697   0.341  2.4966 -1.0552 -1.9708
   38MOL   H15912073   0.464   4.814   0.457 -3.0625 -0.7065 -1.6659
   38MOL   H16012074   0.483   4.511   0.057  2.1899 -0.8302 -0.8122
   38MOL   H16112075   0.490   4.339   0.034 -2.0190 -0.9508  0.9309
   38MOL   C16212076   0.369   4.410   0.208  0.2398 -0.6328 -0.0225
   38MOL   O16312077   0.262   4.457   0.137  0.1366 -0.1244 -0.5025
   38MOL   C16412078   0.236   4.600   0.157  0.8647 -1.0572 -0.0702
   38MOL   C16512079   0.130   4.632   0.048 -0.0135 -1.2699 -0.3192
   38MOL   C16612080   0.085   4.775   0.041  0.4913 -0.7053  0.4293
   38MOL   C16712081   0.332   4.272   0.272  0.0426 -0.2225  0.1833
   38MOL   H16812082   0.394   4.466   0.298 -0.5664 -1.8811  0.9993
   38MOL   H16912083   0.205   4.640   0.253  0.8161  0.5241 -0.7238
   38MOL   H17012084   0.323   4.663   0.140 -0.1634 -0.0237 -1.6117
   38MOL   H17112085   0.052   4.556   0.061 -1.7316  0.1280 -2.2836
   38MOL   H17212086   0.178   4.612   7.780  0.7743 -0.3809 -0.1087
   38MOL   H17312087   0.016   4.791   0.123  0.2557  0.0543  0.0924
   38MOL   H17412088   0.035   4.796   7.774  2.2960  0.4329 -0.3150
   38MOL   H17512089   0.159   4.855   0.043 -1.5685  1.2484  0.8404
   38MOL   H17612090   0.299   4.204   0.194  2.4241 -1.4246  0.1889
   38MOL   H17712091   0.421   4.219   0.306 -2.1525 -3.2013  1.4595
   38MOL   C17812092   0.216   4.266   0.378  0.1248 -0.5886  0.1858
   38MOL   O17912093   0.187   4.124   0.390 -0.1897 -0.7498  0.0412
   38MOL   C18012094   0.054   4.086   0.363  0.3973 -0.8820  0.0104
   38MOL   C18112095   0.016   3.952   0.428 -0.0286 -0.5058  0.1619
   38MOL   C18212096   0.112   3.842   0.388 -0.5900 -0.3116  0.7081
   38MOL   C18312097   0.241   4.325   0.519 -0.6400  0.6548  0.1992
   38MOL   H18412098   0.131   4.318   0.333  1.0564 -0.9552 -2.1052
   38MOL   H18512099   7.821   4.170   0.395  1.8716 -0.0035  0.5700
   38MOL   H18612100   0.044   4.072   0.256  2.2868  1.0653 -0.4648
   38MOL   H18712101   7.741   3.925   0.407 -0.9460  1.8131  1.4595
   38MOL   H18812102   0.019   3.970   0.536  1.2764 -0.3932  0.1116
   38MOL   H18912103   0.080   3.745   0.426  0.1168 -0.5668  0.6480
   38MOL   H19012104   0.208   3.863   0.435 -0.2036 -0.3909 -0.0493
   38MOL   H19112105   0.121   3.839   0.280 -1.2593 -0.3636  0.6485
   38MOL   H19212106   0.308   4.252   0.565 -2.3387 -0.2143  1.3373
   38MOL   H19312107   0.307   4.410   0.505 -0.8021  0.7003 -0.2901
   38MOL   C19412108   0.118   4.356   0.605 -0.5496  0.4308 -0.3786
   38MOL   O19512109   0.043   4.234   0.630 -0.4416 -0.0917  0.1464
   38MOL   C19612110   7.745   4.263   0.686  0.0200  0.1795 -0.4938
   38MOL   C19712111   7.637   4.192   0.608  0.4246  0.8138 -0.0755
   38MOL   C19812112   7.498   4.188   0.669  0.3572  0.4969  0.0916
   38MOL   C19912113   0.168   4.411   0.745  0.3840  0.8176  0.2354
   38MOL   H20012114   0.061   4.430   0.549 -0.1390 -0.0606 -1.4740
   38MOL   H20112115   7.750   4.234   0.791  0.3591 -1.4648 -0.9391
   38MOL   H20212116   7.718   4.368   0.676 -0.4218  0.0505 -0.6564
   38MOL   H20312117   7.677   4.092   0.598  2.3062  1.5512 -0.0454
   38MOL   H20412118   7.620   4.222   0.505 -1.6654  0.5903  0.1803
   38MOL   H20512119   7.502   4.163   0.775  0.0415  0.8979  0.1986
   38MOL   H20612120   7.428   4.128   0.610 -0.4239  1.2922  0.1879
   38MOL   H20712121   7.461   4.290   0.659  1.9118  1.0035 -0.5975
   38MOL   H20812122   0.084   4.406   0.815  1.4428 -1.7413  1.3765
   38MOL   H20912123   0.246   4.342   0.775 -0.0278  0.4048  0.3624
   38MOL   C21012124   0.223   4.552   0.739  0.0912 -0.2686 -0.5384
   38MOL   O21112125   0.122   4.642   0.693 -0.4232 -0.3380  0.0066
   38MOL   C21212126   0.168   4.737   0.603 -0.3774  0.6625 -0.1179
   38MOL   C21312127   0.056   4.828   0.560 -0.3448 -0.0274  0.1363
   38MOL   C21412128   0.110   4.943   0.483 -0.3914 -0.5037  0.2856
   38MOL   C21512129   0.271   4.620   0.868 -0.5347 -0.5066 -0.4369
   38MOL   H21612130   0.305   4.556   0.668 -0.2687  0.5888 -0.9189
   38MOL   H21712131   0.236   4.806   0.653 -0.4084  0.4517  0.2197
   38MOL   H21812132   0.220   4.704   0.512 -0.7494 -0.9538  0.2350
   38MOL   H21912133   7.821   4.864   0.641 -0.0833 -1.0118  0.7820
   38MOL   H22012134   7.808   4.784   0.495 -1.9019  2.7063  0.0523
   38MOL   H22112135   0.185   4.990   0.548 -0.1156  1.3692 -1.3442
   38MOL   H22212136   0.019   5.003   0.480  0.6333  1.0759 -0.2705
   38MOL   H22312137   0.140   4.918   0.382 -0.5958 -1.1058  0.3737
   38MOL   H22412138   0.331   4.708   0.844 -1.6552  0.0259 -1.3550
   38MOL   H22512139   0.188   4.654   0.930  0.7256 -0.2827  1.1607
   38MOL   C22612140   0.384   4.540   0.947  0.4670 -0.1635  0.1140
   38MOL   O22712141   0.314   4.435   1.016 -0.8276  0.9556 -0.0690
   38MOL   C22812142   0.268   4.470   1.146  0.0139  0.4513 -0.1336
   38MOL   C22912143   0.161   4.372   1.193 -0.0125  0.3158  0.2043
   38MOL   C23012144   0.047   4.360   1.096 -0.7627 -0.3049  0.2422
   38MOL   C23112145   0.500   4.490   0.864 -0.1249 -0.5254  0.2244
   38MOL   H23212146   0.419   4.601   1.030 -0.5090 -0.3521  0.6649
   38MOL   H23312147   0.359   4.466   1.207 -0.4243  1.8590  0.6308
   38MOL   H23412148   0.221   4.568   1.152  0.5382  0.6713  0.4993
   38MOL   H23512149   0.127   4.401   1.293 -0.1790  1.6820 -0.2431
   38MOL   H23612150   0.205   4.273   1.210 -3.0210 -1.5319 -2.1744
   38MOL   H23712151   0.011   4.462   1.083 -0.6087 -0.0569  1.7047
   38MOL   H23812152   7.798   4.294   1.137 -0.2253 -0.1843  1.4680
   38MOL   H23912153   0.061   4.300   1.006 -2.3593 -1.0788  0.4874
   38MOL   H24012154   0.463   4.433   0.778  1.5733  1.2617 -1.7509
   38MOL   H24112155   0.557   4.570   0.817  0.1948 -0.3242  0.9569
   38MOL   C24212156   0.580   4.377   0.932  0.0134 -0.0431 -0.0584
   38MOL   O24312157   0.660   4.335   0.823  0.2085  0.2159  0.3949
   38MOL   C24412158   0.678   4.197   0.813 -0.0824 -0.4470 -0.1910
   38MOL   C24512159   0.709   4.145   0.675 -0.4525  0.0864  0.4021
   38MOL   C24612160   0.615   4.217   0.577  0.6367 -0.0028 -0.5283
   38MOL   C24712161   0.655   4.426   1.058 -0.9461 -0.0316 -0.5619
   38MOL   H24812162   0.505   4.301   0.956 -1.0516  1.1899  0.5590
   38MOL   H24912163   0.771   4.178   0.867 -0.1594  0.3491  0.2277
   38MOL   H25012164   0.593   4.138   0.847 -1.4006  2.1228  1.1272
   38MOL   H25112165   0.705   4.038   0.656 -1.4388  0.4013 -1.3272
   38MOL   H25212166   0.812   4.175   0.655 -1.0897  0.9256 -1.8182
   38MOL   H25312167   0.645   4.322   0.565 -0.5571  0.5154  0.9854
   38MOL   H25412168   0.508   4.201   0.586  0.3969  1.4810 -0.5362
   38MOL   H25512169   0.631   4.163   0.484  0.8357  0.3064 -0.6752
   38MOL   H25612170   0.723   4.502   1.021 -0.0761 -0.6253 -0.2032
   38MOL   H25712171   0.597   4.493   1.122  0.3422 -0.4667  1.1237
   38MOL   C25812172   0.734   4.321   1.138  0.7810 -0.2776  0.0264
   38MOL   O25912173   0.817   4.387   1.227 -0.3780  1.3559 -0.0006
   38MOL   C26012174   0.951   4.384   1.193 -0.2281 -0.0466 -0.4772
   38MOL   C26112175   1.029   4.495   1.264 -0.8211 -0.4162 -0.2451
   38MOL   C26212176   0.993   4.638   1.226  0.3627 -0.1669  0.3858
   38MOL   C26312177   0.636   4.232   1.215 -0.6338 -0.1480 -0.3474
   38MOL   H26412178   0.800   4.261   1.076  1.1664  1.4378 -1.2639
   38MOL   H26512179   1.004   4.292   1.220  2.6148  1.5086 -0.5642
   38MOL   H26612180   0.970   4.391   1.086 -0.0246 -1.4941 -0.5550
   38MOL   H26712181   1.133   4.468   1.250 -1.3439 -1.6233 -2.0283
   38MOL   H26812182   0.999   4.483   1.368  0.9421  0.8698  0.4392
   38MOL   H26912183   1.043   4.711   1.289  0.8886 -1.4392  1.4790
   38MOL   H27012184   0.884   4.643   1.234  0.2222 -2.1773  0.1711
   38MOL   H27112185   1.018   4.657   1.122 -2.3766 -0.3115 -0.3408
   38MOL   H27212186   0.617   4.282   1.310 -0.5358 -0.5111 -0.1362
   38MOL   H27312187   0.536   4.230   1.172 -0.3924  0.0465 -0.9303
   38MOL   C27412188   0.693   4.093   1.247  0.5553 -0.6779 -0.2384
   38MOL   O27512189   0.644   4.039   1.369  0.5696  0.4117  0.0234
   38MOL   C27612190   0.718   4.067   1.488 -0.3452  0.7470 -0.8370
   38MOL   C27712191   0.665   3.994   1.608 -0.2434  0.1405 -0.5037
   38MOL   C27812192   0.515   4.011   1.628  0.4772 -0.0519 -0.1704
   38MOL   C27912193   0.639   3.988   1.144  0.3099 -0.3486 -0.0227
   38MOL   H28012194   0.802   4.092   1.236  0.6613 -3.2857  0.7473
   38MOL   H28112195   0.825   4.057   1.470 -0.0575  1.4180  0.4341
   38MOL   H28212196   0.710   4.175   1.500  2.2390  1.1019 -1.8700
   38MOL   H28312197   0.724   4.029   1.693 -1.6855  3.0706 -0.6281
   38MOL   H28412198   0.708   3.895   1.593 -1.8522 -0.9608  1.8713
   38MOL   H28512199   0.453   3.961   1.554 -0.8326 -1.0380  1.5442
   38MOL   H28612200   0.497   4.119   1.628 -1.4895 -0.3464 -1.9989
   38MOL   H28712201   0.483   3.961   1.719  0.3720 -0.7754 -0.6036
   38MOL   H28812202   0.532   4.003   1.128  0.1630 -0.7523  0.5772
   38MOL   H28912203   0.683   4.008   1.046  2.4913 -1.7505  0.6224
   38MOL   C29012204   0.679   3.840   1.177 -0.4612 -0.2755  0.7293
   38MOL   O29112205   0.639   3.750   1.070  0.5135  0.0233 -0.2737
   38MOL   C29212206   0.515   3.691   1.090  0.2045  0.0680 -0.2694
   38MOL   C29312207   0.493   3.565   1.002 -0.1052 -0.1052  0.3654
   38MOL   C29412208   0.412   3.597   0.874  0.0892 -0.4677  0.0865
   38MOL   C29512209   0.824   3.822   1.181  0.4914  0.6470  0.5287
   38MOL   H29612210   0.619   3.823   1.266  0.4451  0.4172  1.4790
   38MOL   H29712211   0.515   3.651   1.191  0.5453  0.2482 -0.1948
   38MOL   H29812212   0.441   3.769   1.069 -0.6891 -1.1784 -1.8288
   38MOL   H29912213   0.449   3.486   1.061  0.8828  1.4913  3.3200
   38MOL   H30012214   0.591   3.518   0.988 -0.5501 -1.6345  2.2689
   38MOL   H30112215   0.310   3.622   0.905  0.4650 -1.7386  2.4554
   38MOL   H30212216   0.409   3.513   0.804 -1.6439  0.0419 -0.4787
   38MOL   H30312217   0.457   3.676   0.814  0.5458 -1.1257 -0.4591
   38MOL   H30412218   0.852   3.828   1.076 -0.0737 -0.8495  0.2731
   38MOL   H30512219   0.873   3.899   1.240  3.3675  0.6503 -1.7336
   38MOL   C30612220   0.862   3.687   1.247 -0.0727 -0.7755 -0.0258
   38MOL   O30712221   0.998   3.656   1.216  0.4577  0.2709  0.0278
   38MOL   C30812222   1.029   3.519   1.221  0.0924  0.1057  0.3062
   38MOL   C30912223   1.149   3.505   1.124  0.5206  0.0166  0.9424
   38MOL   C31012224   1.167   3.356   1.104 -0.8186  0.7007 -0.7837
   38MOL   C31112225   0.851   3.692   1.402  0.7305  0.8404  0.1603
   38MOL   H31212226   0.794   3.609   1.213 -1.7901  0.0758  1.3524
   38MOL   H31312227   1.058   3.490   1.322  0.8634  0.8597  0.3040
   38MOL   H31412228   0.945   3.456   1.191 -0.4070 -1.2259  4.2578
   38MOL   H31512229   1.242   3.540   1.169  1.7073  0.6974 -1.9204
   38MOL   H31612230   1.137   3.562   1.032  0.1589  1.0815  1.6354
   38MOL   H31712231   1.077   3.311   1.062 -1.0029 -1.0482  1.3739
   38MOL   H31812232   1.174   3.302   1.199 -1.7748 -1.5751 -1.9541
   38MOL   H31912233   1.256   3.334   1.045  0.1826  1.2004  0.5084
   38MOL   H32012234   0.849   3.592   1.445  2.2649  0.3058 -0.9603
   38MOL   H32112235   0.923   3.753   1.456  1.5237  0.0251  0.0309
   38MOL   H32212236   0.755   3.736   1.430  0.8780  1.6663 -0.5835
   39MOL     C112237   1.370   1.467   6.021  0.1729 -0.0297  0.0522
   39MOL     O212238   1.316   1.522   5.899  0.0261 -0.0983 -0.7648
   39MOL     C312239   1.207   1.437   5.845 -0.1819 -0.0817  0.2470
   39MOL     C412240   1.122   1.516   5.741 -0.3606 -0.3890 -0.9012
   39MOL     C512241   1.021   1.428   5.671 -0.1480 -0.1708 -0.9265
   39MOL     C612242   1.394   1.589   6.109 -0.5906  0.1185 -0.9638
   39MOL     H712243   1.472   1.428   6.011 -0.3281 -1.1562 -0.6995
   39MOL     H812244   1.240   1.340   5.808 -2.7362 -1.6441  1.9638
   39MOL     H912245   1.141   1.410   5.927 -0.8040  0.7093  0.0096
   39MOL    H1012246   1.181   1.562   5.662  0.6837 -0.5401 -0.2345
   39MOL    H1112247   1.067   1.593   5.796  0.7762  1.6255 -2.5333
   39MOL    H1212248   0.948   1.496   5.626  1.6330  2.2755 -0.2235
   39MOL    H1312249   0.972   1.359   5.740 -1.5773  0.1053 -1.6403
   39MOL    H1412250   1.075   1.367   5.600 -0.8097  0.1677 -1.7334
   39MOL    H1512251   1.477   1.648   6.072  0.3281 -1.5719 -1.6543
   39MOL    H1612252   1.303   1.648   6.102  1.4576  3.5108  0.0894
   39MOL    H1712253   1.306   1.387   6.058 -1.0183  0.9236  0.0493
   39MOL    C1812254   1.417   1.565   6.259 -0.1236  0.1810  0.7310
   39MOL    O1912255   1.535   1.486   6.261 -0.3395  0.3096 -0.2351
   39MOL    C2012256   1.550   1.398   6.374  0.1473 -0.8222 -0.3741
   39MOL    C2112257   1.687   1.326   6.366  0.6084  0.1275  0.1176
   39MOL    C2212258   1.703   1.236   6.250  0.4413  0.8790 -0.3950
   39MOL    C2312259   1.421   1.689   6.349 -0.1916 -0.1112  0.0446
   39MOL    H2412260   1.346   1.495   6.303 -1.2707  1.1361  0.4146
   39MOL    H2512261   1.535   1.443   6.472 -1.1560 -2.8874  0.3844
   39MOL    H2612262   1.482   1.314   6.367 -0.1862 -0.4017 -2.7676
   39MOL    H2712263   1.694   1.266   6.457  0.4315 -1.7755 -1.1016
   39MOL    H2812264   1.768   1.399   6.376  1.6779 -1.2691  2.0462
   39MOL    H2912265   1.704   1.282   6.151  1.4513 -0.1635 -0.8763
   39MOL    H3012266   1.629   1.156   6.244  3.4559 -2.0692  0.3870
   39MOL    H3112267   1.800   1.187   6.253 -0.2241 -0.4311  0.2564
   39MOL    H3212268   1.442   1.654   6.451 -0.3724 -0.2018  0.0500
   39MOL    H3312269   1.496   1.758   6.311  0.5277 -2.2206 -2.4827
   39MOL    C3412270   1.293   1.773   6.337  0.4360 -0.0340 -0.4038
   39MOL    O3512271   1.195   1.678   6.367 -0.2029 -0.7331 -0.0421
   39MOL    C3612272   1.073   1.713   6.304 -0.1491  0.1456  0.6727
   39MOL    C3712273   0.960   1.621   6.363 -0.3503 -0.0056 -0.4160
   39MOL    C3812274   0.826   1.634   6.285  0.2012 -0.0796  0.1898
   39MOL    C3912275   1.294   1.898   6.433 -0.1161 -0.3951 -0.4802
   39MOL    H4012276   1.286   1.803   6.232  2.3827 -1.5667 -0.9910
   39MOL    H4112277   1.046   1.817   6.321 -0.9365  0.0585 -0.0140
   39MOL    H4212278   1.076   1.708   6.195 -3.4987 -0.9475  0.5850
   39MOL    H4312279   0.946   1.626   6.471  0.1132 -1.9431 -0.2328
   39MOL    H4412280   1.006   1.522   6.360  2.1649  0.9791  2.5625
   39MOL    H4512281   0.774   1.726   6.314 -0.9335 -0.6391 -0.0329
   39MOL    H4612282   0.761   1.548   6.300 -0.4997  0.1339 -1.4647
   39MOL    H4712283   0.846   1.653   6.179  1.4588  1.9100  0.7502
   39MOL    H4812284   1.202   1.952   6.412 -1.1426 -0.9080  2.4584
   39MOL    H4912285   1.290   1.874   6.539 -0.2809  2.6730  0.2579
   39MOL    C5012286   1.410   1.996   6.418  0.3724 -0.0095  0.7677
   39MOL    O5112287   1.402   2.021   6.279  0.2291 -0.3509 -0.5648
   39MOL    C5212288   1.525   2.054   6.219 -0.4976  0.4465  0.8892
   39MOL    C5312289   1.497   2.043   6.064 -0.2971  0.2430  0.5089
   39MOL    C5412290   1.405   2.147   6.006  0.1600  0.2306 -0.5183
   39MOL    C5512291   1.387   2.134   6.483 -0.4901 -0.1573 -0.1106
   39MOL    H5612292   1.508   1.960   6.450  0.6233  0.4027  0.4780
   39MOL    H5712293   1.540   2.158   6.248  2.0591  0.2015  0.5316
   39MOL    H5812294   1.613   2.004   6.257 -1.7196 -0.5697  2.4456
   39MOL    H5912295   1.460   1.943   6.044  0.4579  0.3687 -1.6325
   39MOL    H6012296   1.598   2.042   6.023 -0.9283  0.2769 -1.0793
   39MOL    H6112297   1.440   2.245   6.037 -1.3372  0.1577  1.4727
   39MOL    H6212298   1.305   2.117   6.040  0.1734 -1.4419 -1.8504
   39MOL    H6312299   1.387   2.154   5.898 -2.1311 -0.0575 -0.1798
   39MOL    H6412300   1.461   2.206   6.449 -3.7210  2.0709 -2.7501
   39MOL    H6512301   1.292   2.179   6.455  0.7372  1.0627 -2.4389
   39MOL    C6612302   1.405   2.143   6.640  0.1073  0.1149  1.0874
   39MOL    O6712303   1.324   2.044   6.713  0.3044  0.0674 -0.2176
   39MOL    C6812304   1.183   2.069   6.701  0.0104  0.0406 -0.0076
   39MOL    C6912305   1.097   1.974   6.787  0.6681 -0.2280 -0.7293
   39MOL    C7012306   1.117   1.827   6.759 -0.6444 -0.6950  0.0716
   39MOL    C7112307   1.552   2.132   6.680  0.6619  0.1287  0.6712
   39MOL    H7212308   1.371   2.243   6.667 -1.3451  0.5098 -1.9581
   39MOL    H7312309   1.152   2.172   6.722 -0.8384 -0.2125 -0.0040
   39MOL    H7412310   1.148   2.065   6.598  0.1960 -0.3676 -0.0551
   39MOL    H7512311   0.991   1.999   6.778  0.5721 -0.4022 -0.0764
   39MOL    H7612312   1.122   1.992   6.891  0.9242  0.4364 -0.8995
   39MOL    H7712313   1.223   1.801   6.753 -0.8571 -1.1323 -2.3247
   39MOL    H7812314   1.081   1.806   6.658 -0.2517 -1.8443  0.1563
   39MOL    H7912315   1.059   1.760   6.822 -1.3053  0.5893  0.8501
   39MOL    H8012316   1.556   2.125   6.789 -0.8589 -2.1449  0.6134
   39MOL    H8112317   1.587   2.031   6.657  2.5279  0.5503  1.4985
   39MOL    C8212318   1.665   2.235   6.633  0.7320 -0.2468  0.0841
   39MOL    O8312319   1.605   2.362   6.620 -0.2098  0.0339  0.0067
   39MOL    C8412320   1.683   2.451   6.546 -0.0956  0.4953 -0.0376
   39MOL    C8512321   1.610   2.589   6.523 -0.3984  0.8153  0.4954
   39MOL    C8612322   1.686   2.707   6.482  0.3892  0.1212 -0.3247
   39MOL    C8712323   1.794   2.230   6.721  0.8554  0.3168 -0.6355
   39MOL    H8812324   1.703   2.203   6.536  0.6393 -2.2360  0.6838
   39MOL    H8912325   1.779   2.476   6.592 -1.1016  0.8802  1.9388
   39MOL    H9012326   1.712   2.401   6.454  0.6614 -0.2779  0.6053
   39MOL    H9112327   1.569   2.624   6.618  0.2960  0.4257  0.9462
   39MOL    H9212328   1.525   2.555   6.464  0.5821 -2.2824  0.7708
   39MOL    H9312329   1.619   2.792   6.468  1.6024  0.8191 -2.1029
   39MOL    H9412330   1.735   2.714   6.384  1.4699  2.0877  0.3346
   39MOL    H9512331   1.759   2.741   6.555  2.3176  0.0587 -2.1727
   39MOL    H9612332   1.863   2.310   6.695  0.3140  1.4133  1.2167
   39MOL    H9712333   1.767   2.246   6.825  1.1949 -0.0398 -0.4908
   39MOL    C9812334   1.874   2.105   6.735 -0.8052  0.3162 -0.0848
   39MOL    O9912335   1.914   2.076   6.599 -0.0591 -0.3952 -0.2792
   39MOL   C10012336   1.908   1.937   6.562  0.5329 -0.6356 -0.3509
   39MOL   C10112337   1.939   1.920   6.411 -0.2518 -0.2133 -0.7883
   39MOL   C10212338   2.085   1.950   6.368 -0.1006 -0.3035  0.5052
   39MOL   C10312339   2.000   2.115   6.833 -0.9064 -0.0856  0.5626
   39MOL   H10412340   1.813   2.023   6.772  2.0786 -2.3466 -1.0288
   39MOL   H10512341   1.985   1.884   6.617  0.6492  0.6376  0.7189
   39MOL   H10612342   1.807   1.904   6.589  1.1040 -1.0247  1.3779
   39MOL   H10712343   1.879   1.986   6.350 -1.3434  1.6999  2.2772
   39MOL   H10812344   1.921   1.816   6.384  1.6275 -1.2260  1.6119
   39MOL   H10912345   2.096   1.942   6.260 -0.2205 -1.0714  0.5428
   39MOL   H11012346   2.152   1.883   6.423  0.4870  0.5726  0.8626
   39MOL   H11112347   2.119   2.053   6.372 -0.6205  0.0384 -2.4787
   39MOL   H11212348   1.966   2.141   6.934 -1.1334 -1.9388  0.9880
   39MOL   H11312349   2.033   2.011   6.839 -0.5723  0.0406  0.9703
   39MOL   C11412350   2.109   2.217   6.803  0.3917  1.0048  0.6209
   39MOL   O11512351   2.198   2.243   6.911  0.1004  0.0654 -0.1125
   39MOL   C11612352   2.133   2.326   7.013  0.0013  0.8762  0.2753
   39MOL   C11712353   2.192   2.304   7.143 -0.5494  0.0228  0.1272
   39MOL   C11812354   2.151   2.176   7.214 -0.6812 -0.0898  0.3752
   39MOL   C11912355   2.202   2.192   6.683 -0.0404  0.3518 -0.0256
   39MOL   H12012356   2.070   2.317   6.788 -0.5230  0.8913  2.0892
   39MOL   H12112357   2.152   2.426   6.975 -1.2513  0.8158 -0.5505
   39MOL   H12212358   2.027   2.304   7.030  0.4163  0.3275  2.2819
   39MOL   H12312359   2.178   2.389   7.209  0.9749  0.1393  0.3164
   39MOL   H12412360   2.297   2.306   7.114 -1.2283  0.1533 -2.4248
   39MOL   H12512361   2.156   2.091   7.146 -0.3436  1.6918 -1.9054
   39MOL   H12612362   2.048   2.189   7.246 -0.9893 -0.9381 -0.2445
   39MOL   H12712363   2.206   2.162   7.307  1.0199  1.0015 -0.4211
   39MOL   H12812364   2.286   2.126   6.701 -0.8943 -0.5213  0.7679
   39MOL   H12912365   2.161   2.130   6.603 -1.0940  0.5870  0.3106
   39MOL   C13012366   2.249   2.332   6.627 -0.8281  1.0087  0.3666
   39MOL   O13112367   2.350   2.317   6.519  0.4077 -0.3091 -0.5698
   39MOL   C13212368   2.475   2.295   6.575  0.1404  0.4148 -0.7656
   39MOL   C13312369   2.574   2.332   6.465  0.1802 -0.5459  0.4232
   39MOL   C13412370   2.714   2.304   6.515 -0.0795 -0.3167  0.5796
   39MOL   C13512371   2.133   2.405   6.542 -0.0697  0.4145 -0.5279
   39MOL   H13612372   2.287   2.394   6.709  0.5425  2.0164 -0.9941
   39MOL   H13712373   2.497   2.358   6.660  0.5286 -1.3049  0.4357
   39MOL   H13812374   2.490   2.188   6.593 -0.3106  0.9658  3.1896
   39MOL   H13912375   2.559   2.439   6.455  3.2914 -0.0854  0.2055
   39MOL   H14012376   2.553   2.300   6.363  3.3770  1.7700 -1.0273
   39MOL   H14112377   2.737   2.347   6.612 -0.1460 -1.0821  0.9361
   39MOL   H14212378   2.784   2.345   6.442  0.3196 -1.7973  0.1125
   39MOL   H14312379   2.733   2.197   6.517  3.5060  0.2737  0.3379
   39MOL   H14412380   2.124   2.357   6.445 -0.3708 -1.7914  0.5543
   39MOL   H14512381   2.035   2.381   6.584  0.3458 -1.1018 -0.3711
   39MOL   C14612382   2.146   2.563   6.544  0.0386  0.1309  0.3528
   39MOL   O14712383   2.059   2.611   6.452  0.2708  0.6858  0.7700
   39MOL   C14812384   2.119   2.611   6.316  0.0202  0.1128 -0.5777
   39MOL   C14912385   2.026   2.698   6.226  0.1490 -0.4479 -0.0103
   39MOL   C15012386   1.992   2.833   6.284  0.1488 -0.0438 -0.3830
   39MOL   C15112387   2.115   2.641   6.673  0.4907  0.1396  0.3132
   39MOL   H15212388   2.249   2.581   6.515  0.6431 -1.8757  1.1452
   39MOL   H15312389   2.223   2.645   6.317 -0.1735  0.6739  0.7278
   39MOL   H15412390   2.113   2.505   6.288  1.6235 -0.5030  1.2912
   39MOL   H15512391   1.931   2.649   6.206  0.4860 -1.1875  0.2000
   39MOL   H15612392   2.065   2.701   6.124 -0.7193  0.8518 -0.3219
   39MOL   H15712393   2.078   2.888   6.322 -0.4386 -0.0727  1.0234
   39MOL   H15812394   1.926   2.820   6.370 -1.7532  1.6351 -1.5159
   39MOL   H15912395   1.938   2.902   6.218 -1.1693  1.6733  2.3649
   39MOL   H16012396   2.006   2.640   6.676  0.5064 -0.4000  0.8195
   39MOL   H16112397   2.152   2.589   6.761  3.0437 -2.8162 -2.3623
   39MOL   C16212398   2.170   2.781   6.671  0.2313 -0.1572 -0.1683
   39MOL   O16312399   2.130   2.848   6.788  0.2084  0.0945 -0.0801
   39MOL   C16412400   2.018   2.938   6.756 -0.4864  0.9258  0.4340
   39MOL   C16512401   2.003   3.041   6.865  0.3191  0.1933  0.2073
   39MOL   C16612402   1.896   3.142   6.849  0.2867 -0.0782 -0.2473
   39MOL   C16712403   2.322   2.779   6.693  0.1288 -0.0711 -0.1989
   39MOL   H16812404   2.155   2.843   6.582  0.1406 -0.1237 -0.1294
   39MOL   H16912405   2.032   3.001   6.669 -0.0190  1.0914  0.6274
   39MOL   H17012406   1.921   2.888   6.747  0.4461 -0.4028 -3.2113
   39MOL   H17112407   2.094   3.100   6.872 -0.3698  1.4633 -1.0950
   39MOL   H17212408   1.987   2.994   6.962  0.8105 -0.6683 -0.1322
   39MOL   H17312409   1.892   3.206   6.938  2.5165  1.2016 -1.0349
   39MOL   H17412410   1.793   3.106   6.843  0.4871 -0.5539 -0.8155
   39MOL   H17512411   1.917   3.210   6.767 -0.5384  0.7134  0.1883
   39MOL   H17612412   2.347   2.727   6.786 -2.7685 -0.7632  0.2422
   39MOL   H17712413   2.367   2.709   6.623  0.0868 -0.9126  0.6003
   39MOL   C17812414   2.405   2.909   6.686  0.0948 -0.1404  0.2716
   39MOL   O17912415   2.357   3.001   6.580  0.1735 -0.1004 -0.0370
   39MOL   C18012416   2.402   2.972   6.451 -0.2600 -0.4496  0.1678
   39MOL   C18112417   2.380   3.095   6.353 -0.0774  0.2173  0.1599
   39MOL   C18212418   2.450   3.061   6.215  0.1441 -0.2486  0.1081
   39MOL   C18312419   2.402   2.985   6.822  0.7035  0.4673 -0.0260
   39MOL   H18412420   2.510   2.889   6.662  0.0362  1.2465 -1.2320
   39MOL   H18512421   2.509   2.951   6.443 -0.0323  0.1949  1.3786
   39MOL   H18612422   2.358   2.877   6.424 -2.0579  0.6379 -0.8433
   39MOL   H18712423   2.409   3.191   6.395 -2.1585  1.0690 -0.2963
   39MOL   H18812424   2.277   3.114   6.325  0.8191  2.9824 -1.4841
   39MOL   H18912425   2.392   3.087   6.127 -0.0456 -3.0742 -0.6278
   39MOL   H19012426   2.469   2.955   6.202 -0.3645 -0.2336 -0.7640
   39MOL   H19112427   2.542   3.119   6.203 -0.9354  1.3377 -0.7231
   39MOL   H19212428   2.440   3.083   6.795  1.5040  0.4206  0.8707
   39MOL   H19312429   2.298   3.006   6.847  0.6257  0.4413 -0.3256
   39MOL   C19412430   2.490   2.933   6.938  0.1993 -0.5909 -0.0979
   39MOL   O19512431   2.439   2.812   6.993  0.5212 -0.2434  0.4380
   39MOL   C19612432   2.326   2.827   7.078  1.1615 -0.5386 -0.1421
   39MOL   C19712433   2.287   2.692   7.133  0.3849 -0.2164  0.0343
   39MOL   C19812434   2.390   2.633   7.229 -0.1490 -0.7384  0.3999
   39MOL   C19912435   2.637   2.927   6.898  0.7496  0.2601 -0.5008
   39MOL   H20012436   2.478   3.008   7.016  3.2434  1.1407 -1.2265
   39MOL   H20112437   2.354   2.884   7.166 -1.2677  1.2446 -0.4805
   39MOL   H20212438   2.244   2.875   7.024  0.0138  0.0187  2.0368
   39MOL   H20312439   2.264   2.618   7.057  0.2413 -1.9661  1.7411
   39MOL   H20412440   2.188   2.708   7.176 -0.0456 -2.1345 -0.2019
   39MOL   H20512441   2.415   2.690   7.319  0.9661 -0.6877  0.0673
   39MOL   H20612442   2.485   2.613   7.180  1.0499  1.6958  1.6306
   39MOL   H20712443   2.361   2.533   7.261  0.0196 -1.1159 -0.6155
   39MOL   H20812444   2.644   2.828   6.853  0.3134  0.2164 -0.4824
   39MOL   H20912445   2.662   3.006   6.827  2.8846 -0.3195 -0.4318
   39MOL   C21012446   2.730   2.940   7.023 -0.0999  0.2753 -0.2109
   39MOL   O21112447   2.719   3.075   7.070  0.4211  0.2888  0.5605
   39MOL   C21212448   2.804   3.158   6.998  0.3339 -0.2748 -0.4342
   39MOL   C21312449   2.761   3.297   7.029 -0.1976 -0.1416  0.6457
   39MOL   C21412450   2.633   3.339   6.951 -0.2578  0.2607  0.0122
   39MOL   C21512451   2.716   2.835   7.138 -0.7954  0.2119  0.5229
   39MOL   H21612452   2.827   2.930   6.976  0.3531 -0.4844  0.8687
   39MOL   H21712453   2.903   3.128   7.032 -0.0294 -1.3536 -0.2755
   39MOL   H21812454   2.795   3.135   6.891 -0.6576  1.0692 -0.6516
   39MOL   H21912455   2.849   3.353   6.999  0.3064  0.0087  2.3274
   39MOL   H22012456   2.740   3.323   7.133 -2.2222  0.8825 -0.0059
   39MOL   H22112457   2.606   3.444   6.959 -1.7813  0.0296 -1.7316
   39MOL   H22212458   2.552   3.275   6.988 -1.3576  1.7157  0.1534
   39MOL   H22312459   2.629   3.302   6.848 -2.5601 -0.6242  0.3766
   39MOL   H22412460   2.618   2.844   7.184 -1.8210  2.2913 -1.9504
   39MOL   H22512461   2.732   2.736   7.094 -1.3268  0.1222  0.5210
   39MOL   C22612462   2.815   2.864   7.249  0.6238 -0.0641 -0.1279
   39MOL   O22712463   2.776   2.801   7.371  0.1286  0.0576 -0.1340
   39MOL   C22812464   2.676   2.876   7.439  0.2259 -0.0160  0.1946
   39MOL   C22912465   2.619   2.806   7.571  0.4839  0.3626 -0.7476
   39MOL   C23012466   2.522   2.894   7.646  0.1940 -0.0504  0.1881
   39MOL   C23112467   2.952   2.805   7.229  0.7969  0.3465 -0.6948
   39MOL   H23212468   2.820   2.972   7.262  2.2758  0.1169 -2.1791
   39MOL   H23312469   2.715   2.971   7.476 -1.5422 -0.0526  2.2569
   39MOL   H23412470   2.593   2.907   7.375 -1.0982 -1.4562  1.1670
   39MOL   H23512471   2.706   2.771   7.625 -0.5816  1.9131  2.0855
   39MOL   H23612472   2.572   2.715   7.531  0.8962  0.1339 -0.7101
   39MOL   H23712473   2.552   2.996   7.670  0.8010 -0.5005  1.3634
   39MOL   H23812474   2.492   2.848   7.740  0.2572  0.0260  0.2453
   39MOL   H23912475   2.430   2.906   7.588  0.3915  0.1418 -0.0875
   39MOL   H24012476   2.951   2.696   7.224  1.2564  0.2741  0.4981
   39MOL   H24112477   2.985   2.824   7.127  0.9019 -1.3682 -0.9998
   39MOL   C24212478   3.054   2.873   7.325 -0.2373 -0.4707  0.4844
   39MOL   O24312479   3.168   2.793   7.307 -0.2714 -0.1128 -0.1969
   39MOL   C24412480   3.204   2.712   7.409  0.3952 -0.4812 -0.7783
   39MOL   C24512481   3.334   2.643   7.371 -0.7152  0.5634  0.7568
   39MOL   C24612482   3.311   2.549   7.250  0.1396  0.6550 -0.6802
   39MOL   C24712483   3.092   3.016   7.279  0.1180  0.5486  0.0270
   39MOL   H24812484   3.018   2.872   7.428 -0.2749 -2.4338  0.4638
   39MOL   H24912485   3.217   2.772   7.499  2.3788  0.9876 -1.9891
   39MOL   H25012486   3.122   2.644   7.433  1.0451 -0.9919  0.0700
   39MOL   H25112487   3.362   2.573   7.449 -0.4788 -1.4296 -1.0705
   39MOL   H25212488   3.407   2.717   7.337 -1.4017 -1.0304 -4.7915
   39MOL   H25312489   3.295   2.607   7.160 -1.5072 -0.2892 -1.0147
   39MOL   H25412490   3.215   2.496   7.251 -0.4299  1.5909  2.5796
   39MOL   H25512491   3.392   2.479   7.232  0.9857  1.4232  0.0570
   39MOL   H25612492   3.129   3.011   7.177 -0.3725  0.0945 -0.1279
   39MOL   H25712493   3.002   3.077   7.266  0.1665  0.2540 -1.8469
   39MOL   C25812494   3.178   3.095   7.368  0.1400 -0.4430 -0.3587
   39MOL   O25912495   3.190   3.225   7.312  0.2508 -0.2861  0.1782
   39MOL   C26012496   3.269   3.237   7.198  0.0759 -0.5298 -0.1066
   39MOL   C26112497   3.231   3.375   7.137  0.4490  0.0175 -0.2565
   39MOL   C26212498   3.298   3.481   7.213  0.3133 -0.2951 -0.3226
   39MOL   C26312499   3.135   3.116   7.520  0.3127  0.4863  0.5085
   39MOL   H26412500   3.280   3.057   7.372 -0.5517 -2.2905  0.2994
   39MOL   H26512501   3.371   3.206   7.220  0.2509 -0.1704 -0.3967
   39MOL   H26612502   3.242   3.161   7.125 -0.2992 -1.2291  0.7523
   39MOL   H26712503   3.122   3.379   7.142  0.4156 -1.0843  0.0160
   39MOL   H26812504   3.270   3.379   7.035  0.0157 -0.9690 -0.4658
   39MOL   H26912505   3.282   3.578   7.166 -1.5719  0.0348  0.9154
   39MOL   H27012506   3.405   3.471   7.231  0.5930  0.4694 -1.5737
   39MOL   H27112507   3.246   3.497   7.308  2.3585  0.5757  0.6849
   39MOL   H27212508   3.132   3.022   7.575 -0.2442  0.1753 -0.0531
   39MOL   H27312509   3.211   3.189   7.547 -0.2466  1.8745 -1.5842
   39MOL   C27412510   2.994   3.171   7.550  0.1594 -0.5003 -0.6197
   39MOL   O27512511   2.982   3.175   7.696 -0.3688  0.0852 -0.1546
   39MOL   C27612512   2.919   3.068   7.755 -0.5818  0.5496 -0.5392
   39MOL   C27712513   2.923   3.068   0.073 -0.0766 -0.0453  0.3482
   39MOL   C27812514   2.778   3.086   0.124 -0.0468 -0.2175 -0.4588
   39MOL   C27912515   2.965   3.307   7.486  0.2723  0.2628  0.3705
   39MOL   H28012516   2.912   3.108   7.515  0.2105 -1.5224  1.0795
   39MOL   H28112517   2.813   3.065   7.727 -0.5240  0.8851 -0.8021
   39MOL   H28212518   2.962   2.976   7.715 -0.5966  0.6590 -0.8139
   39MOL   H28312519   2.978   3.153   0.112  0.5982 -0.0064 -0.6506
   39MOL   H28412520   2.960   2.976   0.118  1.1877  1.2197  1.9540
   39MOL   H28512521   2.730   3.169   0.072 -0.6001 -0.2241  0.0219
   39MOL   H28612522   2.773   3.100   0.232 -1.7955  0.3470 -0.5904
   39MOL   H28712523   2.722   2.994   0.105 -1.8169  1.0885 -1.6986
   39MOL   H28812524   3.051   3.367   7.516 -0.2975  1.0502  0.4482
   39MOL   H28912525   2.966   3.302   7.378  0.0537  0.0136  0.3788
   39MOL   C29012526   2.830   3.358   7.542  0.0972 -1.0307  0.1156
   39MOL   O29112527   2.821   3.491   7.476 -0.8537 -0.5877  0.0925
   39MOL   C29212528   2.860   3.600   7.559 -0.1812 -0.3806 -0.2718
   39MOL   C29312529   2.828   3.737   7.492  0.3082  0.0693 -0.0596
   39MOL   C29412530   2.703   3.744   7.398 -0.8070  0.2252  0.4046
   39MOL   C29512531   2.710   3.281   7.487  0.9115  0.1412 -0.1391
   39MOL   H29612532   2.825   3.369   7.650 -1.1388  0.7151 -0.0982
   39MOL   H29712533   2.816   3.594   7.658  0.9021  2.7648  0.4494
   39MOL   H29812534   2.966   3.598   7.584 -0.1105 -1.0206 -0.6244
   39MOL   H29912535   2.918   3.747   7.432 -0.0626  6.2476  0.1147
   39MOL   H30012536   2.819   3.821   7.560  2.8889  0.1531  0.2082
   39MOL   H30112537   2.611   3.769   7.451 -0.8122 -2.7599  1.8859
   39MOL   H30212538   2.691   3.652   7.340  3.5692  0.6255 -1.3587
   39MOL   H30312539   2.710   3.819   7.319 -1.5068 -2.3162 -2.1433
   39MOL   H30412540   2.730   3.271   7.380 -1.5106  1.0485 -0.7094
   39MOL   H30512541   2.700   3.183   7.533 -2.7015  1.0620  1.2373
   39MOL   C30612542   2.568   3.338   7.500  0.4396 -0.3778  0.2012
   39MOL   O30712543   2.478   3.248   7.435 -0.2140  0.6490  0.2167
   39MOL   C30812544   2.453   3.275   7.295 -0.0717 -0.0079 -0.1440
   39MOL   C30912545   2.372   3.162   7.249  0.5223 -0.0470  0.3425
   39MOL   C31012546   2.245   3.131   7.334  0.0749  0.3181  0.5800
   39MOL   C31112547   2.525   3.346   7.653 -0.3043 -0.1064 -0.4925
   39MOL   H31212548   2.564   3.439   7.459 -1.4734 -1.2323 -1.8544
   39MOL   H31312549   2.409   3.375   7.290 -0.6655 -0.1531  1.9499
   39MOL   H31412550   2.547   3.270   7.240 -0.5611 -0.3816 -0.9534
   39MOL   H31512551   2.433   3.073   7.238 -0.6366 -1.0567  1.9203
   39MOL   H31612552   2.359   3.192   7.144  3.0606 -0.9178 -0.2473
   39MOL   H31712553   2.163   3.075   7.291  1.2748 -1.6167  0.7293
   39MOL   H31812554   2.195   3.227   7.344 -0.8799 -0.1805  0.5751
   39MOL   H31912555   2.265   3.104   7.438  2.3679 -1.3961 -0.2595
   39MOL   H32012556   2.592   3.413   7.707 -0.3640 -0.0525 -0.4869
   39MOL   H32112557   2.418   3.355   7.674 -0.1423  1.9176 -0.4697
   39MOL   H32212558   2.550   3.260   7.715  1.4087  0.3316 -0.5521
   40MOL     C112559   3.929   0.671   5.193 -0.3883  0.3847 -0.0149
   40MOL     O212560   3.871   0.548   5.207 -0.1368  0.2050  0.2231
   40MOL     C312561   3.962   0.438   5.213  0.4498 -0.7057 -0.2214
   40MOL     C412562   3.890   0.307   5.234 -0.0720  0.4453 -0.4975
   40MOL     C512563   3.840   0.254   5.102  0.0667  0.3304 -0.1771
   40MOL     C612564   3.823   0.778   5.204  0.5660  0.0724  0.6155
   40MOL     H712565   3.978   0.678   5.096  1.6629 -2.6581  0.7545
   40MOL     H812566   4.013   0.425   5.117 -0.2479 -2.7378 -0.3319
   40MOL     H912567   4.029   0.446   5.299  0.7640  1.2826 -0.6334
   40MOL    H1012568   3.827   0.304   5.323  1.1858 -1.9896  0.3648
   40MOL    H1112569   3.962   0.235   5.275 -0.1235  0.3426 -0.5872
   40MOL    H1212570   3.757   0.313   5.065  0.7611  1.9825  0.8670
   40MOL    H1312571   3.806   0.152   5.122  1.3256 -0.5746 -2.3377
   40MOL    H1412572   3.911   0.242   5.020 -1.1101  0.0300 -1.1651
   40MOL    H1512573   3.771   0.778   5.108 -0.7775 -1.4818  1.3207
   40MOL    H1612574   3.749   0.746   5.278 -1.2709 -0.5990 -1.4561
   40MOL    H1712575   3.993   0.686   5.280 -0.1699  0.5414 -0.2017
   40MOL    C1812576   3.880   0.923   5.222 -0.1081 -0.2615  0.1672
   40MOL    O1912577   3.918   0.938   5.359  0.0666 -0.7456  0.4899
   40MOL    C2012578   3.811   0.961   5.443 -0.3630 -0.8692 -0.0543
   40MOL    C2112579   3.869   0.911   5.580  0.1347  0.1005 -0.3766
   40MOL    C2212580   3.843   0.763   5.610 -0.3352 -0.9294  0.0191
   40MOL    C2312581   4.001   0.971   5.132 -0.1064  0.4672 -0.3279
   40MOL    H2412582   3.801   0.994   5.198 -1.1596 -1.2118  0.7398
   40MOL    H2512583   3.789   1.067   5.436 -1.0661 -0.9747  0.4729
   40MOL    H2612584   3.721   0.907   5.416 -2.3096  1.6204  1.2590
   40MOL    H2712585   3.815   0.964   5.658 -0.7744 -0.3010 -0.7287
   40MOL    H2812586   3.976   0.932   5.589  0.0904 -0.4619  1.8020
   40MOL    H2912587   3.909   0.697   5.554 -1.4819 -3.0123  1.0782
   40MOL    H3012588   3.743   0.742   5.573 -0.1798  0.2632 -1.1207
   40MOL    H3112589   3.847   0.732   5.714 -2.2379  0.3826  0.5233
   40MOL    H3212590   4.091   0.913   5.151 -0.8845 -1.1462 -1.4890
   40MOL    H3312591   3.964   0.961   5.030 -1.3124 -1.3335  0.2561
   40MOL    C3412592   4.042   1.120   5.148 -0.3675  0.1611  0.3936
   40MOL    O3512593   4.161   1.134   5.072  0.3054  0.0007 -0.1099
   40MOL    C3612594   4.285   1.127   5.143  0.4158  0.4509  0.2879
   40MOL    C3712595   4.397   1.063   5.063  0.5356 -0.3297  0.0220
   40MOL    C3812596   4.375   0.917   5.039 -0.4959  0.3276 -0.1499
   40MOL    C3912597   3.937   1.218   5.089  0.6308  0.3551  0.0138
   40MOL    H4012598   4.058   1.146   5.253 -3.5537 -0.4220  1.0794
   40MOL    H4112599   4.300   1.228   5.182  0.6617  0.0459  1.2368
   40MOL    H4212600   4.265   1.060   5.226 -1.3090 -1.5416 -1.6683
   40MOL    H4312601   4.490   1.077   5.118  0.8706  1.7024 -1.0288
   40MOL    H4412602   4.397   1.114   4.967  1.2413 -1.2070 -0.4549
   40MOL    H4512603   4.368   0.849   5.124 -4.0923  0.0860 -0.5403
   40MOL    H4612604   4.453   0.876   4.975 -0.2133  0.0439  0.3816
   40MOL    H4712605   4.284   0.900   4.980  1.0368  0.2828 -2.5668
   40MOL    H4812606   3.904   1.191   4.988  0.8699  0.3043 -0.0518
   40MOL    H4912607   3.854   1.198   5.157 -0.6325 -0.2695 -1.6674
   40MOL    C5012608   3.978   1.362   5.102  0.5430 -0.8765 -0.0578
   40MOL    O5112609   3.990   1.429   4.976 -0.3658  0.0358  0.1525
   40MOL    C5212610   4.105   1.393   4.904 -0.1732 -0.5011  0.5239
   40MOL    C5312611   4.102   1.469   4.767 -0.0881 -0.0753 -0.1595
   40MOL    C5412612   4.123   1.624   4.781  0.1186  0.3851  0.5353
   40MOL    C5512613   3.889   1.452   5.186 -0.3005  0.2926  0.1305
   40MOL    H5612614   4.082   1.361   5.137 -0.2397 -2.7204  2.3697
   40MOL    H5712615   4.199   1.404   4.958 -1.5922  0.9673  2.7496
   40MOL    H5812616   4.080   1.292   4.872 -1.3913  0.4706 -1.7114
   40MOL    H5912617   4.012   1.439   4.712  0.4184 -0.4378 -0.7880
   40MOL    H6012618   4.187   1.429   4.712 -1.7410 -1.5196 -1.7471
   40MOL    H6112619   4.115   1.677   4.686 -0.8107 -4.2276 -2.1573
   40MOL    H6212620   4.209   1.648   4.842  0.5823  0.0877 -0.0022
   40MOL    H6312621   4.040   1.662   4.841 -0.0712  0.8066  0.0123
   40MOL    H6412622   3.936   1.550   5.190 -0.3462  0.3092  0.2630
   40MOL    H6512623   3.786   1.474   5.155 -0.6979  0.1187  1.3086
   40MOL    C6612624   3.861   1.399   5.330  0.4981  0.1112 -0.4644
   40MOL    O6712625   3.973   1.390   5.414 -0.0094 -0.2989  0.2215
   40MOL    C6812626   3.984   1.274   5.501  1.0723  0.2912 -0.4696
   40MOL    C6912627   4.113   1.290   5.589  0.5896 -0.4315  0.2585
   40MOL    C7012628   4.133   1.190   5.700 -0.3548  0.4704 -0.2791
   40MOL    C7112629   3.782   1.502   5.415 -1.0817 -0.8958  0.6606
   40MOL    H7212630   3.796   1.312   5.327 -1.5632  1.4161  2.7700
   40MOL    H7312631   3.892   1.271   5.560  1.3013  1.4270 -0.0435
   40MOL    H7412632   3.974   1.184   5.440 -0.6928 -1.2129  1.9012
   40MOL    H7512633   4.111   1.392   5.628 -1.6777 -1.0950  1.9670
   40MOL    H7612634   4.197   1.298   5.520  0.9400  1.9191  0.8990
   40MOL    H7712635   4.174   1.096   5.663 -1.5268 -0.0596 -0.2753
   40MOL    H7812636   4.036   1.167   5.745 -1.3320  2.5008 -1.3225
   40MOL    H7912637   4.196   1.232   5.779 -0.7526  0.6532 -0.0543
   40MOL    H8012638   3.816   1.503   5.518  2.1328  2.3298 -0.3122
   40MOL    H8112639   3.801   1.603   5.377 -1.3248 -0.4484  1.7080
   40MOL    C8212640   3.626   1.487   5.416 -0.5930  0.4287 -0.0753
   40MOL    O8312641   3.599   1.360   5.480  0.1344 -0.7777  0.1103
   40MOL    C8412642   3.481   1.286   5.448  0.3677 -0.3526  0.2390
   40MOL    C8512643   3.448   1.207   5.580 -0.7004 -0.0864 -0.1038
   40MOL    C8612644   3.393   1.311   5.687 -0.0448 -0.0128 -0.6447
   40MOL    C8712645   3.552   1.605   5.487  0.9239  0.5567 -0.1452
   40MOL    H8812646   3.594   1.481   5.312  1.7632 -0.6265 -0.7978
   40MOL    H8912647   3.407   1.363   5.425  1.4989  0.4840 -0.5803
   40MOL    H9012648   3.497   1.209   5.372 -1.2717  0.8114 -1.3394
   40MOL    H9112649   3.527   1.150   5.628 -0.2345  0.7763  0.1639
   40MOL    H9212650   3.379   1.125   5.564  0.5204 -1.4594  1.5210
   40MOL    H9312651   3.301   1.359   5.654  0.0082 -0.1861 -1.0458
   40MOL    H9412652   3.466   1.391   5.703  0.9593 -1.3666  1.7849
   40MOL    H9512653   3.376   1.260   5.781 -4.8585  2.1418 -0.2079
   40MOL    H9612654   3.445   1.582   5.496  0.6933  0.6756 -2.2528
   40MOL    H9712655   3.597   1.616   5.585  2.1640  0.2973 -0.6817
   40MOL    C9812656   3.551   1.728   5.392  0.8676 -0.5519  0.6160
   40MOL    O9912657   3.441   1.713   5.303  0.0238  0.0904  0.0412
   40MOL   C10012658   3.470   1.717   5.162 -0.1584 -0.2689  0.0165
   40MOL   C10112659   3.347   1.703   5.068  0.6756  0.3298  0.2814
   40MOL   C10212660   3.243   1.817   5.091 -0.3551  0.0549 -0.3350
   40MOL   C10312661   3.534   1.864   5.458  0.1787  0.0800  0.1495
   40MOL   H10412662   3.650   1.732   5.345 -0.2629  2.4514 -1.6687
   40MOL   H10512663   3.531   1.799   5.124  1.5122 -1.0074  1.0575
   40MOL   H10612664   3.539   1.634   5.146 -1.2556 -1.1826 -0.0205
   40MOL   H10712665   3.307   1.604   5.093  0.9018  0.6222  1.8213
   40MOL   H10812666   3.374   1.683   4.964  0.0274 -2.7245  0.6357
   40MOL   H10912667   3.207   1.822   5.194  3.1700 -0.2231  0.9679
   40MOL   H11012668   3.152   1.805   5.032 -2.1080  1.6088  1.9539
   40MOL   H11112669   3.286   1.914   5.065  1.4796 -0.7443 -0.3054
   40MOL   H11212670   3.517   1.946   5.389  1.9359  0.2344 -0.1287
   40MOL   H11312671   3.434   1.869   5.500 -0.0829 -0.3948 -0.4124
   40MOL   C11412672   3.650   1.899   5.557 -0.2534  0.4607 -0.1631
   40MOL   O11512673   3.760   1.927   5.470  0.2162  0.1348  0.2525
   40MOL   C11612674   3.883   1.884   5.520 -0.3885  0.1824  0.5732
   40MOL   C11712675   4.005   1.929   5.436 -0.5706 -0.0281 -0.1242
   40MOL   C11812676   3.992   1.907   5.286  1.4855 -0.0630 -0.1172
   40MOL   C11912677   3.611   2.021   5.642  0.3278  0.4657 -0.6732
   40MOL   H12012678   3.680   1.820   5.626 -0.6543  0.3906 -0.0658
   40MOL   H12112679   3.902   1.910   5.625  0.3645  1.6891  0.0710
   40MOL   H12212680   3.880   1.775   5.519  1.3643  0.1115  0.6573
   40MOL   H12312681   4.093   1.873   5.467  0.1009  0.3074 -1.3770
   40MOL   H12412682   4.039   2.029   5.462 -2.5736  0.8942 -0.9154
   40MOL   H12512683   4.085   1.937   5.237  1.3338  1.9143  0.7735
   40MOL   H12612684   3.912   1.973   5.252  0.0319 -3.1218 -2.8733
   40MOL   H12712685   3.966   1.809   5.246 -0.6547  0.2358  0.4802
   40MOL   H12812686   3.698   2.071   5.684  0.6731 -0.8685  0.2258
   40MOL   H12912687   3.560   2.099   5.584 -1.3560  2.3865  3.2179
   40MOL   C13012688   3.519   1.988   5.765  0.4624 -0.3882  0.1006
   40MOL   O13112689   3.585   1.896   5.854 -0.4734  0.3616  0.2276
   40MOL   C13212690   3.546   1.864   5.988 -0.1440 -0.0308 -0.6491
   40MOL   C13312691   3.399   1.827   5.998 -0.1188 -0.0382  0.0389
   40MOL   C13412692   3.367   1.698   5.922 -0.3854  0.2474 -0.1898
   40MOL   C13512693   3.485   2.119   5.839  0.0204  0.2705  0.7460
   40MOL   H13612694   3.431   1.927   5.743  0.0203  0.3580 -0.1951
   40MOL   H13712695   3.611   1.783   6.023 -1.5340 -0.3049  1.3706
   40MOL   H13812696   3.567   1.949   6.052  0.6631  0.2057 -1.2169
   40MOL   H13912697   3.337   1.909   5.959  2.4534  0.7808 -2.5651
   40MOL   H14012698   3.368   1.822   6.102 -3.9833 -0.1660 -1.0471
   40MOL   H14112699   3.417   1.619   5.979 -2.1110 -0.2887  0.6129
   40MOL   H14212700   3.410   1.707   5.823 -2.7447  2.0479 -1.0739
   40MOL   H14312701   3.260   1.679   5.915 -0.6009  1.3380  0.1202
   40MOL   H14412702   3.435   2.094   5.933  1.4819  4.1240  2.6867
   40MOL   H14512703   3.577   2.165   5.876  1.1997 -1.7165  0.3721
   40MOL   C14612704   3.398   2.233   5.766 -0.6589  0.4262 -0.7995
   40MOL   O14712705   3.269   2.196   5.746 -0.2694 -0.1983  0.4260
   40MOL   C14812706   3.245   2.134   5.620  0.4059  0.3972 -0.0502
   40MOL   C14912707   3.118   2.054   5.626 -0.4405 -0.1499 -0.5836
   40MOL   C15012708   3.088   2.002   5.488 -0.7244  0.0481 -0.1106
   40MOL   C15112709   3.405   2.351   5.868  0.1407 -0.6315 -0.4969
   40MOL   H15212710   3.442   2.271   5.674  1.6570 -2.4461 -0.9685
   40MOL   H15312711   3.236   2.209   5.541  0.8582  3.4329  2.6527
   40MOL   H15412712   3.329   2.070   5.595  1.7891  1.9310  0.5693
   40MOL   H15512713   3.043   2.120   5.668 -0.4405 -1.1761  1.0733
   40MOL   H15612714   3.131   1.976   5.701 -1.6940 -1.5359 -1.7591
   40MOL   H15712715   3.002   1.934   5.487 -0.1673 -0.7053  1.2919
   40MOL   H15812716   3.179   1.961   5.445 -0.9765  0.0113 -0.6097
   40MOL   H15912717   3.064   2.078   5.414  0.4053  1.1563  0.6549
   40MOL   H16012718   3.348   2.321   5.956  0.5647  0.2538  0.0980
   40MOL   H16112719   3.502   2.353   5.918  0.1533  0.3434 -0.5407
   40MOL   C16212720   3.380   2.490   5.811  0.6019  0.3593 -0.1191
   40MOL   O16312721   3.329   2.576   5.909  0.4846  0.3167 -0.2735
   40MOL   C16412722   3.188   2.564   5.933 -0.2100  0.4946  0.1137
   40MOL   C16512723   3.151   2.644   6.060 -0.9478  0.5193 -0.2202
   40MOL   C16612724   3.249   2.590   6.173 -0.1146  0.4025  0.5194
   40MOL   C16712725   3.507   2.556   5.756 -0.4788  0.5192 -0.2708
   40MOL   H16812726   3.310   2.490   5.727 -0.1477  2.9492  0.4521
   40MOL   H16912727   3.134   2.607   5.849 -2.1854 -1.0729  0.5543
   40MOL   H17012728   3.161   2.459   5.925  0.9880  0.0685  1.4064
   40MOL   H17112729   3.047   2.623   6.087 -0.5074  0.3530  1.3901
   40MOL   H17212730   3.170   2.750   6.047  0.4614  0.5182  1.6752
   40MOL   H17312731   3.271   2.484   6.165  2.9646  1.0607 -0.3328
   40MOL   H17412732   3.202   2.602   6.271  0.4597  0.0405  0.8503
   40MOL   H17512733   3.343   2.644   6.165 -0.1643  0.5850  1.1265
   40MOL   H17612734   3.569   2.566   5.846 -2.0030 -0.3332  0.8891
   40MOL   H17712735   3.558   2.489   5.687  1.5570  0.7133  0.9855
   40MOL   C17812736   3.485   2.703   5.698 -1.0133  0.0856  0.9417
   40MOL   O17912737   3.617   2.766   5.685 -0.4064  0.2936  0.2899
   40MOL   C18012738   3.647   2.851   5.796 -0.5780  0.0593 -0.1449
   40MOL   C18112739   3.784   2.902   5.770 -0.7728 -0.0156 -0.2463
   40MOL   C18212740   3.802   3.035   5.846 -0.0097 -0.2070  0.3399
   40MOL   C18312741   3.412   2.703   5.562 -0.3509 -1.0491 -0.7241
   40MOL   H18412742   3.423   2.762   5.766 -0.1655  4.8306 -2.1773
   40MOL   H18512743   3.570   2.928   5.804  1.3121  2.2099 -1.8754
   40MOL   H18612744   3.661   2.798   5.890  3.0097 -0.3314 -0.8325
   40MOL   H18712745   3.810   2.927   5.667 -1.8334  0.9067 -0.3066
   40MOL   H18812746   3.860   2.833   5.806  0.8595  1.6354 -0.4060
   40MOL   H18912747   3.783   3.024   5.953 -1.0611  0.2723  0.2100
   40MOL   H19012748   3.725   3.095   5.797  0.3122  0.8732  1.1299
   40MOL   H19112749   3.897   3.077   5.815  0.8318 -0.5368  2.3977
   40MOL   H19212750   3.479   2.755   5.493 -1.1158  0.9860  0.0399
   40MOL   H19312751   3.419   2.600   5.527  0.1392 -0.8408 -1.2393
   40MOL   C19412752   3.275   2.777   5.557  0.3342 -0.0927 -0.4421
   40MOL   O19512753   3.308   2.911   5.516 -0.2674 -0.3574  0.2194
   40MOL   C19612754   3.227   3.019   5.572 -0.2717  0.0580  0.1367
   40MOL   C19712755   3.312   3.140   5.559  0.2204 -0.2990  0.5237
   40MOL   C19812756   3.237   3.263   5.613 -0.2347  0.1119  0.5185
   40MOL   C19912757   3.175   2.718   5.453  0.7166 -0.1631  1.1256
   40MOL   H20012758   3.235   2.777   5.659  1.1358  1.3686 -0.1236
   40MOL   H20112759   3.132   3.036   5.522  1.2622 -0.2919 -3.0096
   40MOL   H20212760   3.209   2.995   5.677 -0.6247 -1.9967 -0.3724
   40MOL   H20312761   3.351   3.156   5.458  0.6433 -0.7562  0.6141
   40MOL   H20412762   3.401   3.140   5.622  0.5408 -1.2186  0.0776
   40MOL   H20512763   3.198   3.251   5.714 -0.7789  1.0991  0.4372
   40MOL   H20612764   3.159   3.300   5.547 -0.1324  4.3486  2.5622
   40MOL   H20712765   3.310   3.343   5.624 -0.6878  0.7154 -0.7825
   40MOL   H20812766   3.080   2.771   5.450  0.9784  0.3815  2.4601
   40MOL   H20912767   3.219   2.732   5.354  0.3490  0.4267  1.0431
   40MOL   C21012768   3.129   2.569   5.471  0.4412  0.1736  0.4251
   40MOL   O21112769   3.057   2.557   5.595 -0.2671  0.2124  0.2230
   40MOL   C21212770   3.030   2.420   5.642 -0.3427 -0.1881  0.2717
   40MOL   C21312771   2.899   2.417   5.720 -0.3838  0.2323  0.3906
   40MOL   C21412772   2.779   2.454   5.628 -0.0275 -0.4633  0.1837
   40MOL   C21512773   3.045   2.520   5.357 -0.1742 -0.4416  0.1951
   40MOL   H21612774   3.216   2.505   5.487  0.3779  0.0016  0.0721
   40MOL   H21712775   3.029   2.342   5.565  0.9874  0.5347 -0.4999
   40MOL   H21812776   3.114   2.397   5.708 -1.5108  1.9026  2.5518
   40MOL   H21912777   2.919   2.492   5.796 -1.1740 -0.3143  1.1432
   40MOL   H22012778   2.896   2.323   5.775  0.2153 -0.3614 -0.5885
   40MOL   H22112779   2.689   2.430   5.684  0.1540 -0.7815  0.3403
   40MOL   H22212780   2.783   2.399   5.534  1.6704 -0.5165  0.2607
   40MOL   H22312781   2.770   2.561   5.608 -0.6080 -0.5146  0.1724
   40MOL   H22412782   2.982   2.436   5.387 -1.3292  0.7335  1.1214
   40MOL   H22512783   2.972   2.599   5.336 -1.5342 -1.3515  1.3766
   40MOL   C22612784   3.131   2.480   5.235 -0.7848 -0.2286 -0.1079
   40MOL   O22712785   3.231   2.383   5.285 -0.3818  0.5268  0.3821
   40MOL   C22812786   3.358   2.384   5.226  0.7955  0.6899  0.0817
   40MOL   C22912787   3.432   2.260   5.275 -0.1386  0.3364  0.0438
   40MOL   C23012788   3.347   2.144   5.209 -0.4749  0.1830 -0.1950
   40MOL   C23112789   3.044   2.421   5.114 -0.7712  1.0221  0.7478
   40MOL   H23212790   3.177   2.572   5.197 -1.3056 -0.0252 -0.2532
   40MOL   H23312791   3.350   2.393   5.117  0.3708  2.4041  0.2455
   40MOL   H23412792   3.426   2.467   5.244  1.2471  0.5617 -0.9615
   40MOL   H23512793   3.434   2.257   5.384  1.2389  1.8678  0.0729
   40MOL   H23612794   3.537   2.247   5.251  0.4078  1.7558  1.5109
   40MOL   H23712795   3.239   2.134   5.221 -0.5701  0.1107 -1.0222
   40MOL   H23812796   3.374   2.045   5.247 -1.5823  0.3956  1.1683
   40MOL   H23912797   3.357   2.135   5.100 -3.9159  0.0291 -0.5425
   40MOL   H24012798   3.113   2.360   5.056  1.7808  1.6141  3.0479
   40MOL   H24112799   2.972   2.349   5.152 -0.5936  0.2790 -0.2835
   40MOL   C24212800   2.976   2.528   5.028 -0.6298 -0.4297  0.1383
   40MOL   O24312801   3.092   2.590   4.972  0.1850  0.2578  0.0174
   40MOL   C24412802   3.073   2.716   4.907  0.6189 -0.3952  0.4092
   40MOL   C24512803   3.206   2.769   4.866  0.7721 -0.3268  0.0436
   40MOL   C24612804   3.299   2.787   4.986 -0.5982 -0.3534 -0.2598
   40MOL   C24712805   2.881   2.479   4.916 -0.5326  0.1446  0.0128
   40MOL   H24812806   2.911   2.591   5.089 -1.1076 -0.3906 -0.4075
   40MOL   H24912807   3.006   2.714   4.821 -0.4713  0.8912  1.2061
   40MOL   H25012808   3.032   2.787   4.979  0.6477  0.4703 -0.4272
   40MOL   H25112809   3.179   2.867   4.826  1.9040 -0.1016 -0.1614
   40MOL   H25212810   3.245   2.715   4.779 -3.6104 -1.1386 -1.5896
   40MOL   H25312811   3.250   2.852   5.057  0.7543  0.7606 -0.3193
   40MOL   H25412812   3.393   2.836   4.960  0.9490 -2.5725  0.9337
   40MOL   H25512813   3.315   2.688   5.029  1.1447  0.1762  0.3530
   40MOL   H25612814   2.845   2.572   4.872 -0.6986  0.5379  0.9751
   40MOL   H25712815   2.935   2.403   4.861 -2.6812 -1.8189  0.5424
   40MOL   C25812816   2.754   2.395   4.969 -0.4276 -0.1412 -0.0264
   40MOL   O25912817   2.668   2.499   5.029 -0.2459 -0.4981 -0.1635
   40MOL   C26012818   2.645   2.499   5.169  0.5865 -0.1700 -0.0390
   40MOL   C26112819   2.581   2.637   5.190 -0.2687  0.1937 -0.8200
   40MOL   C26212820   2.531   2.655   5.328  0.4702  0.2901  0.1803
   40MOL   C26312821   2.673   2.337   4.854 -0.3944 -0.1674  0.2131
   40MOL   H26412822   2.779   2.318   5.043  2.1287 -0.5976 -1.2874
   40MOL   H26512823   2.583   2.417   5.205  1.0401 -0.6346 -0.2978
   40MOL   H26612824   2.738   2.489   5.225  0.5811 -1.3454 -0.2284
   40MOL   H26712825   2.502   2.664   5.120 -1.9300  0.1006  0.9912
   40MOL   H26812826   2.660   2.711   5.172  0.2940 -0.1417  0.2133
   40MOL   H26912827   2.444   2.594   5.352 -0.6055  1.7214 -0.0751
   40MOL   H27012828   2.509   2.761   5.337 -1.8137  0.1991 -3.3387
   40MOL   H27112829   2.610   2.629   5.399  2.2338  1.4349 -1.3121
   40MOL   H27212830   2.625   2.417   4.797  3.2968  1.7180 -0.4544
   40MOL   H27312831   2.731   2.286   4.777 -0.7547  1.0348 -0.8666
   40MOL   C27412832   2.566   2.232   4.888 -0.3108 -0.2297  0.5383
   40MOL   O27512833   2.449   2.291   4.948 -0.1983  0.1641 -0.5101
   40MOL   C27612834   2.384   2.408   4.893  0.4911  0.6400  0.3294
   40MOL   C27712835   2.243   2.407   4.955 -0.2582 -0.3889 -0.4085
   40MOL   C27812836   2.245   2.396   5.106  0.4660 -0.2471  0.0862
   40MOL   C27912837   2.531   2.157   4.756  0.9941  0.2128 -0.3458
   40MOL   H28012838   2.612   2.154   4.949  1.2391  1.9935  2.3000
   40MOL   H28112839   2.440   2.491   4.938  0.5206  0.7231  0.1408
   40MOL   H28212840   2.386   2.415   4.785 -0.6629  1.0276  0.3325
   40MOL   H28312841   2.188   2.337   4.893  1.1190  0.7232 -2.9959
   40MOL   H28412842   2.195   2.500   4.925 -0.4619 -0.0523  0.9230
   40MOL   H28512843   2.311   2.471   5.148  0.4688 -0.3308  0.2307
   40MOL   H28612844   2.278   2.298   5.139  0.8060  0.1343  0.8704
   40MOL   H28712845   2.144   2.415   5.144  0.4945  1.3169 -0.5679
   40MOL   H28812846   2.485   2.221   4.681 -0.4707  0.9211  1.1304
   40MOL   H28912847   2.622   2.121   4.709 -2.1425 -3.7336 -3.7788
   40MOL   C29012848   2.434   2.029   4.773  0.0921 -0.3431  0.2790
   40MOL   O29112849   2.357   2.029   4.658  0.8037 -0.5029  0.0984
   40MOL   C29212850   2.230   2.094   4.675  0.3105  0.1781  0.3320
   40MOL   C29312851   2.155   2.096   4.540 -0.1440  0.6991  0.4092
   40MOL   C29412852   2.022   2.166   4.541  0.4637  0.2181 -0.0513
   40MOL   C29512853   2.497   1.890   4.767 -0.3184  0.4772 -0.0549
   40MOL   H29612854   2.383   2.037   4.869 -1.9435  0.5416 -0.8481
   40MOL   H29712855   2.174   2.045   4.754 -0.4967 -1.0409 -0.9833
   40MOL   H29812856   2.248   2.197   4.705 -0.5679  0.4910 -0.2131
   40MOL   H29912857   2.141   1.994   4.504 -2.0220  0.9274  0.4598
   40MOL   H30012858   2.217   2.130   4.457 -0.1654 -0.9806 -0.3257
   40MOL   H30112859   1.961   2.131   4.624  2.7319 -0.9414  1.1514
   40MOL   H30212860   1.961   2.157   4.451  0.8125  1.5495 -0.4323
   40MOL   H30312861   2.030   2.274   4.558 -2.4372  0.6244 -0.9489
   40MOL   H30412862   2.534   1.868   4.667 -1.5047  1.0240 -0.6081
   40MOL   H30512863   2.591   1.900   4.823 -2.1409  0.3264  3.1406
   40MOL   C30612864   2.413   1.773   4.822  0.4058 -0.2507  0.7194
   40MOL   O30712865   2.491   1.652   4.815  0.5425 -0.1720  0.0122
   40MOL   C30812866   2.427   1.537   4.773  0.0062  0.1958 -1.0300
   40MOL   C30912867   2.540   1.446   4.728  0.6666  0.2969  0.0154
   40MOL   C31012868   2.492   1.331   4.635 -0.7861 -0.7490  0.3278
   40MOL   C31112869   2.359   1.785   4.959 -0.0733 -0.5477  1.1929
   40MOL   H31212870   2.337   1.760   4.745  2.5499 -0.6470 -1.3762
   40MOL   H31312871   2.363   1.491   4.848 -1.7232  0.2137 -2.4464
   40MOL   H31412872   2.369   1.561   4.684  0.6236  0.0428 -1.4785
   40MOL   H31512873   2.612   1.414   4.804  1.6592 -0.3594 -1.1788
   40MOL   H31612874   2.613   1.503   4.671  1.6643 -0.5847  0.3983
   40MOL   H31712875   2.575   1.280   4.585  1.6987  3.6016 -0.2663
   40MOL   H31812876   2.434   1.369   4.551  1.6277  1.3864 -0.4513
   40MOL   H31912877   2.424   1.269   4.693 -1.5973  0.2538  0.4687
   40MOL   H32012878   2.282   1.709   4.970 -0.4626 -0.4340 -0.6185
   40MOL   H32112879   2.434   1.766   5.036 -0.5971 -0.2529  1.7779
   40MOL   H32212880   2.318   1.880   4.992 -0.2834 -1.0163  2.3033
   41MOL     C112881   4.367   4.285   1.788  1.0693 -0.7818  0.2397
   41MOL     O212882   4.241   4.265   1.725 -0.4758 -0.1874 -0.4023
   41MOL     C312883   4.180   4.144   1.766 -0.0558  0.3427 -1.1406
   41MOL     C412884   4.201   4.041   1.653  0.0020  0.6826  0.9298
   41MOL     C512885   4.348   3.981   1.651 -0.4969  1.0374 -0.2474
   41MOL     C612886   4.357   4.390   1.907 -0.0964  0.0769  0.1608
   41MOL     H712887   4.436   4.319   1.710  0.3429  2.1832  0.8269
   41MOL     H812888   4.215   4.110   1.864 -0.2019 -0.0103 -1.2085
   41MOL     H912889   4.073   4.154   1.779 -0.3899 -2.4481 -1.3332
   41MOL    H1012890   4.178   4.095   1.562  1.3075 -0.8928 -0.3551
   41MOL    H1112891   4.133   3.956   1.653  1.8321 -0.8183 -0.0894
   41MOL    H1212892   4.365   3.926   1.559  1.7168  0.8074  0.2736
   41MOL    H1312893   4.369   3.915   1.736  1.6745  2.5103  0.4045
   41MOL    H1412894   4.424   4.058   1.656  0.6446 -0.1401  0.9847
   41MOL    H1512895   4.299   4.477   1.877 -2.2273 -1.3959 -0.1379
   41MOL    H1612896   4.291   4.331   1.971  0.8468 -1.4209 -0.2288
   41MOL    H1712897   4.428   4.200   1.816  2.4363  0.8813  2.5165
   41MOL    C1812898   4.486   4.416   1.986 -0.0670  0.7724 -0.6008
   41MOL    O1912899   4.587   4.468   1.895 -0.2954 -0.2132 -0.5478
   41MOL    C2012900   4.547   4.568   1.799 -0.3219 -0.1961  0.5182
   41MOL    C2112901   4.671   4.638   1.750  0.4175 -0.0161  0.1117
   41MOL    C2212902   4.747   4.545   1.657  1.4707  0.2716 -0.6183
   41MOL    C2312903   4.479   4.511   2.112  0.3927 -0.0996 -1.4036
   41MOL    H2412904   4.525   4.321   2.024  0.5242  0.6515 -1.5016
   41MOL    H2512905   4.489   4.534   1.713  1.6202 -2.4787  0.0528
   41MOL    H2612906   4.484   4.639   1.852 -2.6074 -2.6096  1.0976
   41MOL    H2712907   4.729   4.684   1.830  0.7915  1.6407 -1.0941
   41MOL    H2812908   4.645   4.729   1.696 -1.7495 -0.7956 -0.2410
   41MOL    H2912909   4.808   4.473   1.712 -0.5153 -1.2471 -0.3233
   41MOL    H3012910   4.810   4.610   1.597  0.2816 -0.1942 -2.4148
   41MOL    H3112911   4.681   4.485   1.594 -2.0031  0.9749  2.2215
   41MOL    H3212912   4.576   4.521   2.160  1.1098  0.3416 -2.9199
   41MOL    H3312913   4.457   4.613   2.079  1.9976 -0.4727 -3.7545
   41MOL    C3412914   4.379   4.452   2.208  0.2093  0.0174  0.1896
   41MOL    O3512915   4.436   4.329   2.250  0.5794  0.6657  0.8004
   41MOL    C3612916   4.344   4.225   2.272 -0.3719  0.1482 -0.0627
   41MOL    C3712917   4.427   4.115   2.335 -0.1796  0.5091  0.5136
   41MOL    C3812918   4.518   4.037   2.237  0.6046 -1.1815  0.0575
   41MOL    C3912919   4.353   4.539   2.334 -0.6306 -0.0837 -0.1930
   41MOL    H4012920   4.288   4.445   2.148  2.1879 -0.1436 -2.9536
   41MOL    H4112921   4.253   4.246   2.328 -0.3409 -0.5208  0.2468
   41MOL    H4212922   4.318   4.199   2.169  1.8593  2.6202 -1.3220
   41MOL    H4312923   4.356   4.041   2.371  0.2352 -0.1731 -0.0586
   41MOL    H4412924   4.482   4.157   2.420  1.5266  0.4119 -0.5131
   41MOL    H4512925   4.569   3.950   2.278  2.0728 -1.1940 -1.7456
   41MOL    H4612926   4.576   4.098   2.169 -0.3288  0.8335  1.0272
   41MOL    H4712927   4.444   3.990   2.172  0.1319 -0.7833  0.2990
   41MOL    H4812928   4.308   4.472   2.407 -0.3386 -1.9286 -1.6573
   41MOL    H4912929   4.448   4.560   2.384 -0.5697 -4.3981  1.7323
   41MOL    C5012930   4.262   4.663   2.322 -0.3658 -0.2385  0.8205
   41MOL    O5112931   4.150   4.646   2.406  0.4799  0.0013 -0.2144
   41MOL    C5212932   4.043   4.581   2.333  0.4244 -0.8873  0.1447
   41MOL    C5312933   3.936   4.535   2.427 -0.2680  0.6991 -0.4246
   41MOL    C5412934   3.848   4.646   2.474  0.0009 -0.3268 -0.4398
   41MOL    C5512935   4.336   4.791   2.346 -0.0815 -0.3522 -0.1916
   41MOL    H5612936   4.226   4.673   2.220 -0.2968  0.2701  0.8477
   41MOL    H5712937   3.994   4.646   2.260  0.0301  1.0990  2.1066
   41MOL    H5812938   4.088   4.496   2.282  1.3360 -0.7063  0.6314
   41MOL    H5912939   3.968   4.479   2.515 -1.1799 -1.1897 -1.2626
   41MOL    H6012940   3.871   4.470   2.368 -3.0811  3.0372 -0.0313
   41MOL    H6112941   3.908   4.732   2.503  1.2931 -1.3307 -0.0428
   41MOL    H6212942   3.808   4.620   2.572 -0.5685  0.2506 -0.5226
   41MOL    H6312943   3.778   4.690   2.404  0.5151 -0.3426 -0.9683
   41MOL    H6412944   4.377   4.793   2.447 -0.4653 -0.6532 -0.0302
   41MOL    H6512945   4.424   4.791   2.281  1.2869 -1.0323  1.6107
   41MOL    C6612946   4.269   4.927   2.320  0.2279  0.4251 -0.4183
   41MOL    O6712947   4.358   5.019   2.378 -0.0659 -0.2725 -0.0247
   41MOL    C6812948   4.297   5.142   2.412  1.3572 -0.4345  0.3539
   41MOL    C6912949   4.388   5.255   2.455 -0.3817  0.8192  0.2552
   41MOL    C7012950   4.482   5.225   2.570 -0.2557  0.9329  0.0589
   41MOL    C7112951   4.257   4.954   2.166  0.0164  0.2437  0.1833
   41MOL    H7212952   4.177   4.917   2.378  0.2335 -1.6024 -0.7023
   41MOL    H7312953   4.242   5.182   2.327  0.6953  3.5775  2.5469
   41MOL    H7412954   4.223   5.124   2.490  1.2856 -0.4638  0.2796
   41MOL    H7512955   4.334   5.340   2.495 -0.4607  0.9638 -0.1601
   41MOL    H7612956   4.440   5.296   2.368  1.7525 -1.0409  0.6037
   41MOL    H7712957   4.525   5.124   2.567 -1.0439  0.5760  0.5901
   41MOL    H7812958   4.433   5.221   2.668  0.8088 -1.3646  0.5448
   41MOL    H7912959   4.555   5.299   2.600 -1.0966  1.4006  0.9957
   41MOL    H8012960   4.283   5.056   2.138 -1.0847  0.2188 -0.9856
   41MOL    H8112961   4.317   4.887   2.105  0.6993 -0.3598  1.5145
   41MOL    C8212962   4.111   4.945   2.128  0.3342 -0.2136 -0.3669
   41MOL    O8312963   4.035   5.047   2.192 -0.1264 -0.2357  0.0419
   41MOL    C8412964   3.921   5.008   2.272  0.9145 -0.4338 -0.5673
   41MOL    C8512965   3.838   5.135   2.319  0.1993 -0.1369  0.5641
   41MOL    C8612966   3.772   5.212   2.202  0.4311  0.1511  0.5534
   41MOL    C8712967   4.080   4.945   1.978  0.5632 -0.2954  0.4427
   41MOL    H8812968   4.078   4.849   2.167  0.6762  0.8710  2.7104
   41MOL    H8912969   3.858   4.935   2.221 -0.8445 -1.0330  2.3258
   41MOL    H9012970   3.950   4.952   2.361 -0.1607  0.3126  0.2709
   41MOL    H9112971   3.894   5.204   2.382  0.6065 -0.4364  0.5373
   41MOL    H9212972   3.752   5.102   2.376 -0.1231 -0.1583  0.0633
   41MOL    H9312973   3.730   5.141   2.131  1.0004  0.5143 -0.1560
   41MOL    H9412974   3.843   5.268   2.141 -0.3182  0.2532 -0.2368
   41MOL    H9512975   3.695   5.284   2.229 -0.0793  0.5580 -1.8744
   41MOL    H9612976   3.974   4.931   1.960  0.8448 -0.8158 -0.9011
   41MOL    H9712977   4.112   5.040   1.937 -1.3811 -0.5853 -1.8651
   41MOL    C9812978   4.144   4.816   1.905 -0.3526  1.0514 -0.4297
   41MOL    O9912979   4.106   4.690   1.951 -0.4035  0.3486 -0.5298
   41MOL   C10012980   3.966   4.662   1.953  0.1404  0.3576 -0.0585
   41MOL   C10112981   3.946   4.513   1.987  0.1305  0.2414 -0.0639
   41MOL   C10212982   3.802   4.464   1.989  0.4157 -0.2761  0.3655
   41MOL   C10312983   4.131   4.795   1.755  0.2293  0.3075 -0.5575
   41MOL   H10412984   4.251   4.812   1.926 -0.5693 -0.4881  0.4927
   41MOL   H10512985   3.906   4.724   2.020 -0.1647  0.7520 -0.6942
   41MOL   H10612986   3.920   4.688   1.857 -0.6224  1.4983  0.6032
   41MOL   H10712987   3.987   4.504   2.088 -1.5693  1.1927  0.7303
   41MOL   H10812988   4.003   4.445   1.923  1.5861 -1.6512  3.1006
   41MOL   H10912989   3.769   4.456   1.886  1.2105  1.1884 -0.0249
   41MOL   H11012990   3.736   4.541   2.029 -0.1020 -1.4718  1.8525
   41MOL   H11112991   3.788   4.369   2.040 -1.2898  0.1154  0.6490
   41MOL   H11212992   4.159   4.693   1.729 -0.9351  0.1078 -1.0094
   41MOL   H11312993   4.027   4.806   1.724  0.0081 -1.1132 -0.3283
   41MOL   C11412994   4.214   4.901   1.680 -0.8562 -0.5250 -0.0509
   41MOL   O11512995   4.349   4.891   1.732 -0.3270 -0.5664 -0.4469
   41MOL   C11612996   4.420   5.012   1.727 -0.3994 -0.3503  0.0928
   41MOL   C11712997   4.540   5.003   1.820  0.0547 -0.2689 -0.4294
   41MOL   C11812998   4.635   5.123   1.806 -0.2285  0.6725  0.2137
   41MOL   C11912999   4.232   4.865   1.534  0.3749  0.7461 -0.2001
   41MOL   H12013000   4.161   4.997   1.688 -0.1440 -0.1431  0.1334
   41MOL   H12113001   4.451   5.031   1.625  1.6114 -0.0024  0.7477
   41MOL   H12213002   4.366   5.099   1.766 -1.6820 -0.8137 -0.6242
   41MOL   H12313003   4.610   4.919   1.814 -0.8049 -0.9158 -1.5035
   41MOL   H12413004   4.505   5.002   1.923 -0.1514 -0.8400 -0.5037
   41MOL   H12513005   4.682   5.117   1.707  1.5268 -1.1517  1.1327
   41MOL   H12613006   4.710   5.108   1.883 -2.5112  0.0980  2.3729
   41MOL   H12713007   4.583   5.217   1.824  1.1676  1.3803  0.6461
   41MOL   H12813008   4.289   4.941   1.482  0.3362  0.3121 -0.8757
   41MOL   H12913009   4.290   4.773   1.537 -0.6905  0.0807  0.5080
   41MOL   C13013010   4.104   4.835   1.459  0.9047  0.1151  1.0400
   41MOL   O13113011   4.039   4.960   1.435 -0.1482  0.3957 -0.0517
   41MOL   C13213012   4.105   5.064   1.367 -0.0491 -0.8945  1.1268
   41MOL   C13313013   4.017   5.182   1.331 -0.4794  0.5161 -0.5039
   41MOL   C13413014   3.918   5.170   1.224 -0.2877  0.4575  0.2889
   41MOL   C13513015   4.121   4.753   1.324  0.0421 -0.5414 -0.3372
   41MOL   H13613016   4.041   4.767   1.516  0.7991  1.1590  2.1948
   41MOL   H13713017   4.191   5.097   1.425 -1.2745  1.5079  1.6471
   41MOL   H13813018   4.152   5.029   1.275 -3.0805  0.2165 -0.9345
   41MOL   H13913019   4.084   5.260   1.295  0.7425  0.9899  2.6404
   41MOL   H14013020   3.964   5.220   1.419  0.3528 -1.1724  0.7692
   41MOL   H14113021   3.959   5.140   1.128 -2.0731  0.3742 -0.4755
   41MOL   H14213022   3.868   5.267   1.216  0.3310  0.7744  0.2842
   41MOL   H14313023   3.833   5.103   1.239 -0.4455  0.9653  1.7821
   41MOL   H14413024   4.031   4.760   1.263 -0.2411  0.2836  0.1585
   41MOL   H14513025   4.213   4.794   1.281 -0.4090  1.8652  0.9258
   41MOL   C14613026   4.163   4.600   1.333  0.8652 -0.5172 -0.2617
   41MOL   O14713027   4.060   4.523   1.377 -0.1859 -0.3664  0.2415
   41MOL   C14813028   4.072   4.468   1.510  0.0384  0.7680  0.2432
   41MOL   C14913029   3.932   4.409   1.537  0.2522  0.0625  0.3733
   41MOL   C15013030   3.821   4.514   1.560 -1.3374 -0.1203 -0.1088
   41MOL   C15113031   4.188   4.542   1.193  0.2341 -0.1277 -0.0807
   41MOL   H15213032   4.251   4.597   1.396  1.6227 -0.3952 -1.2972
   41MOL   H15313033   4.147   4.389   1.512 -2.0575 -1.2762  0.3416
   41MOL   H15413034   4.110   4.533   1.589 -1.1863 -0.9734  2.3228
   41MOL   H15513035   3.940   4.352   1.630  1.8643  0.7581  0.6816
   41MOL   H15613036   3.904   4.336   1.461 -1.0754  0.9755 -0.0308
   41MOL   H15713037   3.864   4.582   1.634  1.7810 -0.8733 -1.1310
   41MOL   H15813038   3.728   4.460   1.574 -0.8315 -0.8042  0.6571
   41MOL   H15913039   3.817   4.577   1.471  0.7420 -1.2272 -1.0286
   41MOL   H16013040   4.193   4.434   1.206  0.4370 -0.1770 -0.5619
   41MOL   H16113041   4.105   4.562   1.125  0.5650 -1.3844 -0.8743
   41MOL   C16213042   4.318   4.577   1.126 -0.2638 -0.3317 -0.2855
   41MOL   O16313043   4.416   4.571   1.227  0.0877 -0.3304  1.0607
   41MOL   C16413044   4.501   4.679   1.234  0.6164 -0.2090  0.3891
   41MOL   C16513045   4.605   4.662   1.344 -0.1418 -0.1234 -0.5430
   41MOL   C16613046   4.718   4.764   1.338  0.0764 -0.7267  0.2524
   41MOL   C16713047   4.353   4.499   0.996 -0.8201 -0.5088  0.4603
   41MOL   H16813048   4.308   4.681   1.095  0.7791 -0.3853 -0.8438
   41MOL   H16913049   4.556   4.684   1.140  0.8753  1.1033  0.6022
   41MOL   H17013050   4.444   4.769   1.259  0.9297  0.2803 -0.6314
   41MOL   H17113051   4.647   4.563   1.330  0.5419  0.1162 -0.2026
   41MOL   H17213052   4.563   4.678   1.443 -0.1878  1.1846 -0.7625
   41MOL   H17313053   4.771   4.780   1.245 -0.2103 -0.6582  0.0987
   41MOL   H17413054   4.793   4.739   1.413  1.6091 -0.2724 -1.0969
   41MOL   H17513055   4.671   4.858   1.368  3.4260  1.4145 -0.9761
   41MOL   H17613056   4.364   4.393   1.017  0.4744 -0.3469  0.6819
   41MOL   H17713057   4.269   4.513   0.929 -0.6381  0.1541  0.3678
   41MOL   C17813058   4.470   4.557   0.908 -0.5682 -0.1922 -0.2835
   41MOL   O17913059   4.476   4.486   0.788  0.0218  0.5244 -0.2629
   41MOL   C18013060   4.569   4.386   0.775 -0.0397  0.9645  0.0463
   41MOL   C18113061   4.510   4.252   0.731  1.0326 -0.2731 -0.1980
   41MOL   C18213062   4.484   4.142   0.845  0.1752  0.1931  0.5835
   41MOL   C18313063   4.446   4.709   0.874 -0.0072  0.3743  0.0118
   41MOL   H18413064   4.562   4.541   0.965 -1.0933  0.9693  0.9010
   41MOL   H18513065   4.646   4.429   0.710  0.4887 -1.2582 -0.8194
   41MOL   H18613066   4.624   4.360   0.865 -0.1157  1.8484  0.3535
   41MOL   H18713067   4.569   4.208   0.650 -2.7564 -0.3428 -3.0915
   41MOL   H18813068   4.407   4.269   0.697  1.0592  1.0244  0.3267
   41MOL   H18913069   4.416   4.170   0.925  1.7312  0.3359  1.8779
   41MOL   H19013070   4.582   4.125   0.888 -0.3992 -1.5992  1.2299
   41MOL   H19113071   4.469   4.047   0.794 -1.4124  0.7509 -0.0155
   41MOL   H19213072   4.345   4.726   0.835 -0.3776 -2.5866 -0.3941
   41MOL   H19313073   4.453   4.774   0.961  1.6684 -2.2445  1.9151
   41MOL   C19413074   4.542   4.759   0.767 -0.4549  0.6565  0.0281
   41MOL   O19513075   4.502   4.891   0.738 -0.1140 -0.2342  0.2478
   41MOL   C19613076   4.420   4.904   0.626 -0.0178  0.2981 -0.0160
   41MOL   C19713077   4.407   5.050   0.595  0.4284  0.1281 -0.5060
   41MOL   C19813078   4.293   5.068   0.497 -0.4865 -0.0191  0.1967
   41MOL   C19913079   4.677   4.774   0.836  0.5037 -0.1825 -0.2461
   41MOL   H20013080   4.550   4.693   0.681 -0.6260  0.1442  0.4015
   41MOL   H20113081   4.466   4.852   0.542 -0.3185  0.8864 -0.5472
   41MOL   H20213082   4.322   4.867   0.656  1.0678 -0.9954  2.1200
   41MOL   H20313083   4.501   5.089   0.557  0.8868 -0.2609  0.2113
   41MOL   H20413084   4.375   5.098   0.688  2.1676 -3.3569  2.0050
   41MOL   H20513085   4.324   5.035   0.397 -2.4610 -1.5966  0.0862
   41MOL   H20613086   4.276   5.175   0.489 -0.7748 -0.1143 -0.5260
   41MOL   H20713087   4.200   5.032   0.540 -0.6581 -0.4924 -0.5518
   41MOL   H20813088   4.665   4.836   0.925 -0.2218  0.3773 -0.7273
   41MOL   H20913089   4.715   4.677   0.868 -1.3086 -0.7087  0.4254
   41MOL   C21013090   4.789   4.840   0.755  0.2527 -0.3894 -0.4558
   41MOL   O21113091   4.912   4.843   0.837 -0.0636 -0.4205 -0.4475
   41MOL   C21213092   4.935   4.965   0.903 -0.6735 -0.0440  0.1271
   41MOL   C21313093   5.074   4.950   0.965  1.0478  0.0043  0.0112
   41MOL   C21413094   5.070   4.848   1.080  0.1996 -0.0463  0.5208
   41MOL   C21513095   4.827   4.756   0.631  0.4049 -0.3311  0.7282
   41MOL   H21613096   4.756   4.939   0.725  1.0481 -0.5917 -2.0577
   41MOL   H21713097   4.919   5.052   0.839 -2.2459  0.1139  0.7167
   41MOL   H21813098   4.864   4.974   0.985 -0.4728 -3.9434  0.8451
   41MOL   H21913099   5.102   5.048   1.004 -0.5555 -0.2593  1.9268
   41MOL   H22013100   5.158   4.917   0.904  1.3372  2.5084 -1.0275
   41MOL   H22113101   4.991   4.887   1.145  1.2201  0.2878  1.5664
   41MOL   H22213102   5.162   4.853   1.138  0.1419 -1.1102  0.7115
   41MOL   H22313103   5.040   4.749   1.044 -2.6107  0.7726  0.4851
   41MOL   H22413104   4.857   4.655   0.661  1.3000 -0.1634  0.4187
   41MOL   H22513105   4.739   4.748   0.568  0.8854  0.3624 -0.0238
   41MOL   C22613106   4.947   4.809   0.550  1.2435  0.2277 -0.5059
   41MOL   O22713107   4.945   4.751   0.423 -0.0245 -0.1673 -0.1450
   41MOL   C22813108   5.034   4.635   0.413  0.3203  0.4544 -0.0744
   41MOL   C22913109   4.965   4.495   0.443 -0.3390 -0.2632 -0.1870
   41MOL   C23013110   4.851   4.469   0.347 -0.2658 -0.5955 -0.2931
   41MOL   C23113111   4.948   4.965   0.529  0.5407  0.0685 -0.6520
   41MOL   H23213112   5.036   4.792   0.611  0.7968 -2.1458 -0.4472
   41MOL   H23313113   5.058   4.638   0.307 -0.0128 -0.4074 -0.1801
   41MOL   H23413114   5.131   4.646   0.460  0.3647 -0.2459  0.0015
   41MOL   H23513115   4.921   4.491   0.542 -1.0377  0.4304 -0.4643
   41MOL   H23613116   5.043   4.419   0.443 -0.9024 -0.9023  3.1141
   41MOL   H23713117   4.781   4.396   0.388 -1.3008  0.3833 -0.2788
   41MOL   H23813118   4.891   4.419   0.259 -0.5814 -0.1885 -0.6701
   41MOL   H23913119   4.803   4.562   0.316 -1.0327 -0.8636  0.0590
   41MOL   H24013120   4.872   4.981   0.452  0.2715 -1.4353 -0.7107
   41MOL   H24113121   4.929   5.021   0.620  2.4351  1.5068 -1.1159
   41MOL   C24213122   5.082   5.024   0.482  0.5485  0.2924  0.0692
   41MOL   O24313123   5.049   5.140   0.408  0.1312  0.6291  0.2399
   41MOL   C24413124   5.053   5.132   0.266 -0.9700  1.1238  0.5805
   41MOL   C24513125   4.992   5.266   0.222 -0.6596 -0.2256 -0.2611
   41MOL   C24613126   5.081   5.387   0.250 -0.1543 -0.0764  0.0135
   41MOL   C24713127   5.176   5.052   0.598  0.4577 -0.8239  0.6807
   41MOL   H24813128   5.136   4.963   0.410 -1.8856 -0.0193 -1.5176
   41MOL   H24913129   5.156   5.124   0.231 -0.3182  0.7074  2.4822
   41MOL   H25013130   4.993   5.052   0.223 -0.0321  0.2293  0.8880
   41MOL   H25113131   4.895   5.274   0.271 -1.1033 -0.2307 -1.1202
   41MOL   H25213132   4.958   5.267   0.118 -0.4397  0.2907 -0.3333
   41MOL   H25313133   5.116   5.389   0.353  0.7923 -1.9834 -0.2566
   41MOL   H25413134   5.036   5.484   0.228 -0.1924  0.1821  1.2214
   41MOL   H25513135   5.171   5.378   0.190  0.6831 -0.4468  1.3182
   41MOL   H25613136   5.127   5.127   0.659 -1.1742 -0.9259 -0.4878
   41MOL   H25713137   5.166   4.965   0.664 -1.4248 -0.8938  0.3279
   41MOL   C25813138   5.324   5.088   0.572 -1.0163 -0.3461  0.5852
   41MOL   O25913139   5.389   4.980   0.499 -0.4994 -0.4720 -0.1650
   41MOL   C26013140   5.395   4.856   0.572 -0.2237 -0.2772 -0.9095
   41MOL   C26113141   5.510   4.769   0.517  0.1990 -0.4599  0.1532
   41MOL   C26213142   5.653   4.818   0.560  0.0495 -0.3777 -0.4997
   41MOL   C26313143   5.351   5.214   0.485 -0.3847 -0.0118  0.2866
   41MOL   H26413144   5.373   5.105   0.668 -0.3747  0.1061  0.1820
   41MOL   H26513145   5.422   4.880   0.675  0.2311 -2.0006 -0.6128
   41MOL   H26613146   5.293   4.817   0.572 -0.5922  0.6632  0.6004
   41MOL   H26713147   5.500   4.752   0.409 -1.4236 -1.8819  0.5104
   41MOL   H26813148   5.492   4.677   0.572  1.1207  1.2609  3.4758
   41MOL   H26913149   5.686   4.880   0.477 -0.5289  2.4916  1.3300
   41MOL   H27013150   5.727   4.738   0.567  1.4698  1.0293  1.2349
   41MOL   H27113151   5.664   4.872   0.654 -0.6706 -0.7069 -0.2248
   41MOL   H27213152   5.299   5.196   0.391 -1.0882 -1.9028  1.0177
   41MOL   H27313153   5.301   5.299   0.533  2.0403 -0.2411  3.3988
   41MOL   C27413154   5.501   5.249   0.469  0.4649  0.3597 -0.3776
   41MOL   O27513155   5.534   5.365   0.392  0.6369 -0.4542 -0.5066
   41MOL   C27613156   5.504   5.377   0.256 -0.0874  0.5207  0.2229
   41MOL   C27713157   5.570   5.515   0.218 -0.0493 -0.2912 -0.3917
   41MOL   C27813158   5.720   5.520   0.261 -0.1851 -0.1736 -0.1353
   41MOL   C27913159   5.588   5.252   0.599  0.0801  0.1250  0.4518
   41MOL   H28013160   5.539   5.166   0.410 -0.0571 -0.1920  0.0576
   41MOL   H28113161   5.554   5.296   0.202 -1.1281  0.7885 -1.1816
   41MOL   H28213162   5.398   5.381   0.230  0.2580  2.1300 -0.9746
   41MOL   H28313163   5.511   5.594   0.265  0.8290 -0.8376  1.6769
   41MOL   H28413164   5.554   5.531   0.111 -1.7955  0.5204 -0.0211
   41MOL   H28513165   5.771   5.428   0.230  0.5681  0.7590 -1.7552
   41MOL   H28613166   5.722   5.520   0.370  0.7351 -1.3279 -0.1370
   41MOL   H28713167   5.765   5.610   0.220 -0.9868 -0.1857 -1.0660
   41MOL   H28813168   5.554   5.335   0.661 -0.0173  0.9241 -0.6559
   41MOL   H28913169   5.573   5.174   0.673 -1.6988 -0.2733 -0.2934
   41MOL   C29013170   5.738   5.270   0.575 -0.7367  0.5616  0.4133
   41MOL   O29113171   5.795   5.303   0.698 -0.4269 -0.3212 -0.6759
   41MOL   C29213172   5.886   5.413   0.714  0.1042 -0.3791 -0.3776
   41MOL   C29313173   5.939   5.429   0.859 -0.2199  0.3212  0.4997
   41MOL   C29413174   6.068   5.510   0.846 -0.1017  0.1133  0.5016
   41MOL   C29513175   5.807   5.143   0.524 -0.2549  0.2006 -0.3668
   41MOL   H29613176   5.739   5.352   0.503 -2.1729  2.4502  2.4702
   41MOL   H29713177   5.970   5.390   0.648  0.6480 -0.6293  0.3910
   41MOL   H29813178   5.851   5.509   0.677 -0.7552  0.0369  1.4688
   41MOL   H29913179   5.966   5.336   0.909 -0.5219 -0.1219 -0.1669
   41MOL   H30013180   5.867   5.476   0.927 -0.6657 -1.1876  1.1092
   41MOL   H30113181   6.047   5.599   0.787 -1.8113  0.3744  1.4504
   41MOL   H30213182   6.150   5.456   0.798 -0.1802 -0.5900  1.1269
   41MOL   H30313183   6.115   5.543   0.939  3.7599  1.5351 -1.8685
   41MOL   H30413184   5.802   5.065   0.600  0.1635  0.5820  0.0563
   41MOL   H30513185   5.754   5.092   0.443  1.0014 -0.6551 -0.6562
   41MOL   C30613186   5.956   5.146   0.495  0.0025 -0.0171  0.4378
   41MOL   O30713187   5.975   5.009   0.452  0.2395 -0.2902 -0.3522
   41MOL   C30813188   6.113   4.973   0.427  0.1351 -1.5112  0.0072
   41MOL   C30913189   6.137   4.829   0.421 -0.4582  0.0800  0.4369
   41MOL   C31013190   6.097   4.749   0.551  0.2069  0.3190 -0.4179
   41MOL   C31113191   5.992   5.249   0.385  0.4478  0.6261  0.2503
   41MOL   H31213192   6.010   5.155   0.589 -0.2772 -0.4211  0.6377
   41MOL   H31313193   6.139   5.021   0.333 -0.3012 -0.3186  0.4943
   41MOL   H31413194   6.171   5.011   0.511 -2.1806  3.1946 -0.3717
   41MOL   H31513195   6.242   4.810   0.402 -0.5143  1.3402 -1.3654
   41MOL   H31613196   6.093   4.787   0.330  1.0572  2.2023 -1.3403
   41MOL   H31713197   6.170   4.758   0.631 -0.3232 -0.7989  0.2019
   41MOL   H31813198   6.099   4.642   0.533  1.5475 -0.1112  2.1395
   41MOL   H31913199   5.996   4.752   0.590  1.0684  1.1248  1.8185
   41MOL   H32013200   5.959   5.352   0.398 -1.6434  0.0124 -0.0394
   41MOL   H32113201   6.101   5.252   0.390  0.4529  0.1365  0.4411
   41MOL   H32213202   5.970   5.214   0.285 -0.5408  2.0727 -0.0639
   42MOL     C113203   5.911   7.211   5.968 -0.5946  0.3881  0.0411
   42MOL     O213204   6.027   7.131   5.975  0.1171 -0.1919 -0.0432
   42MOL     C313205   6.139   7.217   5.953  0.4876 -0.2277 -0.2143
   42MOL     C413206   6.249   7.116   5.925  0.5458  0.9351 -0.3344
   42MOL     C513207   6.224   7.014   5.816  0.1835 -0.7273  0.0497
   42MOL     C613208   5.781   7.128   5.982  0.3306  0.0524 -0.3207
   42MOL     H713209   5.908   7.256   5.869 -1.0715 -1.3600 -0.7542
   42MOL     H813210   6.129   7.282   5.866 -0.9282 -0.5945 -0.3410
   42MOL     H913211   6.153   7.279   6.041  1.3422 -1.8782  0.8342
   42MOL    H1013212   6.265   7.056   6.014 -0.8597 -0.3369 -0.9227
   42MOL    H1113213   6.342   7.166   5.896  0.8733  2.9047  3.8518
   42MOL    H1213214   6.299   6.936   5.801  0.2217 -1.0403  1.7961
   42MOL    H1313215   6.231   7.057   5.716  0.3165  0.5424  0.5932
   42MOL    H1413216   6.131   6.957   5.815 -0.2710  0.0022 -1.4097
   42MOL    H1513217   5.788   7.041   5.917 -1.1528  0.5863 -1.2049
   42MOL    H1613218   5.783   7.085   6.082  3.2302 -1.2424 -0.8762
   42MOL    H1713219   5.912   7.290   6.043  0.9229 -0.2379  0.6983
   42MOL    C1813220   5.653   7.201   5.953  0.2251 -0.5553 -0.0671
   42MOL    O1913221   5.554   7.115   5.893  0.2170  0.0868  0.2970
   42MOL    C2013222   5.578   7.063   5.760 -0.8143  0.1214  0.5304
   42MOL    C2113223   5.445   7.019   5.700  0.3405  0.5104  0.1630
   42MOL    C2213224   5.355   7.140   5.670  0.3695 -0.1198  0.3991
   42MOL    C2313225   5.594   7.255   6.076  0.1450  0.6639 -0.6830
   42MOL    H2413226   5.671   7.285   5.886 -1.5999 -1.2099 -1.4168
   42MOL    H2513227   5.626   7.142   5.703 -2.1047 -1.3249 -2.6740
   42MOL    H2613228   5.651   6.983   5.769 -0.0163  0.7128 -0.5919
   42MOL    H2713229   5.385   6.957   5.767 -1.1088  0.5125 -1.0837
   42MOL    H2813230   5.452   6.962   5.607  1.9511  1.0020 -0.0354
   42MOL    H2913231   5.250   7.118   5.653 -0.3234  0.5644  3.4663
   42MOL    H3013232   5.398   7.201   5.591  0.3491 -0.7802 -0.1272
   42MOL    H3113233   5.362   7.205   5.757  1.0699  0.6454 -0.2178
   42MOL    H3213234   5.554   7.171   6.133 -0.0793  0.6861 -0.8071
   42MOL    H3313235   5.673   7.284   6.145  1.8734  0.3429 -2.4737
   42MOL    C3413236   5.489   7.366   6.050  0.4229 -0.6249  0.7774
   42MOL    O3513237   5.412   7.368   6.170 -1.9722 -0.4603  0.2367
   42MOL    C3613238   5.273   7.323   6.169  0.5005  0.0423 -0.3040
   42MOL    C3713239   5.211   7.362   6.304  0.2898 -0.5599  0.5069
   42MOL    C3813240   5.186   7.509   6.324 -0.5631  0.5764 -0.3276
   42MOL    C3913241   5.555   7.505   6.032 -0.0007  1.2640 -0.4593
   42MOL    H4013242   5.425   7.340   5.965  1.0092  1.5473 -0.3581
   42MOL    H4113243   5.206   7.369   6.096  1.0074  3.1554  1.1049
   42MOL    H4213244   5.260   7.219   6.138  0.7402 -0.0574 -0.0682
   42MOL    H4313245   5.276   7.320   6.380 -1.0209  0.9833  2.5149
   42MOL    H4413246   5.119   7.304   6.318 -0.3217  0.1622 -0.4854
   42MOL    H4513247   5.266   7.578   6.352 -0.4966 -0.6246  2.5825
   42MOL    H4613248   5.106   7.520   6.397  0.0940 -3.1259  1.0754
   42MOL    H4713249   5.135   7.552   6.238 -0.2537  0.8755 -0.3640
   42MOL    H4813250   5.613   7.513   6.124  0.7612 -1.1319 -0.6744
   42MOL    H4913251   5.616   7.501   5.942  2.0829 -1.1972  0.9765
   42MOL    C5013252   5.456   7.618   6.019 -0.1321 -0.8892 -0.4726
   42MOL    O5113253   5.531   7.739   6.007 -0.0375 -0.3698 -0.2991
   42MOL    C5213254   5.549   7.797   6.136 -0.9556 -0.1963 -0.0950
   42MOL    C5313255   5.696   7.803   6.177 -0.0211 -0.3063  0.6753
   42MOL    C5413256   5.727   0.031   6.306  0.0058 -0.1002 -0.1415
   42MOL    C5513257   5.399   7.615   5.872  0.8139  0.5308 -0.0601
   42MOL    H5613258   5.376   7.610   6.092  0.7602 -0.1867  0.5900
   42MOL    H5713259   5.500   0.066   6.138 -0.2594  0.1617 -0.3465
   42MOL    H5813260   5.494   7.748   6.217  1.0528 -1.4358  0.5650
   42MOL    H5913261   5.751   0.035   6.104  2.1732 -2.3641  0.5883
   42MOL    H6013262   5.736   7.702   6.184  1.3850  0.0195 -1.9151
   42MOL    H6113263   5.693   0.134   6.307 -0.6352 -0.3074 -0.7158
   42MOL    H6213264   5.835   0.019   6.319  0.0379  0.2517 -0.0964
   42MOL    H6313265   5.681   7.806   6.390  0.9095 -2.1614 -0.8936
   42MOL    H6413266   5.465   7.668   5.803  0.2776  0.7687 -0.3928
   42MOL    H6513267   5.396   7.512   5.837 -0.9303  0.6480 -0.3158
   42MOL    C6613268   5.258   7.671   5.855  0.6530  0.3029  0.2911
   42MOL    O6713269   5.241   7.712   5.718 -0.5374  0.0727 -0.0843
   42MOL    C6813270   5.291   0.013   5.695 -0.1444 -0.0222  0.4827
   42MOL    C6913271   5.299   0.017   5.538  0.2857  0.3719 -0.1913
   42MOL    C7013272   5.393   0.129   5.486 -0.1143 -0.3762  0.0292
   42MOL    C7113273   5.157   7.556   5.879  0.0734  0.9117 -0.6514
   42MOL    H7213274   5.232   7.753   5.923  0.3686 -0.7953  1.5451
   42MOL    H7313275   5.235   0.103   5.722 -0.4128  0.8368 -2.6567
   42MOL    H7413276   5.393   0.021   5.732  0.6237 -0.3397 -1.4740
   42MOL    H7513277   5.199   0.024   5.494  1.1344 -0.6593 -2.3294
   42MOL    H7613278   5.340   7.747   5.512 -0.5349 -0.0311  0.0124
   42MOL    H7713279   5.495   0.118   5.524 -0.4552 -0.6590  0.8838
   42MOL    H7813280   5.355   0.230   5.505 -0.4026 -0.7770  1.6828
   42MOL    H7913281   5.408   0.125   5.378  3.2786  0.1680  0.4301
   42MOL    H8013282   5.173   7.476   5.806 -2.3166 -0.5509  0.3507
   42MOL    H8113283   5.176   7.512   5.978  0.2859  3.5155  0.4903
   42MOL    C8213284   5.013   7.594   5.875 -0.3611 -0.4929 -0.3414
   42MOL    O8313285   4.931   7.484   5.896  0.2433  0.3616 -0.2886
   42MOL    C8413286   4.904   7.396   5.790  0.0367  0.2816 -0.1586
   42MOL    C8513287   4.764   7.336   5.807  0.1347  0.4205 -0.1691
   42MOL    C8613288   4.709   7.238   5.708 -0.4713  0.1263  0.2985
   42MOL    C8713289   4.974   7.695   5.989 -0.1142  0.2932  0.2771
   42MOL    H8813290   4.983   7.629   5.777 -2.6845  1.4082  0.9997
   42MOL    H8913291   4.898   7.446   5.693  0.4750 -1.5808 -1.1738
   42MOL    H9013292   4.980   7.318   5.785  0.3117  0.6714 -3.9204
   42MOL    H9113293   4.695   7.420   5.820 -1.2465 -1.0969  2.6908
   42MOL    H9213294   4.763   7.289   5.905 -0.6949  2.6108  0.9074
   42MOL    H9313295   4.689   7.290   5.614 -2.6107  4.2434  2.8936
   42MOL    H9413296   4.617   7.188   5.738 -0.1800 -2.2706 -2.5041
   42MOL    H9513297   4.772   7.150   5.690 -2.2884 -1.6095  2.1200
   42MOL    H9613298   4.960   7.631   6.076  0.8775  1.4372  1.2957
   42MOL    H9713299   5.042   7.770   6.029  0.7919 -0.1945 -0.3274
   42MOL    C9813300   4.844   7.778   5.956 -0.3095 -0.4426  0.2572
   42MOL    O9913301   4.795   0.011   6.076  0.2303  0.1651 -0.3908
   42MOL   C10013302   4.729   7.746   6.176  0.2409 -0.0890 -1.0391
   42MOL   C10113303   4.667   7.824   6.300 -0.5615 -0.4149  0.0863
   42MOL   C10213304   4.584   7.732   6.385  0.0533 -0.2828  0.1894
   42MOL   C10313305   4.872   0.073   5.862 -0.5167 -0.3096  0.2364
   42MOL   H10413306   4.771   7.711   5.912  1.9059 -2.9546  0.2898
   42MOL   H10513307   4.651   7.701   6.113 -0.4459  0.8045 -0.8293
   42MOL   H10613308   4.789   7.656   6.191 -2.2425 -1.4465  1.0811
   42MOL   H10713309   4.594   0.070   6.265 -0.0069 -0.8300 -1.9695
   42MOL   H10813310   4.737   0.052   6.362  0.9116 -1.7175 -0.3728
   42MOL   H10913311   4.535   7.788   6.465  0.1049  1.1107 -0.7371
   42MOL   H11013312   4.643   7.647   6.421 -0.8389 -1.7825 -1.7923
   42MOL   H11113313   4.501   7.699   6.322  0.9949 -0.0355 -1.1886
   42MOL   H11213314   4.909   0.163   5.910 -2.2324  0.4635  0.1274
   42MOL   H11313315   4.949   0.054   5.787 -0.8578 -2.2843  0.3552
   42MOL   C11413316   4.745   0.122   5.790 -0.2778  0.0372  0.8542
   42MOL   O11513317   4.695   0.024   5.703 -0.3087  0.0524  0.8844
   42MOL   C11613318   4.761   0.006   5.576  0.0467 -0.2760 -0.3037
   42MOL   C11713319   4.725   7.706   5.509  0.0636  0.0154 -0.6100
   42MOL   C11813320   4.584   7.698   5.456  0.0814  0.2315  0.2742
   42MOL   C11913321   4.628   0.151   5.888 -0.5445  0.9393  0.0990
   42MOL   H12013322   4.771   0.219   5.748  1.6332  0.4376  2.8977
   42MOL   H12113323   4.763   0.097   5.516  1.4275 -0.4225 -0.4983
   42MOL   H12213324   4.866   7.816   5.597  0.0809 -0.6795 -0.8027
   42MOL   H12313325   4.718   7.632   5.589  0.1797  0.1023 -0.5196
   42MOL   H12413326   4.802   7.677   5.437 -0.9324  0.7096 -1.9836
   42MOL   H12513327   4.578   7.766   5.372  0.9493 -1.6360 -1.3350
   42MOL   H12613328   4.517   7.736   5.533  2.0126  1.3466  1.4629
   42MOL   H12713329   4.567   7.600   5.413  3.5727 -0.0656 -0.6303
   42MOL   H12813330   4.585   0.064   5.938  0.2718  1.0784  1.0585
   42MOL   H12913331   4.669   0.210   5.969 -0.2139  0.1686  0.4972
   42MOL   C13013332   4.505   0.224   5.841  0.0743  0.4955 -0.3241
   42MOL   O13113333   4.416   0.227   5.956  0.2817 -0.0639 -0.4005
   42MOL   C13213334   4.332   0.117   5.982 -0.1908 -0.5368 -0.4206
   42MOL   C13313335   4.202   0.157   6.058  0.5534 -0.4965 -0.3540
   42MOL   C13413336   4.228   0.214   6.202 -0.1925 -0.2486 -0.2864
   42MOL   C13513337   4.522   0.376   5.810 -0.5697  0.7824 -0.4032
   42MOL   H13613338   4.454   0.176   5.757 -1.2808  0.0398  0.7385
   42MOL   H13713339   4.303   0.062   5.893 -1.3735 -1.4678  0.5190
   42MOL   H13813340   4.394   0.039   6.029  1.7031  1.1283 -0.0746
   42MOL   H13913341   4.139   0.069   6.046  0.3990 -0.3629 -0.5119
   42MOL   H14013342   4.157   0.237   6.000  0.9093  0.4918  0.7196
   42MOL   H14113343   4.130   0.237   6.244 -0.5527  0.1867 -1.3518
   42MOL   H14213344   4.292   0.302   6.189  0.0970 -0.5247 -0.7213
   42MOL   H14313345   4.280   0.148   6.271 -0.4747 -0.3146 -0.1362
   42MOL   H14413346   4.444   0.436   5.858  0.9703  0.1073  3.1394
   42MOL   H14513347   4.611   0.413   5.862 -0.0607 -0.1763 -0.5923
   42MOL   C14613348   4.552   0.397   5.656 -0.5317 -0.2183  0.4631
   42MOL   O14713349   4.450   0.343   5.575  0.5505  0.7689 -0.2249
   42MOL   C14813350   4.488   0.291   5.450  0.2994 -0.1029  0.0895
   42MOL   C14913351   4.370   0.219   5.388 -0.0029  0.3005  0.1693
   42MOL   C15013352   4.277   0.319   5.319 -0.2270  0.2044 -0.4650
   42MOL   C15113353   4.570   0.544   5.622  0.5252  0.1132  0.4005
   42MOL   H15213354   4.651   0.356   5.634 -0.5359  0.1237 -0.2148
   42MOL   H15313355   4.525   0.367   5.381  0.2647  0.7421  0.9931
   42MOL   H15413356   4.557   0.206   5.457  1.0924  0.4035 -1.3406
   42MOL   H15513357   4.321   0.157   5.463  1.0366 -0.0947  0.5267
   42MOL   H15613358   4.404   0.155   5.308 -1.3547  0.7343 -0.7758
   42MOL   H15713359   4.180   0.279   5.288  0.5309  0.5824 -3.4531
   42MOL   H15813360   4.339   0.372   5.247  1.0648  1.3831  1.4958
   42MOL   H15913361   4.249   0.402   5.384 -0.0721 -0.2978  0.2492
   42MOL   H16013362   4.549   0.551   5.515  0.3154 -1.5141  0.3248
   42MOL   H16113363   4.487   0.602   5.663 -2.1200 -2.9036 -0.5263
   42MOL   C16213364   4.705   0.609   5.666 -0.1730 -0.0025  0.3173
   42MOL   O16313365   4.804   0.550   5.581  0.6758  0.1520  0.4145
   42MOL   C16413366   4.932   0.553   5.632  0.9887 -0.3845  0.0394
   42MOL   C16513367   5.044   0.543   5.527  0.1235 -0.1751  0.3600
   42MOL   C16613368   5.182   0.502   5.586 -0.2874 -0.0828  0.9989
   42MOL   C16713369   4.709   0.763   5.643 -0.6454 -0.1110 -0.8402
   42MOL   H16813370   4.715   0.582   5.771 -1.1334  1.3742  0.7750
   42MOL   H16913371   4.954   0.635   5.701  0.0780 -0.8293  0.8810
   42MOL   H17013372   4.938   0.463   5.693  2.5617 -0.6977 -0.5622
   42MOL   H17113373   5.061   0.639   5.479  1.8069  0.2468  1.7601
   42MOL   H17213374   5.014   0.482   5.442  0.1975 -0.4548  0.5349
   42MOL   H17313375   5.173   0.396   5.612  0.6216  0.1367  2.2406
   42MOL   H17413376   5.197   0.578   5.662  1.4835  0.2327  0.3604
   42MOL   H17513377   5.261   0.517   5.513  0.1389 -0.7964  1.3081
   42MOL   H17613378   4.808   0.807   5.655 -1.6748  2.1630 -0.1526
   42MOL   H17713379   4.691   0.777   5.537  1.3029 -1.2960 -1.3428
   42MOL   C17813380   4.622   0.836   5.746  0.9009  0.0074 -0.9748
   42MOL   O17913381   4.654   0.780   5.873  0.0727 -0.4398 -0.2191
   42MOL   C18013382   4.551   0.792   5.970  0.0016  0.3903  0.5844
   42MOL   C18113383   4.606   0.846   6.098 -0.3050 -0.4718 -0.4825
   42MOL   C18213384   4.633   0.994   6.090 -0.7472  0.3932  1.0290
   42MOL   C18313385   4.627   0.991   5.743  0.9791 -0.9213 -0.4237
   42MOL   H18413386   4.518   0.811   5.725  0.8087  0.3679 -0.9496
   42MOL   H18513387   4.469   0.859   5.944 -2.0900 -2.4789 -0.3590
   42MOL   H18613388   4.500   0.697   5.985  0.4311  0.0815  0.0669
   42MOL   H18713389   4.701   0.794   6.109 -1.4072 -2.7091 -1.3166
   42MOL   H18813390   4.551   0.805   6.182 -0.2245 -0.9944 -0.6848
   42MOL   H18913391   4.645   1.041   6.187  2.5930  1.3520  0.1971
   42MOL   H19013392   4.546   1.049   6.053 -0.7760  1.2238  2.3372
   42MOL   H19113393   4.715   1.024   6.025 -1.8093  0.2901 -0.3938
   42MOL   H19213394   4.589   1.038   5.834 -0.3443  2.0290 -2.4281
   42MOL   H19313395   4.731   1.026   5.741  2.0326 -3.8720  0.4212
   42MOL   C19413396   4.555   1.059   5.623 -0.7035  0.2042 -0.5039
   42MOL   O19513397   4.433   0.994   5.614 -0.3382 -0.5495 -0.4186
   42MOL   C19613398   4.371   0.997   5.484 -0.3588 -0.0030  0.2293
   42MOL   C19713399   4.365   0.848   5.439 -0.0672  0.4016 -0.0672
   42MOL   C19813400   4.280   0.753   5.534 -0.4772 -0.1390 -0.1574
   42MOL   C19913401   4.541   1.220   5.631  0.1407  0.4303 -0.2985
   42MOL   H20013402   4.620   1.040   5.538 -0.1317 -0.6972  0.1193
   42MOL   H20113403   4.272   1.042   5.490  0.9418  2.6841  2.4166
   42MOL   H20213404   4.435   1.050   5.414 -0.9702 -2.2218 -2.0913
   42MOL   H20313405   4.468   0.817   5.426 -0.6743 -1.0655 -1.5765
   42MOL   H20413406   4.334   0.839   5.335  0.6664  0.9520 -0.3343
   42MOL   H20513407   4.322   0.762   5.635  0.0029 -0.4235 -0.3326
   42MOL   H20613408   4.288   0.649   5.503 -0.0119 -0.2709  0.3958
   42MOL   H20713409   4.174   0.778   5.537 -0.6502 -0.9569  0.7799
   42MOL   H20813410   4.497   1.259   5.539 -0.9724  3.0367  1.2726
   42MOL   H20913411   4.467   1.245   5.707 -0.8576  1.8347 -1.6845
   42MOL   C21013412   4.676   1.300   5.637  0.2503 -0.1442 -0.9791
   42MOL   O21113413   4.741   1.246   5.529 -0.7466  0.2154  0.1536
   42MOL   C21213414   4.876   1.287   5.521 -0.2217 -0.4108 -0.4305
   42MOL   C21313415   4.946   1.182   5.427 -0.0221 -0.0057  0.4240
   42MOL   C21413416   4.943   1.037   5.479  0.3226 -0.0080 -0.1702
   42MOL   C21513417   4.639   1.453   5.627  0.3581  1.0294  0.4065
   42MOL   H21613418   4.732   1.273   5.726 -0.7849 -1.5160 -0.7259
   42MOL   H21713419   4.887   1.390   5.488 -0.8517  0.0707  0.8465
   42MOL   H21813420   4.927   1.275   5.617 -0.2707 -0.3950 -0.4028
   42MOL   H21913421   5.053   1.202   5.434 -0.0491  0.3677 -0.1391
   42MOL   H22013422   4.904   1.180   5.326 -0.5714  5.0407  0.3920
   42MOL   H22113423   5.012   0.979   5.418 -1.1426  0.1711 -2.0836
   42MOL   H22213424   4.844   0.993   5.463 -0.1375  0.8643  0.2166
   42MOL   H22313425   4.969   1.037   5.584 -3.1803  0.5233  0.7579
   42MOL   H22413426   4.681   1.492   5.534 -0.1063 -2.4085 -1.3231
   42MOL   H22513427   4.533   1.471   5.609  0.3882  0.1172 -0.7186
   42MOL   C22613428   4.707   1.537   5.740 -0.3665 -0.7503 -0.5449
   42MOL   O22713429   4.708   1.659   5.680 -0.5742 -0.1968 -0.2736
   42MOL   C22813430   4.837   1.698   5.637 -0.4488  0.1150 -0.2166
   42MOL   C22913431   4.835   1.834   5.563 -0.1467 -0.6811 -0.5833
   42MOL   C23013432   4.789   1.824   5.415  0.0245  0.2428 -0.3982
   42MOL   C23113433   4.623   1.541   5.871  0.3699  0.4107  0.2592
   42MOL   H23213434   4.807   1.502   5.767  0.8712  3.2012  0.2613
   42MOL   H23313435   4.892   1.721   5.728  2.6479 -0.5748 -1.8384
   42MOL   H23413436   4.893   1.623   5.581 -2.3937 -1.9139  0.4930
   42MOL   H23513437   4.941   1.861   5.573  0.2668 -2.0738 -1.1181
   42MOL   H23613438   4.773   1.898   5.625  0.4199 -0.3114 -0.3924
   42MOL   H23713439   4.782   1.918   5.361  0.7185  1.5679  1.7578
   42MOL   H23813440   4.689   1.783   5.429  0.9021 -1.8537 -0.0627
   42MOL   H23913441   4.846   1.750   5.359 -0.6792 -1.3248  0.9258
   42MOL   H24013442   4.657   1.639   5.905 -0.9237  1.4234 -1.2805
   42MOL   H24113443   4.515   1.548   5.865  0.3310  0.0136  0.5199
   42MOL   C24213444   4.654   1.436   5.979  0.2667 -0.0590  0.1377
   42MOL   O24313445   4.777   1.463   6.030  0.2510 -0.0635 -0.5078
   42MOL   C24413446   4.856   1.351   6.068  0.1978 -0.1782 -0.4837
   42MOL   C24513447   4.992   1.408   6.117 -0.6600 -0.1461  0.4307
   42MOL   C24613448   4.964   1.498   6.236  0.2124  0.4450 -0.1618
   42MOL   C24713449   4.543   1.435   6.094 -0.5450  0.5550  0.5011
   42MOL   H24813450   4.648   1.337   5.933  0.9357 -0.1093  0.1539
   42MOL   H24913451   4.811   1.289   6.146 -3.5127 -0.8117 -2.9732
   42MOL   H25013452   4.867   1.293   5.977 -0.8172  0.1561 -0.8281
   42MOL   H25113453   5.056   1.458   6.046 -0.8732  0.4464  0.6555
   42MOL   H25213454   5.039   1.317   6.154 -3.0616 -1.8176 -0.4386
   42MOL   H25313455   4.929   1.599   6.213  0.9338  0.1369 -2.7122
   42MOL   H25413456   5.058   1.526   6.284 -1.1794  2.6332  1.4103
   42MOL   H25513457   4.898   1.455   6.312  0.8799  0.5855  0.5051
   42MOL   H25613458   4.445   1.408   6.055 -0.4897  1.5965 -0.4086
   42MOL   H25713459   4.580   1.366   6.169  0.2401 -0.1624 -0.5372
   42MOL   C25813460   4.515   1.571   6.154 -0.0683 -0.3450  0.5432
   42MOL   O25913461   4.403   1.561   6.248 -0.3395  0.2577  0.6416
   42MOL   C26013462   4.272   1.608   6.198  0.1492  0.2590 -0.0719
   42MOL   C26113463   4.184   1.504   6.124  0.5752 -0.0463 -0.0182
   42MOL   C26213464   4.147   1.391   6.217  0.3309 -0.0207 -0.1321
   42MOL   C26313465   4.630   1.635   6.229  0.0648  0.2859 -0.1334
   42MOL   H26413466   4.485   1.642   6.077 -0.5854  1.1939  2.1433
   42MOL   H26513467   4.223   1.632   6.293 -1.1132 -2.5940  0.0400
   42MOL   H26613468   4.271   1.699   6.138 -0.3479  0.7205  0.6288
   42MOL   H26713469   4.224   1.476   6.027  2.6360 -3.3507  1.7086
   42MOL   H26813470   4.085   1.548   6.107  0.5236  0.2698  1.0524
   42MOL   H26913471   4.109   1.305   6.162  1.3682 -0.4504 -0.1964
   42MOL   H27013472   4.071   1.426   6.287  0.2155  1.3778 -0.9367
   42MOL   H27113473   4.227   1.351   6.278 -1.6843 -1.4558  1.6275
   42MOL   H27213474   4.675   1.554   6.286 -0.3301 -0.6621 -1.1687
   42MOL   H27313475   4.704   1.677   6.161  0.0850  1.1152  0.3948
   42MOL   C27413476   4.595   1.740   6.340 -0.1892 -0.2709 -0.7081
   42MOL   O27513477   4.711   1.775   6.413  0.4091  0.1714 -0.0896
   42MOL   C27613478   4.757   1.690   6.511 -0.0715  0.3848 -0.3932
   42MOL   C27713479   4.871   1.759   6.574 -0.6666  0.4790 -0.3052
   42MOL   C27813480   4.836   1.908   6.608  0.4498 -0.1558  0.3057
   42MOL   C27913481   4.536   1.873   6.287 -0.3022 -0.7525 -0.6450
   42MOL   H28013482   4.518   1.700   6.406 -1.7506  0.9422 -1.7341
   42MOL   H28113483   4.680   1.667   6.585  0.2960 -2.6016 -0.8742
   42MOL   H28213484   4.790   1.593   6.473 -1.3241 -1.0405  1.9948
   42MOL   H28313485   4.956   1.754   6.506  0.6478  0.1812  1.3153
   42MOL   H28413486   4.912   1.711   6.663 -0.0044 -0.6422 -1.1847
   42MOL   H28513487   4.916   1.939   6.675 -0.9996  0.0264  2.0094
   42MOL   H28613488   4.742   1.926   6.661  0.1848 -0.3155 -0.1085
   42MOL   H28713489   4.834   1.957   6.511 -1.9591 -0.2714  0.2608
   42MOL   H28813490   4.610   1.912   6.217  2.5878 -0.7585  2.2413
   42MOL   H28913491   4.452   1.863   6.219 -1.7404  1.4751  0.7601
   42MOL   C29013492   4.486   1.965   6.406  0.1011 -0.1109  0.0814
   42MOL   O29113493   4.479   2.102   6.356  0.3717  0.3881 -0.0650
   42MOL   C29213494   4.596   2.173   6.329 -0.6157 -0.6002 -0.2187
   42MOL   C29313495   4.561   2.316   6.370 -0.5578 -0.4256 -0.0933
   42MOL   C29413496   4.676   2.418   6.368 -0.3796 -0.2412 -0.2259
   42MOL   C29513497   4.337   1.929   6.436  0.3616  0.3650 -0.2676
   42MOL   H29613498   4.548   1.961   6.495  2.6930  0.1376 -1.6552
   42MOL   H29713499   4.680   2.148   6.393 -0.8161  2.3791  1.2714
   42MOL   H29813500   4.624   2.158   6.225 -0.4826  2.8288 -0.7403
   42MOL   H29913501   4.525   2.293   6.470  3.1752 -1.2220  1.1336
   42MOL   H30013502   4.487   2.363   6.305  0.4141  0.7332 -0.3758
   42MOL   H30113503   4.655   2.521   6.397  1.1233 -0.3124  1.2141
   42MOL   H30213504   4.725   2.431   6.271 -0.4684  1.4553 -0.0691
   42MOL   H30313505   4.753   2.399   6.443 -0.4747 -1.3516 -0.4027
   42MOL   H30413506   4.273   1.948   6.350 -2.0759 -2.6471  0.7661
   42MOL   H30513507   4.325   1.821   6.444 -2.8239  0.5572 -1.9115
   42MOL   C30613508   4.275   1.999   6.559  0.6679 -0.2254  0.2821
   42MOL   O30713509   4.134   2.020   6.553 -0.1786 -0.1472 -0.7050
   42MOL   C30813510   4.090   2.139   6.488 -0.6503  0.2380  0.2444
   42MOL   C30913511   4.033   2.238   6.593 -0.7317 -0.3821  0.0091
   42MOL   C31013512   3.914   2.193   6.685  0.6533 -0.2198  0.6535
   42MOL   C31113513   4.301   1.924   6.691  0.2990  0.9029  0.5652
   42MOL   H31213514   4.326   2.095   6.562 -0.8149  0.7032 -2.2908
   42MOL   H31313515   4.168   2.176   6.422  1.0078 -0.3881  1.8280
   42MOL   H31413516   3.999   2.120   6.431 -0.7908  0.9910  0.2214
   42MOL   H31513517   4.010   2.333   6.544 -0.6626  0.3950  1.4478
   42MOL   H31613518   4.116   2.262   6.660  1.3099 -0.6125 -2.3565
   42MOL   H31713519   3.882   2.273   6.751 -0.8402  0.8425 -1.3120
   42MOL   H31813520   3.949   2.110   6.747 -1.0594  0.4891  2.6643
   42MOL   H31913521   3.828   2.158   6.627 -0.6239 -0.0443  2.3843
   42MOL   H32013522   4.269   1.821   6.674 -1.9137  1.7858 -0.7613
   42MOL   H32113523   4.410   1.922   6.693  0.2722 -1.2688  2.2675
   42MOL   H32213524   4.269   1.979   6.779  0.5910  2.9478 -0.5849
   43MOL     C113525   5.228   1.551   0.067 -0.4859  0.2672 -0.0856
   43MOL     O213526   5.287   1.650   7.810 -0.0708  0.2840 -0.8018
   43MOL     C313527   5.415   1.607   7.760  0.2328  0.6908 -0.1504
   43MOL     C413528   5.393   1.528   7.632  0.8152 -0.5591 -0.3722
   43MOL     C513529   5.317   1.610   7.519 -0.9353  0.0722 -0.0315
   43MOL     C613530   5.082   1.593   0.112 -0.0904  0.0707  0.4551
   43MOL     H713531   5.292   1.526   0.151  0.0814 -0.0173 -0.5999
   43MOL     H813532   5.484   1.688   7.740 -0.7811  1.9351  1.2485
   43MOL     H913533   5.468   1.537   7.824  0.4062  1.6990  0.8323
   43MOL    H1013534   5.355   1.427   7.647 -0.9682  0.0976 -0.2918
   43MOL    H1113535   5.489   1.506   7.586 -1.0179 -3.8752 -2.7626
   43MOL    H1213536   5.290   1.563   7.425 -0.8478 -0.2230  0.0893
   43MOL    H1313537   5.393   1.683   7.494 -0.7326  0.2460  1.0482
   43MOL    H1413538   5.224   1.646   7.565 -0.7569  2.8464 -1.7489
   43MOL    H1513539   5.095   1.681   0.174  0.5370 -1.2995  2.3076
   43MOL    H1613540   5.027   1.618   0.021  0.0783  1.3008  0.6904
   43MOL    H1713541   5.209   1.469   7.825 -0.6848  0.4850 -0.2887
   43MOL    C1813542   5.005   1.483   0.198  0.0425  0.4709 -0.0804
   43MOL    O1913543   5.075   1.467   0.325  0.3382  0.4688  0.0229
   43MOL    C2013544   5.085   1.330   0.360 -1.0776 -0.2660 -0.2609
   43MOL    C2113545   5.160   1.319   0.499  0.0230 -0.8789  0.3962
   43MOL    C2213546   5.313   1.326   0.497 -0.1123  0.1182 -0.3097
   43MOL    C2313547   4.859   1.511   0.240  0.6667 -0.0070 -0.1482
   43MOL    H2413548   5.017   1.386   0.150 -0.6179  1.4584 -2.2773
   43MOL    H2513549   4.985   1.287   0.361 -0.7316 -1.0854 -0.4868
   43MOL    H2613550   5.140   1.273   0.286 -0.9617 -0.3708 -0.0941
   43MOL    H2713551   5.142   1.225   0.552  2.2667  0.1518  3.0892
   43MOL    H2813552   5.111   1.395   0.559 -0.8896 -0.2497 -1.1096
   43MOL    H2913553   5.337   1.416   0.440  2.2502 -0.3502 -0.1285
   43MOL    H3013554   5.361   1.238   0.454  1.1593  0.3982  0.5153
   43MOL    H3113555   5.346   1.337   0.600  0.8192 -4.1862 -0.0505
   43MOL    H3213556   4.828   1.432   0.308 -0.8727  0.4142 -0.3326
   43MOL    H3313557   4.846   1.603   0.297 -2.2087 -0.2202 -0.3543
   43MOL    C3413558   4.760   1.498   0.134  0.4898  1.0075  0.0812
   43MOL    O3513559   4.771   1.373   0.074  0.1768 -0.3447  0.3871
   43MOL    C3613560   4.799   1.386   7.762  0.2692 -0.3775  0.6115
   43MOL    C3713561   4.826   1.245   7.706 -0.2558  0.9379  0.6530
   43MOL    C3813562   4.926   1.166   7.784 -1.0765  0.1697 -0.1684
   43MOL    C3913563   4.607   1.511   0.176  0.2553 -0.5232  0.2946
   43MOL    H4013564   4.774   1.576   0.059  0.4799  0.3936 -0.5723
   43MOL    H4113565   4.717   1.433   7.708  0.0415 -1.2112  0.2269
   43MOL    H4213566   4.890   1.446   7.758  0.8358 -1.3347 -1.1791
   43MOL    H4313567   4.877   1.264   7.612  2.4376  2.6319  2.3792
   43MOL    H4413568   4.739   1.184   7.684  1.6225 -1.1930 -1.2219
   43MOL    H4513569   5.022   1.207   7.755 -1.2269  0.6460 -0.0008
   43MOL    H4613570   4.927   1.062   7.752  0.9099  0.6866 -1.8601
   43MOL    H4713571   4.917   1.164   0.065 -0.7705 -0.0535 -0.1471
   43MOL    H4813572   4.578   1.429   0.242  3.3983 -2.2035 -0.3571
   43MOL    H4913573   4.595   1.599   0.239 -3.6360 -1.3766  0.9156
   43MOL    C5013574   4.512   1.520   0.048 -0.6740  0.4351 -0.7198
   43MOL    O5113575   4.389   1.547   0.109 -0.6191 -0.0966  0.5788
   43MOL    C5213576   4.298   1.441   0.130 -0.5163  0.1284 -0.4018
   43MOL    C5313577   4.197   1.438   0.017 -0.2022  0.3206 -0.0939
   43MOL    C5413578   4.119   1.571   0.025  0.2275  0.4548  0.1526
   43MOL    C5513579   4.546   1.638   7.786 -0.3360 -0.0479 -0.0889
   43MOL    H5613580   4.517   1.432   7.813 -0.7109 -0.9969  1.2376
   43MOL    H5713581   4.351   1.345   0.130  0.5199  0.6903  0.8892
   43MOL    H5813582   4.251   1.457   0.227 -0.4722 -1.2911 -0.1278
   43MOL    H5913583   4.136   1.352   0.043 -0.4878  1.7084  4.3290
   43MOL    H6013584   4.258   1.434   7.755  0.7668  0.6047  0.5412
   43MOL    H6113585   4.015   1.560   7.820  0.0367  1.0837  0.5255
   43MOL    H6213586   4.175   1.657   7.815 -0.8081  1.9924  2.0195
   43MOL    H6313587   4.106   1.602   0.128 -1.7814 -0.7461  0.2886
   43MOL    H6413588   4.534   1.719   0.031  0.1217 -0.4759  0.4658
   43MOL    H6513589   4.650   1.635   7.755 -0.6087 -0.7673 -0.9241
   43MOL    C6613590   4.455   1.648   7.658 -0.1898 -0.5073 -0.0635
   43MOL    O6713591   4.504   1.758   7.578 -0.4574  0.1909  0.2996
   43MOL    C6813592   4.437   1.886   7.614  0.5654 -0.1518 -0.5518
   43MOL    C6913593   4.502   1.997   7.537 -0.0171 -0.8026  0.0612
   43MOL    C7013594   4.488   2.002   7.385  0.0340  0.3211  0.3654
   43MOL    C7113595   4.471   1.530   7.556  0.0937  0.5420 -0.2068
   43MOL    H7213596   4.354   1.661   7.695  0.3744 -0.5950  1.5366
   43MOL    H7313597   4.332   1.876   7.587  0.4015 -0.1210  0.0681
   43MOL    H7413598   4.441   1.907   7.721  0.5592  0.2389 -0.6278
   43MOL    H7513599   4.607   1.984   7.565  0.1061 -0.4247 -0.2278
   43MOL    H7613600   4.469   2.091   7.581  1.6478  0.2899 -0.9213
   43MOL    H7713601   4.385   2.024   7.355  1.2538  2.3289 -2.5302
   43MOL    H7813602   4.520   1.914   7.330  0.9795  1.0574 -0.2665
   43MOL    H7913603   4.553   2.079   7.344  0.0779  0.1294  0.0772
   43MOL    H8013604   4.574   1.529   7.520  0.1965  0.8388  0.0797
   43MOL    H8113605   4.461   1.440   7.617  3.0015  0.2551 -0.0934
   43MOL    C8213606   4.388   1.533   7.430  0.0792 -0.2014 -0.1284
   43MOL    O8313607   4.409   1.412   7.360 -0.9143 -0.3837  0.2108
   43MOL    C8413608   4.530   1.398   7.292  0.1622  0.1852 -0.6959
   43MOL    C8513609   4.531   1.478   7.163  0.3901 -0.8117  0.2699
   43MOL    C8613610   4.454   1.399   7.062  0.6584 -0.2088  0.8016
   43MOL    C8713611   4.235   1.527   7.471  0.3992  0.3959  0.8407
   43MOL    H8813612   4.412   1.624   7.375  1.0159  2.2660  4.0817
   43MOL    H8913613   4.619   1.428   7.347  0.1292 -1.8187  0.4959
   43MOL    H9013614   4.544   1.291   7.279  1.0019 -0.2136  2.9532
   43MOL    H9113615   4.632   1.504   7.130  0.8645 -0.0440  2.2799
   43MOL    H9213616   4.485   1.577   7.166 -0.3045 -1.1304  0.3015
   43MOL    H9313617   4.513   1.312   7.035  0.8401 -0.4124  1.8330
   43MOL    H9413618   4.426   1.445   6.968 -2.3906 -0.1736  1.6675
   43MOL    H9513619   4.359   1.372   7.111  1.0481 -0.2650  1.5427
   43MOL    H9613620   4.228   1.437   7.532  0.1321  0.8518  1.4836
   43MOL    H9713621   4.206   1.611   7.535 -1.8047 -1.2708  2.0862
   43MOL    C9813622   4.140   1.532   7.352  0.4137  0.2974 -0.3553
   43MOL    O9913623   4.011   1.520   7.404 -0.2822 -0.3766  0.7976
   43MOL   C10013624   3.952   1.396   7.437 -0.1531 -0.9026 -0.5405
   43MOL   C10113625   3.857   1.358   7.321  0.4533 -0.1496  0.1599
   43MOL   C10213626   3.768   1.235   7.358  0.2595  0.4017 -0.4763
   43MOL   C10313627   4.147   1.673   7.280 -0.1462  1.2671  0.3713
   43MOL   H10413628   4.160   1.451   7.282  1.1025 -0.0976  0.2940
   43MOL   H10513629   4.021   1.312   7.447 -0.2599 -0.8816  0.4444
   43MOL   H10613630   3.907   1.389   7.536  1.8056 -1.1211  0.3681
   43MOL   H10713631   3.905   1.341   7.225 -1.4912  1.5551 -1.1745
   43MOL   H10813632   3.785   1.438   7.303  1.9457  0.7527 -1.8998
   43MOL   H10913633   3.832   1.155   7.394 -0.2353  0.5822  0.8281
   43MOL   H11013634   3.714   1.203   7.269 -3.0568 -2.4776  2.4259
   43MOL   H11113635   3.704   1.264   7.442  0.7323  0.6704 -0.2016
   43MOL   H11213636   4.136   1.757   7.348 -1.1517  2.5042 -1.2665
   43MOL   H11313637   4.241   1.680   7.226  0.4725  1.3161  1.4425
   43MOL   C11413638   4.045   1.679   7.165 -0.8728 -1.1720 -0.6017
   43MOL   O11513639   4.061   1.802   7.103 -0.7205  0.2829  0.3767
   43MOL   C11613640   3.937   1.876   7.087  0.1358 -0.2252 -0.2273
   43MOL   C11713641   3.955   1.998   6.993 -0.2830  0.2628 -0.1708
   43MOL   C11813642   4.059   2.101   7.046  0.1280 -0.4314  1.0142
   43MOL   C11913643   4.081   1.568   7.060 -0.1017  0.3961  0.0415
   43MOL   H12013644   3.947   1.668   7.213 -0.5922 -0.1198  0.2313
   43MOL   H12113645   3.864   1.810   7.041 -1.5142  0.8740  0.7945
   43MOL   H12213646   3.901   1.898   7.187  2.2371  2.4337  0.0145
   43MOL   H12313647   3.860   2.049   6.977 -0.6305 -0.5545 -0.7614
   43MOL   H12413648   3.988   1.954   6.899  2.3504 -0.4721  1.0308
   43MOL   H12513649   4.033   2.168   7.128 -0.2343  1.5409 -0.6690
   43MOL   H12613650   4.080   2.165   6.960 -0.7527  0.2509  1.2993
   43MOL   H12713651   4.158   2.058   7.060  1.2431  0.9865 -2.2055
   43MOL   H12813652   4.182   1.585   7.024 -0.6576  0.8432 -1.3421
   43MOL   H12913653   4.082   1.469   7.106  0.9860  0.7963  0.8887
   43MOL   C13013654   3.988   1.562   6.940  0.2739  0.5823 -0.2117
   43MOL   O13113655   4.042   1.487   6.831 -0.1159 -0.5986 -0.2765
   43MOL   C13213656   4.126   1.559   6.748  0.0104  0.7854  0.5988
   43MOL   C13313657   4.189   1.466   6.638 -0.9615  0.3735 -0.4174
   43MOL   C13413658   4.298   1.540   6.569 -0.2374  0.1656 -0.3987
   43MOL   C13513659   3.843   1.502   6.975 -0.5666 -0.3274  0.3230
   43MOL   H13613660   3.972   1.667   6.915 -1.5276  0.7712  1.6073
   43MOL   H13713661   4.083   1.649   6.703 -3.1319 -0.0632  1.7986
   43MOL   H13813662   4.206   1.610   6.802  0.3697  0.6148  0.2312
   43MOL   H13913663   4.120   1.427   6.563 -1.1415  0.9916 -0.5769
   43MOL   H14013664   4.234   1.382   6.692 -1.6680 -0.2799 -0.8373
   43MOL   H14113665   4.365   1.605   6.625  0.5280 -0.3901 -0.6500
   43MOL   H14213666   4.243   1.600   6.497 -0.8699  0.8599  0.6465
   43MOL   H14313667   4.365   1.472   6.516 -0.1078  0.9379 -1.2357
   43MOL   H14413668   3.862   1.402   7.014  0.2443  0.4375  1.9322
   43MOL   H14513669   3.798   1.569   7.048 -0.7336  0.3158 -0.3696
   43MOL   C14613670   3.747   1.486   6.862  0.3506 -0.3913 -0.3348
   43MOL   O14713671   3.634   1.430   6.930  0.6108  0.0379 -0.2288
   43MOL   C14813672   3.593   1.305   6.879  0.1592 -0.2322 -0.0615
   43MOL   C14913673   3.524   1.224   6.990 -0.6494 -1.0495 -0.6166
   43MOL   C15013674   3.467   1.085   6.953 -0.7635 -0.0925 -0.9148
   43MOL   C15113675   3.696   1.622   6.803 -0.0224  0.3759 -0.0391
   43MOL   H15213676   3.796   1.423   6.787 -1.3153 -1.3419 -0.6552
   43MOL   H15313677   3.527   1.317   6.793 -0.9430 -0.3567  0.7535
   43MOL   H15413678   3.678   1.250   6.840  0.3014  0.2076 -0.3733
   43MOL   H15513679   3.444   1.280   7.040  0.7626 -0.1044  0.6205
   43MOL   H15613680   3.595   1.209   7.071 -0.3018  2.1823 -0.2533
   43MOL   H15713681   3.538   1.051   6.878 -0.5007  0.8093 -1.0798
   43MOL   H15813682   3.372   1.079   6.901 -2.1213  3.3856  1.0078
   43MOL   H15913683   3.469   1.021   7.041 -0.8583 -0.3272 -1.0815
   43MOL   H16013684   3.600   1.649   6.847  0.3920  0.8480  0.5931
   43MOL   H16113685   3.764   1.705   6.823  0.5401 -0.1588  0.2835
   43MOL   C16213686   3.666   1.637   6.654 -0.1458 -0.5959  0.6068
   43MOL   O16313687   3.573   1.747   6.633 -0.1275  0.1665  0.3424
   43MOL   C16413688   3.605   1.874   6.686 -0.0224 -0.5030  0.4609
   43MOL   C16513689   3.495   1.971   6.625 -0.4728  0.1584 -0.1786
   43MOL   C16613690   3.532   1.990   6.478  0.6767  0.0539 -0.2484
   43MOL   C16713691   3.791   1.644   6.564 -0.4432  0.8512  0.0497
   43MOL   H16813692   3.621   1.539   6.633  1.6553 -1.4877  0.8420
   43MOL   H16913693   3.591   1.887   6.794 -0.9542  0.7840  0.1901
   43MOL   H17013694   3.709   1.899   6.666  0.1060  0.6286  2.3915
   43MOL   H17113695   3.484   2.064   6.682  0.8541  0.5531 -0.5621
   43MOL   H17213696   3.406   1.911   6.644 -0.8464  0.6653 -0.3125
   43MOL   H17313697   3.624   2.046   6.461  0.2525  0.9540  0.4380
   43MOL   H17413698   3.454   2.039   6.420 -3.0103 -2.0857  2.6816
   43MOL   H17513699   3.544   1.893   6.429  1.1391 -0.3699  0.6927
   43MOL   H17613700   3.830   1.746   6.566  1.5447  0.1591 -1.8567
   43MOL   H17713701   3.859   1.568   6.600 -1.0549 -0.7829 -2.1184
   43MOL   C17813702   3.751   1.606   6.417 -0.6767  0.4102 -0.0366
   43MOL   O17913703   3.853   1.660   6.331  0.0405 -0.1495 -0.5507
   43MOL   C18013704   3.856   1.799   6.306  0.7006 -1.2178 -0.1125
   43MOL   C18113705   3.943   1.826   6.182  0.0250 -0.3050 -0.5364
   43MOL   C18213706   3.922   1.961   6.111 -0.4707 -0.0702 -0.5178
   43MOL   C18313707   3.757   1.454   6.402  0.2446 -0.2677  0.5112
   43MOL   H18413708   3.659   1.663   6.402 -0.8772  0.5568  1.6665
   43MOL   H18513709   3.755   1.839   6.293  1.5587  1.1800  0.2428
   43MOL   H18613710   3.896   1.852   6.392 -0.9954  0.5338 -0.3618
   43MOL   H18713711   3.925   1.748   6.108  0.7874 -0.9758 -0.0329
   43MOL   H18813712   4.044   1.804   6.218  0.1028  1.2143  0.2252
   43MOL   H18913713   4.023   1.994   6.085  0.6996  0.4818  4.3938
   43MOL   H19013714   3.875   2.035   6.175 -0.7827  1.4397 -2.4628
   43MOL   H19113715   3.856   1.950   6.025 -1.8422 -1.1979  0.6522
   43MOL   H19213716   3.858   1.413   6.394  1.4028  2.5034  0.6404
   43MOL   H19313717   3.716   1.396   6.485 -1.5659 -0.0302 -0.1791
   43MOL   C19413718   3.670   1.417   6.280  0.7960 -0.4300 -0.6607
   43MOL   O19513719   3.733   1.457   6.160 -0.7957  0.1494  0.1417
   43MOL   C19613720   3.652   1.442   6.044 -0.2086  0.1306 -0.1906
   43MOL   C19713721   3.753   1.425   5.923  0.0546 -0.2759 -0.0858
   43MOL   C19813722   3.824   1.562   5.891  0.9963  0.5304  0.3308
   43MOL   C19913723   3.644   1.264   6.303 -0.0663 -0.6786  0.8503
   43MOL   H20013724   3.579   1.474   6.297  0.3309 -1.5258  0.5908
   43MOL   H20113725   3.567   1.373   6.043 -1.4855  1.6585 -2.1115
   43MOL   H20213726   3.611   1.542   6.033 -0.5165 -0.1861 -2.1726
   43MOL   H20313727   3.702   1.388   5.834 -0.9559 -2.6453  1.4530
   43MOL   H20413728   3.824   1.345   5.945 -1.2217 -0.7406  2.5402
   43MOL   H20513729   3.906   1.552   5.819  1.6612  0.0020  1.1522
   43MOL   H20613730   3.876   1.586   5.984  2.7298  0.8057 -0.6848
   43MOL   H20713731   3.759   1.639   5.848 -1.8081 -0.9442  1.7957
   43MOL   H20813732   3.628   1.218   6.206  1.1933  0.3643  0.1261
   43MOL   H20913733   3.733   1.220   6.349  1.8353  2.6048  0.5004
   43MOL   C21013734   3.512   1.243   6.377  0.3133 -0.0185 -0.1333
   43MOL   O21113735   3.400   1.286   6.294  0.1292  0.2683  0.7656
   43MOL   C21213736   3.295   1.327   6.383 -0.3050 -0.3539  0.8128
   43MOL   C21313737   3.203   1.427   6.321 -0.0122  0.8837 -0.1584
   43MOL   C21413738   3.274   1.565   6.297  0.4586  0.7437  0.9402
   43MOL   C21513739   3.495   1.102   6.414 -0.1014 -0.4039  0.1433
   43MOL   H21613740   3.523   1.303   6.466 -1.1492 -2.1364  1.5334
   43MOL   H21713741   3.244   1.235   6.411 -0.1313  0.1245  2.7816
   43MOL   H21813742   3.332   1.381   6.470 -2.7344 -1.0774  2.3577
   43MOL   H21913743   3.114   1.433   6.383 -1.9604  1.4748 -2.8765
   43MOL   H22013744   3.167   1.382   6.228 -1.0919  0.9465  0.2268
   43MOL   H22113745   3.333   1.602   6.381  2.3264  1.5961 -0.6860
   43MOL   H22213746   3.205   1.644   6.270  0.4965  0.5433  0.2309
   43MOL   H22313747   3.338   1.554   6.209 -1.4732 -1.2851 -0.2547
   43MOL   H22413748   3.580   1.069   6.473  1.8619 -0.5906 -2.6461
   43MOL   H22513749   3.403   1.103   6.473 -2.1267 -0.6026 -2.8800
   43MOL   C22613750   3.490   1.004   6.294  0.4188 -0.0024  0.1384
   43MOL   O22713751   3.628   0.985   6.264 -0.3586 -0.4356 -0.8262
   43MOL   C22813752   3.655   0.949   6.130 -0.0212  0.0195 -0.1080
   43MOL   C22913753   3.804   0.920   6.110  0.8618 -0.2452 -0.3748
   43MOL   C23013754   3.841   0.912   5.962 -0.7046 -0.4240 -0.0363
   43MOL   C23113755   3.415   0.870   6.330  0.1761  0.3799 -0.1194
   43MOL   H23213756   3.445   1.061   6.214 -0.3459 -0.3493  0.3200
   43MOL   H23313757   3.597   0.864   6.093 -0.7677  0.8258 -0.8057
   43MOL   H23413758   3.633   1.035   6.068 -2.7895  0.2574  1.1516
   43MOL   H23513759   3.824   0.820   6.149  1.7579  0.5217  1.2059
   43MOL   H23613760   3.864   0.992   6.166  0.0429  1.3166 -1.4586
   43MOL   H23713761   3.947   0.893   5.942 -0.8225 -0.2957 -0.7785
   43MOL   H23813762   3.813   1.002   5.908  1.4016 -0.2477 -0.8988
   43MOL   H23913763   3.794   0.826   5.916  0.7922 -0.3509 -1.7348
   43MOL   H24013764   3.434   0.787   6.262  2.4163 -0.9122  2.0076
   43MOL   H24113765   3.463   0.830   6.418 -2.4840  3.2125  2.7557
   43MOL   C24213766   3.263   0.900   6.330 -0.2197 -0.2795 -0.0963
   43MOL   O24313767   3.216   0.932   6.200 -0.8179 -0.1255 -0.3577
   43MOL   C24413768   3.101   1.008   6.195  0.2165  0.3516  0.5179
   43MOL   C24513769   3.079   1.060   6.057 -0.1096 -0.7210  0.0106
   43MOL   C24613770   3.196   1.150   6.011  0.7865  0.1463  0.1710
   43MOL   C24713771   3.182   0.781   6.380  0.0896  0.0536  0.1961
   43MOL   H24813772   3.246   0.990   6.389 -0.3042  0.2933 -0.9745
   43MOL   H24913773   3.013   0.950   6.219  0.0797  0.3069 -0.0770
   43MOL   H25013774   3.117   1.094   6.261  1.2678 -0.3670  1.2051
   43MOL   H25113775   2.982   1.108   6.048 -0.9483 -2.2484  0.6761
   43MOL   H25213776   3.070   0.979   5.984  0.0310 -1.3715  0.7111
   43MOL   H25313777   3.185   1.188   5.909 -0.2385 -1.8012 -0.4828
   43MOL   H25413778   3.290   1.096   6.021  0.7000 -0.1525 -0.5780
   43MOL   H25513779   3.207   1.241   6.070  1.8354 -0.3921  0.8148
   43MOL   H25613780   3.109   0.743   6.307 -0.8244  1.6191  0.2680
   43MOL   H25713781   3.253   0.700   6.396 -0.5529 -0.2173  1.7029
   43MOL   C25813782   3.104   0.800   6.509 -0.2803  0.0390 -0.4098
   43MOL   O25913783   3.030   0.690   6.549 -0.0765  0.5098 -0.0269
   43MOL   C26013784   2.905   0.679   6.489  0.3440 -0.7422  0.0566
   43MOL   C26113785   2.830   0.589   6.585 -0.1822  0.0522 -0.2655
   43MOL   C26213786   2.767   0.663   6.699 -0.6514  0.0667  0.3087
   43MOL   C26313787   3.205   0.819   6.619  0.7739 -0.8428  0.0094
   43MOL   H26413788   3.040   0.888   6.500  0.0185  0.5672  2.2153
   43MOL   H26513789   2.855   0.775   6.476  2.9977  0.7967  0.8443
   43MOL   H26613790   2.929   0.635   6.392 -1.6524 -0.4027 -0.6018
   43MOL   H26713791   2.892   0.507   6.621  0.4241  0.1041 -1.1711
   43MOL   H26813792   2.751   0.543   6.526  0.6057 -0.2095 -1.1247
   43MOL   H26913793   2.681   0.721   6.666  0.9259  2.2394 -0.0950
   43MOL   H27013794   2.845   0.735   6.724  0.7515 -1.2147 -0.3087
   43MOL   H27113795   2.747   0.602   6.787 -0.6251 -0.5220 -0.0881
   43MOL   H27213796   3.237   0.723   6.659  0.1326 -0.0821  2.4424
   43MOL   H27313797   3.301   0.861   6.587 -0.0779  0.7282 -0.5710
   43MOL   C27413798   3.151   0.904   6.747 -0.0269  0.3051  0.9120
   43MOL   O27513799   3.206   0.880   6.873 -0.6531 -0.3920  0.2183
   43MOL   C27613800   3.160   0.756   6.922 -0.5463  0.0367 -0.0206
   43MOL   C27713801   3.218   0.731   7.062  0.1921  0.3836  0.3149
   43MOL   C27813802   3.180   0.848   7.155 -0.6760 -0.3225 -0.2162
   43MOL   C27913803   3.160   1.055   6.714 -0.6776  0.0380 -0.4054
   43MOL   H28013804   3.045   0.880   6.752 -0.1573  0.4717 -0.8071
   43MOL   H28113805   3.051   0.761   6.924 -0.6060 -1.4139  0.8698
   43MOL   H28213806   3.187   0.669   6.862  0.8440  1.1524 -1.0576
   43MOL   H28313807   3.327   0.729   7.052  0.2208  0.7481  0.5277
   43MOL   H28413808   3.189   0.634   7.103 -0.0831  0.8015  1.1332
   43MOL   H28513809   3.223   0.832   7.254  2.2262  1.8009 -1.0834
   43MOL   H28613810   3.071   0.858   7.160 -0.8737 -0.6717 -3.0379
   43MOL   H28713811   3.229   0.938   7.119 -0.4158 -0.1724  0.4935
   43MOL   H28813812   3.266   1.084   6.709 -1.1560  1.8141 -0.6401
   43MOL   H28913813   3.122   1.071   6.613 -2.2923 -1.9900 -0.1481
   43MOL   C29013814   3.078   1.140   6.814  0.2257  0.0449  0.8590
   43MOL   O29113815   3.083   1.275   6.773  0.0769 -0.4573 -0.2117
   43MOL   C29213816   3.204   1.342   6.812  0.1067  0.4376  0.5615
   43MOL   C29313817   3.207   1.484   6.753  0.0615 -0.3877  0.2003
   43MOL   C29413818   3.330   1.564   6.784 -0.7155 -0.0223  0.7547
   43MOL   C29513819   2.925   1.109   6.817  0.1002 -0.1742  0.1313
   43MOL   H29613820   3.112   1.130   6.917 -0.3441  0.5946  1.1017
   43MOL   H29713821   3.211   1.348   6.920  0.5459 -2.6329  0.7429
   43MOL   H29813822   3.291   1.291   6.772 -0.9418 -0.0044 -1.2017
   43MOL   H29913823   3.125   1.539   6.800 -0.3941  0.7561 -1.8795
   43MOL   H30013824   3.182   1.494   6.647  0.5469  2.5703  0.3360
   43MOL   H30113825   3.314   1.672   6.786 -0.3195  0.0666 -0.4843
   43MOL   H30213826   3.418   1.535   6.726 -0.4534  0.7619  0.7540
   43MOL   H30313827   3.359   1.551   6.888  0.7269  1.9637  0.6507
   43MOL   H30413828   2.887   1.117   6.716  1.3010  1.2304 -0.2431
   43MOL   H30513829   2.901   1.005   6.838  2.4369 -0.8695 -0.4583
   43MOL   C30613830   2.839   1.182   6.926 -0.0675  0.3969  0.3933
   43MOL   O30713831   2.705   1.128   6.922 -0.1834  0.4050 -0.2542
   43MOL   C30813832   2.624   1.188   6.819 -0.7259  0.3200 -0.8852
   43MOL   C30913833   2.476   1.173   6.844 -0.1997 -0.2105  0.0336
   43MOL   C31013834   2.404   1.267   6.746 -0.2921 -0.3132 -0.8217
   43MOL   C31113835   2.889   1.164   7.073  0.4734 -0.4581  0.3361
   43MOL   H31213836   2.838   1.289   6.905  1.6019  0.7466  1.9977
   43MOL   H31313837   2.639   1.296   6.814 -3.0526  0.7068 -0.3582
   43MOL   H31413838   2.647   1.150   6.720 -0.7953 -0.1425 -0.7221
   43MOL   H31513839   2.450   1.213   6.942  0.2042  1.1166 -0.3832
   43MOL   H31613840   2.436   1.073   6.855 -0.9012  0.0969  0.3120
   43MOL   H31713841   2.431   1.371   6.766 -0.6564  0.4395 -3.9749
   43MOL   H31813842   2.297   1.263   6.766 -0.1945  0.2030 -0.1636
   43MOL   H31913843   2.429   1.247   6.642  1.4812 -1.8349 -0.1314
   43MOL   H32013844   2.982   1.215   7.098 -0.7493  1.4594  1.0516
   43MOL   H32113845   2.815   1.200   7.145  1.2105  0.8930  0.4239
   43MOL   H32213846   2.908   1.059   7.094 -0.4556 -0.5082  0.9994
   44MOL     C113847   2.580   6.462   2.065  0.1584 -0.2541  0.7411
   44MOL     O213848   2.582   6.390   1.946 -0.2139  0.2176  0.3276
   44MOL     C313849   2.569   6.471   1.829 -0.0915 -0.3689 -0.5584
   44MOL     C413850   2.532   6.387   1.705 -0.0234 -0.8872  0.2417
   44MOL     C513851   2.400   6.314   1.718 -0.4201  0.5327  0.3405
   44MOL     C613852   2.560   6.366   2.179  0.2071  0.4506  0.1289
   44MOL     H713853   2.491   6.524   2.055  1.0579  0.6957 -1.5887
   44MOL     H813854   2.488   6.543   1.842 -1.6226 -1.5158 -3.3242
   44MOL     H913855   2.663   6.523   1.809 -1.3451  0.6178 -4.3057
   44MOL    H1013856   2.621   6.332   1.675 -0.1450 -0.6028 -0.6800
   44MOL    H1113857   2.523   6.466   1.630 -1.5848 -1.4557 -0.1993
   44MOL    H1213858   2.416   6.246   1.802 -1.8908 -1.0302 -0.6172
   44MOL    H1313859   2.384   6.254   1.629 -0.2324  3.0698 -1.4523
   44MOL    H1413860   2.322   6.385   1.743  0.5803  1.4452  0.9385
   44MOL    H1513861   2.470   6.308   2.157  1.1361 -0.9400 -0.0635
   44MOL    H1613862   2.653   6.310   2.173 -0.0769  0.0987 -1.2806
   44MOL    H1713863   2.665   6.528   2.080  0.4271 -0.4533  0.1412
   44MOL    C1813864   2.563   6.440   2.314 -0.0791  0.4229 -0.5006
   44MOL    O1913865   2.422   6.465   2.338 -0.5578  0.3824 -0.0498
   44MOL    C2013866   2.396   6.575   2.418  0.1351 -0.0453  0.4001
   44MOL    C2113867   2.251   6.583   2.458  0.4694  0.0303 -0.1682
   44MOL    C2213868   2.211   6.455   2.533  0.9565  0.4126 -0.0600
   44MOL    C2313869   2.614   6.344   2.425 -0.6507  0.3725  0.0154
   44MOL    H2413870   2.613   6.537   2.309  0.2058  0.1871 -2.3312
   44MOL    H2513871   2.465   6.565   2.502  0.6459  1.2190  0.1410
   44MOL    H2613872   2.426   6.663   2.361 -1.2709  0.0075 -0.2741
   44MOL    H2713873   2.178   6.601   2.380  0.3652 -0.6129 -0.2170
   44MOL    H2813874   2.260   6.669   2.525  0.8343 -0.2493  0.1479
   44MOL    H2913875   2.119   6.442   2.590  1.9800 -1.8803  1.1346
   44MOL    H3013876   2.289   6.425   2.603  1.2978 -2.3624 -1.5728
   44MOL    H3113877   2.203   6.373   2.462 -1.2676  0.6111 -0.0830
   44MOL    H3213878   2.575   6.381   2.520  0.7467  3.1693 -0.4568
   44MOL    H3313879   2.558   6.251   2.415  3.3478 -2.2379  0.6022
   44MOL    C3413880   2.774   6.333   2.431  0.4007  0.7413  0.1118
   44MOL    O3513881   2.830   6.462   2.426 -0.1035 -0.2703 -0.3763
   44MOL    C3613882   2.913   6.501   2.316 -0.1279  0.5103 -0.0768
   44MOL    C3713883   2.926   6.652   2.322  0.2840  0.7978 -0.4868
   44MOL    C3813884   3.025   6.698   2.216 -0.3805 -0.0327 -0.5925
   44MOL    C3913885   2.806   6.258   2.557  0.3972 -0.0136 -0.0026
   44MOL    H4013886   2.808   6.278   2.343  1.4332  0.0746  0.9250
   44MOL    H4113887   3.011   6.458   2.332 -0.9991 -0.4234  2.9784
   44MOL    H4213888   2.884   6.472   2.215 -2.8592  1.8922  0.2526
   44MOL    H4313889   2.962   6.672   2.423  2.5228  0.5703 -1.2104
   44MOL    H4413890   2.837   6.714   2.312  1.5677  2.7223 -0.2981
   44MOL    H4513891   2.992   6.789   2.167  0.9085  1.5446  1.3727
   44MOL    H4613892   3.050   6.621   2.144 -0.0472 -0.4412 -0.0482
   44MOL    H4713893   3.113   6.722   2.277 -1.7330 -0.2829  1.5330
   44MOL    H4813894   2.908   6.285   2.583 -0.3444  0.9441  2.0011
   44MOL    H4913895   2.752   6.290   2.646 -0.2271  0.6433 -0.6032
   44MOL    C5013896   2.783   6.107   2.542 -0.5610  0.4807  0.0163
   44MOL    O5113897   2.871   6.054   2.442 -0.2850  0.5099  0.0852
   44MOL    C5213898   2.813   5.995   2.327  0.2327 -0.1396 -0.0315
   44MOL    C5313899   2.925   5.961   2.236 -0.9644  0.9741  0.3886
   44MOL    C5413900   2.990   6.082   2.170 -0.1440  0.1474  0.2335
   44MOL    C5513901   2.800   6.031   2.675  0.4121  0.1082 -0.6357
   44MOL    H5613902   2.678   6.102   2.514 -1.1652  2.1442  1.8329
   44MOL    H5713903   2.763   5.905   2.363 -2.5330  1.2626 -0.3000
   44MOL    H5813904   2.744   6.064   2.279  0.7304  0.0795 -0.4373
   44MOL    H5913905   2.877   5.898   2.161 -0.8994  2.4832 -0.9398
   44MOL    H6013906   2.992   5.893   2.288 -0.5543 -0.0593 -1.4641
   44MOL    H6113907   3.058   6.050   2.091  0.7653 -0.7224  1.3477
   44MOL    H6213908   3.029   6.147   2.248 -0.4136  0.1126  0.3995
   44MOL    H6313909   2.915   6.140   2.117  3.4536  1.8255 -3.1876
   44MOL    H6413910   2.726   6.057   2.751 -0.7648  1.0463 -2.0743
   44MOL    H6513911   2.766   5.928   2.659  1.5615 -0.9553  3.2123
   44MOL    C6613912   2.937   6.019   2.743 -0.7189  0.5783  0.6282
   44MOL    O6713913   2.927   5.999   2.883 -0.6042  0.6776 -0.1051
   44MOL    C6813914   2.875   6.113   2.949  0.4621 -0.0548 -0.1212
   44MOL    C6913915   2.946   6.128   3.093  0.4409 -0.1334  0.8611
   44MOL    C7013916   3.095   6.149   3.096  0.0809 -1.2285 -0.4936
   44MOL    C7113917   3.027   5.911   2.678 -0.0936 -0.0151 -0.4244
   44MOL    H7213918   2.990   6.112   2.723 -1.0239  0.8396  1.0366
   44MOL    H7313919   2.881   6.204   2.890  1.1266  0.9497  1.4617
   44MOL    H7413920   2.769   6.093   2.965  0.1708  1.6346  0.1361
   44MOL    H7513921   2.913   6.047   3.158 -0.0066 -0.7075 -0.0683
   44MOL    H7613922   2.903   6.219   3.137 -0.7230 -0.1269 -0.2787
   44MOL    H7713923   3.121   6.244   3.050  2.0381 -0.8991  1.1980
   44MOL    H7813924   3.143   6.066   3.044  2.1681 -0.4388  0.1338
   44MOL    H7913925   3.129   6.159   3.199 -0.9221 -0.2168 -0.2613
   44MOL    H8013926   2.982   5.816   2.706  2.2510 -1.4918 -1.4553
   44MOL    H8113927   3.022   5.921   2.570 -0.2206  0.9556 -0.3370
   44MOL    C8213928   3.174   5.907   2.729  0.6828 -0.6456  0.0507
   44MOL    O8313929   3.211   5.774   2.769  0.1037 -0.1878  0.4922
   44MOL    C8413930   3.193   5.749   2.903  0.1349 -0.2885 -0.3053
   44MOL    C8513931   3.212   5.602   2.914 -0.4820  0.6595  0.9072
   44MOL    C8613932   3.359   5.549   2.915 -0.1994  0.1239  0.6830
   44MOL    C8713933   3.282   5.951   2.620  0.2909 -0.1720  0.5448
   44MOL    H8813934   3.172   5.977   2.813  0.2099 -2.3757  1.5190
   44MOL    H8913935   3.262   5.799   2.971  0.2212 -3.1755  1.8463
   44MOL    H9013936   3.092   5.778   2.932  1.2745  1.3430  2.1965
   44MOL    H9113937   3.158   5.539   2.843  3.5907 -0.8705 -0.9923
   44MOL    H9213938   3.161   5.575   3.006 -2.1570 -0.1197 -0.2320
   44MOL    H9313939   3.378   5.444   2.938  2.5097 -0.4359 -3.5509
   44MOL    H9413940   3.416   5.605   2.989  2.1899 -1.1455 -0.1254
   44MOL    H9513941   3.404   5.568   2.817 -0.7297 -1.9498  0.0049
   44MOL    H9613942   3.278   5.880   2.538 -0.5020  1.4932 -0.8802
   44MOL    H9713943   3.267   6.051   2.581  1.6900 -0.2724 -0.3019
   44MOL    C9813944   3.426   5.948   2.666 -0.1666  0.1419  0.3417
   44MOL    O9913945   3.512   5.971   2.553 -0.7326  0.1285  0.1868
   44MOL   C10013946   3.545   5.859   2.486 -0.2221 -0.2763  0.4037
   44MOL   C10113947   3.652   5.895   2.378  0.7408  1.7114 -0.2368
   44MOL   C10213948   3.591   5.963   2.254  0.0355  0.0415 -0.6878
   44MOL   C10313949   3.457   6.038   2.789 -0.3309 -0.3445 -0.2569
   44MOL   H10413950   3.441   5.847   2.705 -0.8239 -0.2049 -0.2879
   44MOL   H10513951   3.592   5.792   2.558  2.9698  2.4548  0.9934
   44MOL   H10613952   3.457   5.809   2.445  0.0713 -1.4928  1.2210
   44MOL   H10713953   3.704   5.803   2.352 -1.1541  0.6807 -0.4992
   44MOL   H10813954   3.722   5.961   2.429  0.6500  1.9547 -0.4271
   44MOL   H10913955   3.513   5.908   2.201  0.2162  1.2289 -2.2400
   44MOL   H11013956   3.661   5.985   2.173 -0.6437  0.7253 -1.1072
   44MOL   H11113957   3.547   6.058   2.285  0.0037 -0.9097  2.3522
   44MOL   H11213958   3.448   6.145   2.771 -2.0224 -0.5551 -0.7074
   44MOL   H11313959   3.393   6.002   2.869  2.1028 -1.1504  1.4076
   44MOL   C11413960   3.589   6.012   2.854  0.0855 -0.1812 -0.4435
   44MOL   O11513961   3.581   6.083   2.979  0.5124 -0.6271 -0.2731
   44MOL   C11613962   3.577   6.221   2.970 -0.0650 -0.3761 -0.0129
   44MOL   C11713963   3.610   6.288   3.103  0.6802  0.8062  0.1135
   44MOL   C11813964   3.736   6.233   3.173  0.7050 -0.2848 -0.3435
   44MOL   C11913965   3.628   5.861   2.876  0.1778 -0.2306  0.1322
   44MOL   H12013966   3.673   6.047   2.794  0.9345  0.9123  1.3412
   44MOL   H12113967   3.652   6.249   2.895 -1.1591  2.1633 -0.2078
   44MOL   H12213968   3.477   6.257   2.944 -0.1010  0.3258  1.0749
   44MOL   H12313969   3.524   6.275   3.168  1.0806  1.6570  0.8160
   44MOL   H12413970   3.616   6.395   3.086 -0.8966  1.0391  0.9591
   44MOL   H12513971   3.738   6.125   3.183 -0.7337 -0.2622  0.2691
   44MOL   H12613972   3.729   6.273   3.274 -0.7736  0.6932 -0.8102
   44MOL   H12713973   3.822   6.265   3.114 -1.0412  2.7916 -1.3928
   44MOL   H12813974   3.547   5.808   2.926  0.9072 -2.3862 -0.9116
   44MOL   H12913975   3.641   5.816   2.778  1.5305  1.5730 -0.5654
   44MOL   C13013976   3.755   5.835   2.965 -0.1363 -0.6471  0.4916
   44MOL   O13113977   3.784   5.698   2.947 -0.1079  0.3087 -0.0576
   44MOL   C13213978   3.800   5.611   3.065  0.1085 -0.0335 -0.4959
   44MOL   C13313979   3.843   5.474   3.026  0.2851  0.2272  0.4078
   44MOL   C13413980   3.991   5.448   3.033 -0.4273 -0.1768 -0.6938
   44MOL   C13513981   3.885   5.911   2.919  0.4906  0.2800  0.0018
   44MOL   H13613982   3.729   5.866   3.066  0.8309  1.8975 -0.0089
   44MOL   H13713983   3.871   5.664   3.129 -0.1461 -0.6288  0.2828
   44MOL   H13813984   3.703   5.617   3.114  0.4454  4.0126 -0.1169
   44MOL   H13913985   3.824   5.444   2.923  1.0523 -0.6551  0.5231
   44MOL   H14013986   3.793   5.398   3.086 -1.5392  1.1963  0.1490
   44MOL   H14113987   4.025   5.485   3.130 -2.1724  1.1719 -0.5790
   44MOL   H14213988   4.056   5.492   2.958 -0.8272  0.2237 -0.8022
   44MOL   H14313989   4.009   5.340   3.027  0.9477  0.0958 -1.4680
   44MOL   H14413990   3.916   5.879   2.820 -0.1679  0.2811 -0.2093
   44MOL   H14513991   3.863   6.017   2.905  1.4770 -0.0349 -4.5640
   44MOL   C14613992   4.002   5.897   3.021 -0.3545 -0.3405 -0.0833
   44MOL   O14713993   4.115   5.959   2.954 -0.0456  0.6031  0.2482
   44MOL   C14813994   4.178   5.869   2.859 -0.2842 -0.3868  0.5126
   44MOL   C14913995   4.331   5.859   2.873 -0.2684 -0.5804 -0.0940
   44MOL   C15013996   4.416   5.785   2.762 -0.2407 -0.0242  0.3187
   44MOL   C15113997   3.982   5.960   3.161 -1.5883  0.2858  0.5946
   44MOL   H15213998   4.025   5.792   3.037 -0.0716  0.0954  2.6350
   44MOL   H15313999   4.133   5.770   2.858  0.8702 -0.9193  1.4434
   44MOL   H15414000   4.154   5.903   2.758  1.1721  1.0520  0.6295
   44MOL   H15514001   4.348   5.800   2.963  0.3158 -0.1404  0.0849
   44MOL   H15614002   4.367   5.961   2.887  0.3958 -0.8922  0.5309
   44MOL   H15714003   4.355   5.704   2.722 -0.5971  1.0187 -1.2803
   44MOL   H15814004   4.507   5.736   2.796  0.0869  0.2513 -0.1556
   44MOL   H15914005   4.442   5.855   2.682 -0.8445  2.1178  1.9369
   44MOL   H16014006   3.991   6.067   3.147 -4.2987  0.6824  1.5658
   44MOL   H16114007   3.886   5.930   3.204 -0.9790 -0.9384  1.1404
   44MOL   C16214008   4.102   5.923   3.263  0.3409  0.5619 -1.0331
   44MOL   O16314009   4.068   5.988   3.385  0.2818  0.3805  0.3802
   44MOL   C16414010   4.144   6.104   3.410 -0.1229  0.5834  0.2879
   44MOL   C16514011   4.087   6.157   3.537 -0.6142  0.3992  0.0764
   44MOL   C16614012   3.955   6.225   3.515  0.5868  0.5638  0.4162
   44MOL   C16714013   4.107   5.767   3.288  0.1014  1.2360  0.4379
   44MOL   H16814014   4.194   5.963   3.219 -1.1896  3.7562 -1.5200
   44MOL   H16914015   4.250   6.087   3.427 -0.4162  0.2150  1.9115
   44MOL   H17014016   4.123   6.172   3.328 -0.2740 -0.1941 -0.3155
   44MOL   H17114017   4.158   6.238   3.557  0.0655 -0.0003 -0.7125
   44MOL   H17214018   4.077   6.091   3.622  1.5010  2.1711  1.7870
   44MOL   H17314019   3.960   6.291   3.429 -0.7989 -0.6885 -0.6442
   44MOL   H17414020   3.913   6.268   3.606 -0.0804 -1.5359  1.1265
   44MOL   H17514021   3.880   6.148   3.497  0.0600  0.3563  3.2244
   44MOL   H17614022   4.006   5.734   3.313  0.2783  0.2506 -0.1445
   44MOL   H17714023   4.132   5.722   3.192  0.0601  1.7597  0.1787
   44MOL   C17814024   4.205   5.711   3.398 -0.5834  0.1185  0.7468
   44MOL   O17914025   4.205   5.565   3.393 -0.4435  0.0736 -0.0857
   44MOL   C18014026   4.144   5.504   3.511 -0.1547 -0.4839 -0.1518
   44MOL   C18114027   4.165   5.353   3.530  0.3905 -0.1223  0.5528
   44MOL   C18214028   4.083   5.287   3.419  0.0186 -0.4315  0.8259
   44MOL   C18314029   4.358   5.748   3.376 -0.8378  0.1545  1.0315
   44MOL   H18414030   4.182   5.739   3.501  2.1126 -0.6320  1.6042
   44MOL   H18514031   4.179   5.555   3.601  0.4822 -2.2073  0.5923
   44MOL   H18614032   4.039   5.531   3.505  0.1925  0.4660 -2.2932
   44MOL   H18714033   4.134   5.320   3.629 -0.5058 -1.8856 -0.2995
   44MOL   H18814034   4.272   5.338   3.516 -0.0756 -1.4593 -1.8702
   44MOL   H18914035   4.122   5.190   3.389  1.3557 -0.0772  1.3499
   44MOL   H19014036   4.081   5.344   3.326  0.8608  1.2309  1.8049
   44MOL   H19114037   3.980   5.284   3.453 -0.3587  0.8153 -0.1499
   44MOL   H19214038   4.390   5.726   3.274  0.9718  0.3902  1.5336
   44MOL   H19314039   4.364   5.855   3.395  1.1274  0.2884 -0.1743
   44MOL   C19414040   4.463   5.695   3.477  0.3221  0.2845 -0.3690
   44MOL   O19514041   4.412   5.721   3.610  0.1053 -0.0559  0.4691
   44MOL   C19614042   4.405   5.856   3.661 -0.5400  0.4445 -0.0375
   44MOL   C19714043   4.388   5.860   3.811  0.1024  0.4320  0.2518
   44MOL   C19814044   4.380   6.006   3.862 -0.2575 -0.0377  0.0926
   44MOL   C19914045   4.515   5.555   3.465  0.4022 -0.3369  0.3973
   44MOL   H20014046   4.554   5.750   3.452  0.9648 -0.4034  0.4504
   44MOL   H20114047   4.490   5.919   3.634  0.6651 -0.3696  1.7181
   44MOL   H20214048   4.313   5.897   3.620 -0.9792  0.9088  1.3789
   44MOL   H20314049   4.468   5.800   3.856  0.3317  0.3672 -0.2400
   44MOL   H20414050   4.301   5.807   3.849  0.8783  0.1497  1.6685
   44MOL   H20514051   4.383   6.012   3.971  5.5045  0.5567  0.0800
   44MOL   H20614052   4.290   6.057   3.826  0.4137  0.3826 -1.0249
   44MOL   H20714053   4.462   6.066   3.821  1.1896 -1.3624  0.9903
   44MOL   H20814054   4.595   5.546   3.539  2.1121  0.7440 -1.2612
   44MOL   H20914055   4.436   5.485   3.494  0.7083 -0.1487  1.7110
   44MOL   C21014056   4.576   5.513   3.325 -0.3190 -0.4622 -0.2336
   44MOL   O21114057   4.655   5.619   3.282 -0.5918 -0.1021  0.8990
   44MOL   C21214058   4.650   5.646   3.137  0.2409  0.1308  0.1577
   44MOL   C21314059   4.709   5.783   3.126  0.0686 -0.2334  0.4480
   44MOL   C21414060   4.840   5.807   3.194 -0.1376 -0.4910 -0.5932
   44MOL   C21514061   4.666   5.387   3.328 -0.6624 -0.5040  0.2927
   44MOL   H21614062   4.504   5.505   3.244 -0.2052 -0.2703 -0.3535
   44MOL   H21714063   4.718   5.584   3.077 -0.9313 -0.0372 -1.0126
   44MOL   H21814064   4.550   5.647   3.093 -0.0715 -1.3850  0.8273
   44MOL   H21914065   4.634   5.856   3.153 -0.7472  0.4293 -3.2551
   44MOL   H22014066   4.714   5.809   3.020  0.8094  1.3628  0.8503
   44MOL   H22114067   4.907   5.727   3.162  2.1092  1.3693 -0.7112
   44MOL   H22214068   4.830   5.806   3.302 -1.6486  1.0955 -0.6912
   44MOL   H22314069   4.884   5.903   3.166 -1.8528  0.4183 -0.2227
   44MOL   H22414070   4.731   5.388   3.241  0.5951 -3.0305  1.1602
   44MOL   H22514071   4.743   5.396   3.404 -2.6425 -0.4644  2.3601
   44MOL   C22614072   4.593   5.251   3.335 -0.2480 -0.0300  0.3883
   44MOL   O22714073   4.527   5.240   3.211 -0.5286 -0.3678  0.4641
   44MOL   C22814074   4.386   5.230   3.224 -0.0724  0.0475  0.4895
   44MOL   C22914075   4.324   5.237   3.085 -0.9540  0.7877 -0.3805
   44MOL   C23014076   4.391   5.329   2.983  0.3901  0.0438 -0.2835
   44MOL   C23114077   4.696   5.139   3.338  0.3171  0.3566  0.0858
   44MOL   H23214078   4.533   5.252   3.426 -3.5432  2.4511 -1.7003
   44MOL   H23314079   4.340   5.154   3.288  1.8381 -0.2579  1.5438
   44MOL   H23414080   4.354   5.323   3.272 -1.6104  1.5649 -3.3088
   44MOL   H23514081   4.217   5.259   3.090 -1.5791 -1.9661 -0.5663
   44MOL   H23614082   4.324   5.134   3.049  1.9332  0.3486  0.7569
   44MOL   H23714083   4.400   5.436   3.004 -3.3769  0.5013 -0.7076
   44MOL   H23814084   4.339   5.327   2.887 -0.4280  1.9379  0.0955
   44MOL   H23914085   4.497   5.307   2.968  0.1795 -1.0436 -0.1883
   44MOL   H24014086   4.657   5.045   3.299  0.9816 -1.0560  2.6471
   44MOL   H24114087   4.779   5.172   3.275  0.6151 -3.3356 -1.5819
   44MOL   C24214088   4.736   5.124   3.487 -0.0943 -0.8049  0.0522
   44MOL   O24314089   4.632   5.040   3.544 -0.1684 -0.0897  0.0644
   44MOL   C24414090   4.622   5.032   3.691 -0.6583  0.0418 -0.1196
   44MOL   C24514091   4.500   4.953   3.726  0.3484 -0.0171  0.1703
   44MOL   C24614092   4.499   4.803   3.695 -0.3642 -0.0293 -0.2311
   44MOL   C24714093   4.870   5.040   3.497  0.0439  0.8789 -0.1595
   44MOL   H24814094   4.743   5.218   3.542  0.7437 -0.1341 -1.1764
   44MOL   H24914095   4.714   4.988   3.730 -1.1846 -2.0296 -1.1838
   44MOL   H25014096   4.614   5.134   3.729 -1.5374  0.1606 -0.5975
   44MOL   H25114097   4.434   5.005   3.657 -0.2183 -0.3692  0.4374
   44MOL   H25214098   4.473   4.977   3.829 -0.9184  1.1941 -0.4297
   44MOL   H25314099   4.529   4.785   3.592 -0.1834 -0.5968 -0.0826
   44MOL   H25414100   4.397   4.765   3.702 -1.1923  2.3448  1.1897
   44MOL   H25514101   4.564   4.743   3.758  2.0260  2.7287  0.0162
   44MOL   H25614102   4.890   5.009   3.599  1.8626 -0.1091 -0.7877
   44MOL   H25714103   4.863   4.950   3.435 -0.5866  0.1114  1.0048
   44MOL   C25814104   4.993   5.123   3.444  0.2567 -0.2521  0.4698
   44MOL   O25914105   5.000   5.239   3.517  0.0698 -0.0183 -0.1737
   44MOL   C26014106   5.082   5.342   3.467 -0.2592  0.7931  0.3485
   44MOL   C26114107   5.039   5.480   3.522 -0.2889 -0.3825  0.2296
   44MOL   C26214108   5.039   5.591   3.417  0.2330 -0.1500 -0.6440
   44MOL   C26314109   5.128   5.035   3.462  0.2715  0.2277  0.2245
   44MOL   H26414110   4.981   5.142   3.337  0.8078 -2.4037  0.0008
   44MOL   H26514111   5.181   5.320   3.509  0.3771  3.7982  0.4954
   44MOL   H26614112   5.084   5.326   3.360 -0.2040  2.5998  0.0622
   44MOL   H26714113   5.085   5.502   3.618  0.1802 -0.8817  0.1218
   44MOL   H26814114   4.937   5.462   3.559 -0.6332  0.6194 -0.2316
   44MOL   H26914115   5.141   5.628   3.405  0.3380 -0.4207 -0.5931
   44MOL   H27014116   4.971   5.667   3.455  1.0681 -0.0277  0.6557
   44MOL   H27114117   4.985   5.563   3.327 -0.0131 -1.6794 -0.0348
   44MOL   H27214118   5.177   5.051   3.559 -1.0407  3.1381  0.4734
   44MOL   H27314119   5.080   4.938   3.472  0.2998  0.2760  0.8895
   44MOL   C27414120   5.233   5.035   3.345  0.0715  0.2927  0.4301
   44MOL   O27514121   5.330   5.135   3.370 -0.0025 -0.0646 -0.1943
   44MOL   C27614122   5.382   5.198   3.254 -0.3170  0.3371 -0.2657
   44MOL   C27714123   5.501   5.283   3.300  0.2205 -0.5180  0.0479
   44MOL   C27814124   5.437   5.413   3.356  0.1772  0.1746 -0.4777
   44MOL   C27914125   5.293   4.900   3.317 -0.4499 -0.1836 -0.2971
   44MOL   H28014126   5.178   5.072   3.258  0.2905  3.3766  1.5440
   44MOL   H28114127   5.420   5.123   3.185  0.0018 -0.6531  0.9420
   44MOL   H28214128   5.294   5.254   3.221 -2.7124 -1.7248  2.3273
   44MOL   H28314129   5.578   5.292   3.224 -0.2699 -1.1113 -0.5281
   44MOL   H28414130   5.548   5.242   3.390  0.6593 -1.0481 -0.4182
   44MOL   H28514131   5.334   5.391   3.385  0.3525 -0.0278 -0.0153
   44MOL   H28614132   5.419   5.475   3.268 -0.8167 -0.1646 -0.5158
   44MOL   H28714133   5.497   5.463   3.431  0.6932 -0.4344 -0.4780
   44MOL   H28814134   5.344   4.908   3.221  0.6718 -1.3053  0.1806
   44MOL   H28914135   5.371   4.880   3.391 -0.0848 -3.6476 -1.5746
   44MOL   C29014136   5.211   4.771   3.302  0.1724  0.2934 -0.3151
   44MOL   O29114137   5.110   4.799   3.208  0.2107 -0.7561  0.3337
   44MOL   C29214138   4.995   4.720   3.204  0.6633 -0.2055  0.3001
   44MOL   C29314139   4.916   4.741   3.078  0.2970 -0.0673 -0.4386
   44MOL   C29414140   4.834   4.872   3.086  0.1676  0.3360 -0.0413
   44MOL   C29514141   5.288   4.646   3.248  0.0620  0.3590  0.4833
   44MOL   H29614142   5.165   4.746   3.397 -1.1465 -0.5833 -1.1723
   44MOL   H29714143   5.029   4.617   3.197  1.7300  0.2993 -2.4767
   44MOL   H29814144   4.938   4.726   3.297  1.7388 -0.0108  0.9557
   44MOL   H29914145   4.836   4.670   3.060 -0.4768  0.7718 -0.3791
   44MOL   H30014146   4.973   4.733   2.986 -0.8164 -0.2785 -1.1244
   44MOL   H30114147   4.877   4.954   3.142 -0.2903 -0.1024  0.9631
   44MOL   H30214148   4.735   4.862   3.130 -0.9831 -0.7731 -2.7434
   44MOL   H30314149   4.805   4.895   2.983 -0.9195 -1.2794 -0.1201
   44MOL   H30414150   5.228   4.555   3.258  0.0268  0.0311 -2.2139
   44MOL   H30514151   5.309   4.660   3.142  0.6109  1.3524  0.7209
   44MOL   C30614152   5.417   4.614   3.313  0.3259 -0.1750 -0.3339
   44MOL   O30714153   5.385   4.555   3.439  0.5368  0.3977  0.1891
   44MOL   C30814154   5.496   4.508   3.509 -0.3792 -0.1130  0.7237
   44MOL   C30914155   5.446   4.461   3.651  0.9381  0.9417  0.3355
   44MOL   C31014156   5.383   4.566   3.739 -0.4340 -0.0633  0.3446
   44MOL   C31114157   5.518   4.535   3.213 -0.3792 -0.0891  0.1698
   44MOL   H31214158   5.471   4.704   3.343 -0.7890  0.5004 -0.3389
   44MOL   H31314159   5.545   4.423   3.462  2.3636  2.7572 -1.7846
   44MOL   H31414160   5.562   4.594   3.513 -0.2402 -0.0822 -1.8179
   44MOL   H31514161   5.536   4.422   3.698 -0.1156 -1.1824  0.6685
   44MOL   H31614162   5.378   4.376   3.646 -1.1525  2.6546 -1.3562
   44MOL   H31714163   5.285   4.594   3.699 -0.3299  0.5243  0.4865
   44MOL   H31814164   5.450   4.651   3.754  0.4865 -0.9679  1.3961
   44MOL   H31914165   5.361   4.525   3.838  0.2539  1.7376  1.2748
   44MOL   H32014166   5.522   4.582   3.115 -0.1762 -2.0164 -0.7694
   44MOL   H32114167   5.618   4.527   3.254 -1.6991 -2.6067  3.1621
   44MOL   H32214168   5.487   4.431   3.199  2.1960 -0.5408 -2.7301
   45MOL     C114169   7.694   0.289   6.526 -0.3442 -0.1158 -0.7474
   45MOL     O214170   7.625   0.338   6.644 -0.4100 -0.3663  0.2742
   45MOL     C314171   7.481   0.334   6.625  0.0867 -0.1624  0.0008
   45MOL     C414172   7.415   0.408   6.737 -0.0341  0.4711 -0.5680
   45MOL     C514173   7.441   0.354   6.874 -0.0504 -0.6265  0.6286
   45MOL     C614174   0.009   0.296   6.584  0.4243 -0.4394  0.5269
   45MOL     H714175   7.671   0.350   6.439  1.7125  0.8380 -0.6692
   45MOL     H814176   7.452   0.369   6.526  0.6132 -0.8231 -0.3855
   45MOL     H914177   7.444   0.232   6.628 -1.3205  0.2889 -1.1847
   45MOL    H1014178   7.309   0.411   6.711 -0.0369  1.3653 -0.4910
   45MOL    H1114179   7.454   0.509   6.752  0.4061  0.1829  0.2548
   45MOL    H1214180   7.360   0.382   6.942 -0.2957 -0.8502  0.4322
   45MOL    H1314181   7.536   0.389   6.915 -2.0214  2.8585  2.4523
   45MOL    H1414182   7.434   0.245   6.873  1.4347 -0.7233 -0.3728
   45MOL    H1514183   0.025   0.394   6.628  0.8791  1.5821 -3.8747
   45MOL    H1614184   0.011   0.219   6.661 -0.5719 -0.5618  0.4406
   45MOL    H1714185   7.660   0.188   6.502  2.4529 -1.7923  1.9447
   45MOL    C1814186   0.130   0.278   6.492 -0.2176 -0.8445 -0.3334
   45MOL    O1914187   0.126   0.392   6.397  0.8169  0.6182 -0.5925
   45MOL    C2014188   0.171   0.366   6.275 -0.1380  0.3292  0.1703
   45MOL    C2114189   0.180   0.499   6.202 -0.3126 -0.6307  0.6038
   45MOL    C2214190   0.302   0.500   6.105 -0.3018  0.3180  0.7295
   45MOL    C2314191   0.259   0.276   6.577 -0.3884  0.1517 -0.1442
   45MOL    H2414192   0.128   0.178   6.450 -0.5481 -1.1812  0.4680
   45MOL    H2514193   0.265   0.314   6.287 -0.4556 -1.0073 -2.7402
   45MOL    H2614194   0.105   0.299   6.219  0.1210  0.0624  0.1857
   45MOL    H2714195   0.203   0.571   6.281 -1.4866  0.4254  0.0104
   45MOL    H2814196   0.076   0.509   6.171 -0.6551 -0.2622  1.8557
   45MOL    H2914197   0.285   0.442   6.014  0.8770 -0.6014  1.0755
   45MOL    H3014198   0.387   0.455   6.156 -1.1276 -0.1800  1.6715
   45MOL    H3114199   0.321   0.604   6.078 -2.0532  0.4671 -0.0202
   45MOL    H3214200   0.326   0.289   6.492  1.2776  0.2832  1.1734
   45MOL    H3314201   0.276   0.370   6.629 -1.4388 -0.4300  1.2949
   45MOL    C3414202   0.292   0.160   6.665  0.2951  0.3881  0.1760
   45MOL    O3514203   0.316   0.048   6.582 -0.0771  0.0136 -0.5318
   45MOL    C3614204   0.333   7.751   6.637  0.2845  0.2699  0.1516
   45MOL    C3714205   0.318   7.653   6.529  0.7785 -0.0788 -1.0164
   45MOL    C3814206   0.346   7.514   6.588  0.4799  0.1715 -0.5584
   45MOL    C3914207   0.417   0.195   6.747  0.2574 -0.0600 -0.1042
   45MOL    H4014208   0.210   0.144   6.734 -1.0484  1.1953 -1.1890
   45MOL    H4114209   0.425   7.740   6.693 -0.6144 -2.8828  1.1139
   45MOL    H4214210   0.251   7.734   6.706  0.2124 -1.5503 -0.3607
   45MOL    H4314211   0.386   7.685   6.450  1.0847  0.7518 -0.4148
   45MOL    H4414212   0.217   7.653   6.487 -1.0448  1.5226  3.1502
   45MOL    H4514213   0.273   7.486   6.664  2.0773 -2.7211 -0.0134
   45MOL    H4614214   0.448   7.500   6.624 -0.0751  1.0395  1.4155
   45MOL    H4714215   0.348   7.447   6.502 -3.7749  0.3489 -0.9027
   45MOL    H4814216   0.453   0.106   6.798  0.9852  1.2307  1.6743
   45MOL    H4914217   0.499   0.211   6.678 -0.9568  1.1196 -1.3123
   45MOL    C5014218   0.396   0.299   6.859 -0.6762 -0.1697  0.7245
   45MOL    O5114219   0.281   0.265   6.927  0.4466  0.3676  0.3020
   45MOL    C5214220   0.181   0.368   6.935  0.7789 -0.0056 -0.1078
   45MOL    C5314221   0.070   0.333   7.034  0.7676  0.7103  0.0942
   45MOL    C5414222   7.819   0.213   6.976 -0.2205 -0.2196 -0.0757
   45MOL    C5514223   0.507   0.311   6.966 -0.3741  0.1773  0.4106
   45MOL    H5614224   0.384   0.393   6.806  2.3396  0.2961  0.7335
   45MOL    H5714225   0.227   0.456   6.979 -0.3812  0.1778  0.7465
   45MOL    H5814226   0.137   0.395   6.839 -0.2109  1.6240  0.7931
   45MOL    H5914227   0.003   0.418   7.051  2.3723  1.9971  0.1429
   45MOL    H6014228   0.114   0.296   7.126 -1.1903 -2.9859 -0.3703
   45MOL    H6114229   7.756   0.168   7.053  0.1250  0.9600  0.9147
   45MOL    H6214230   0.050   0.130   6.936 -0.8490 -0.9022  0.3971
   45MOL    H6314231   7.759   0.245   6.891 -0.5735 -0.6179  0.0168
   45MOL    H6414232   0.516   0.213   7.011 -1.3633 -1.3573 -2.6085
   45MOL    H6514233   0.603   0.321   6.916 -1.5180 -0.7674 -2.0333
   45MOL    C6614234   0.497   0.422   7.065  0.5091 -0.2398  0.4097
   45MOL    O6714235   0.610   0.385   7.146 -0.3418 -0.3263 -0.4669
   45MOL    C6814236   0.571   0.309   7.261  0.3125  0.4000 -0.1075
   45MOL    C6914237   0.703   0.273   7.339 -0.1292  0.0009  0.1071
   45MOL    C7014238   0.755   0.398   7.406  0.0732 -0.0700 -0.6752
   45MOL    C7114239   0.545   0.557   7.006  0.3743 -0.3639  0.0088
   45MOL    H7214240   0.402   0.426   7.117  0.0461 -1.6695 -0.3184
   45MOL    H7314241   0.510   0.369   7.329  1.5318  0.6943  0.7460
   45MOL    H7414242   0.522   0.214   7.241  0.3946  0.1003  1.0494
   45MOL    H7514243   0.777   0.239   7.267 -1.6891 -1.8596 -0.6722
   45MOL    H7614244   0.674   0.194   7.408 -2.2101 -0.7863 -1.6256
   45MOL    H7714245   0.672   0.452   7.451 -0.3036 -0.5934 -0.7271
   45MOL    H7814246   0.810   0.455   7.332  0.5507  1.2274  0.6664
   45MOL    H7914247   0.826   0.373   7.485 -0.0852  3.5997  0.7285
   45MOL    H8014248   0.648   0.548   6.971  0.8183  1.2848  0.8406
   45MOL    H8114249   0.480   0.565   6.919 -1.5282  0.5035  1.4840
   45MOL    C8214250   0.526   0.683   7.094  0.3373 -0.0461 -0.1699
   45MOL    O8314251   0.397   0.701   7.151 -0.3550 -0.1229  0.2130
   45MOL    C8414252   0.295   0.767   7.069 -0.0551 -0.1194 -0.3131
   45MOL    C8514253   0.170   0.800   7.146  0.4578 -0.6566 -0.2965
   45MOL    C8614254   0.120   0.672   7.221 -0.2015  0.3622 -0.9814
   45MOL    C8714255   0.636   0.699   7.203 -0.6436  0.0839  0.2756
   45MOL    H8814256   0.541   0.760   7.018  0.0047 -0.3122 -0.5138
   45MOL    H8914257   0.314   0.868   7.034  1.8890 -0.3485  0.0740
   45MOL    H9014258   0.275   0.695   6.990  0.6566 -1.4631  0.7152
   45MOL    H9114259   0.089   0.838   7.084  0.3702  0.9478  0.7728
   45MOL    H9214260   0.196   0.870   7.225  2.6125 -3.1862  1.3484
   45MOL    H9314261   0.192   0.622   7.286 -0.3143  0.4083 -0.8203
   45MOL    H9414262   0.090   0.598   7.147 -1.5799  0.3105 -0.3799
   45MOL    H9514263   0.042   0.688   7.295 -0.4717  0.4896 -1.2956
   45MOL    H9614264   0.597   0.773   7.272  0.5111  1.3891 -0.4359
   45MOL    H9714265   0.644   0.604   7.256 -1.6121 -1.1031 -1.6382
   45MOL    C9814266   0.776   0.745   7.152 -0.7004  0.7247  0.1759
   45MOL    O9914267   0.775   0.874   7.088 -0.4003 -0.0983  0.3512
   45MOL   C10014268   0.790   0.869   6.947  0.4062 -1.5053  0.1171
   45MOL   C10114269   0.760   1.008   6.898  0.2774 -0.2334  0.0002
   45MOL   C10214270   0.871   1.119   6.904 -0.4801 -0.0607 -0.0585
   45MOL   C10314271   0.876   0.757   7.265  0.4417  0.4431  0.7791
   45MOL   H10414272   0.820   0.670   7.087  3.5433  1.5904  1.8761
   45MOL   H10514273   0.888   0.834   6.916  0.6908  0.6626 -1.5578
   45MOL   H10614274   0.719   0.800   6.901 -0.1211 -1.6049  1.0642
   45MOL   H10714275   0.683   1.053   6.961  1.8715  1.2316  0.9134
   45MOL   H10814276   0.711   1.007   6.801 -2.2122 -0.6222  1.2229
   45MOL   H10914277   0.839   1.201   6.840 -2.8023 -0.4835  0.5282
   45MOL   H11014278   0.967   1.084   6.864 -0.1194 -0.0205  0.7668
   45MOL   H11114279   0.888   1.153   7.006 -1.2124 -1.0658  0.4178
   45MOL   H11214280   0.830   0.838   7.322 -0.5201  0.7943 -0.4545
   45MOL   H11314281   0.866   0.676   7.336  0.4659  1.2085  1.6590
   45MOL   C11414282   1.020   0.805   7.225  0.2172 -0.7634  0.6536
   45MOL   O11514283   1.051   0.926   7.299 -0.1695 -0.4211  0.0450
   45MOL   C11614284   1.040   1.049   7.223 -0.4373  0.3676  0.1303
   45MOL   C11714285   1.078   1.177   7.296  0.4531 -0.4004  0.5433
   45MOL   C11814286   1.230   1.190   7.322  0.7535 -0.7028 -0.4659
   45MOL   C11914287   1.134   0.698   7.259  0.3763 -0.6482 -0.2693
   45MOL   H12014288   1.020   0.820   7.117  1.8649 -2.8588  0.3447
   45MOL   H12114289   1.096   1.029   7.132  1.4664  0.4037  1.2839
   45MOL   H12214290   0.933   1.043   7.199 -0.7590 -3.0530  2.1760
   45MOL   H12314291   1.032   1.199   7.393  2.6579  1.9345  1.1205
   45MOL   H12414292   1.054   1.264   7.235 -1.0298 -1.8479 -0.9716
   45MOL   H12514293   1.253   1.121   7.403  0.4829  0.1513  0.3445
   45MOL   H12614294   1.249   1.292   7.356 -1.0570 -0.3960 -0.3345
   45MOL   H12714295   1.288   1.187   7.229 -0.6757 -1.3577 -1.3603
   45MOL   H12814296   1.213   0.745   7.199  0.8263 -0.0279  0.7961
   45MOL   H12914297   1.156   0.707   7.365  1.2781  2.2524 -0.6417
   45MOL   C13014298   1.113   0.560   7.198 -0.1404  0.0759 -1.0730
   45MOL   O13114299   1.071   0.552   7.060 -0.1893 -0.1629  0.4634
   45MOL   C13214300   0.998   0.438   7.029  0.2688 -0.1749  0.3039
   45MOL   C13314301   0.949   0.448   6.887 -0.0498  0.1421 -0.0129
   45MOL   C13414302   0.882   0.322   6.835  0.0811  0.1459 -0.5774
   45MOL   C13514303   1.244   0.475   7.210 -0.4106 -0.0090  0.1444
   45MOL   H13614304   1.034   0.517   7.260  3.0470 -1.8533  1.8451
   45MOL   H13714305   1.061   0.349   7.038  0.3096 -0.0239  1.5917
   45MOL   H13814306   0.917   0.426   7.101  2.0324 -0.2937  2.3169
   45MOL   H13914307   1.035   0.461   6.821  0.7034 -1.3162  0.6538
   45MOL   H14014308   0.884   0.535   6.878  1.1871  1.1507  0.6522
   45MOL   H14114309   0.960   0.265   6.786 -1.0284 -1.2048 -0.8189
   45MOL   H14214310   0.802   0.356   6.769 -1.1484 -1.3795  0.0822
   45MOL   H14314311   0.838   0.274   6.923  0.4415  0.5427 -0.1771
   45MOL   H14414312   1.243   0.406   7.125  1.0178  1.9102 -1.4665
   45MOL   H14514313   1.323   0.547   7.195  0.8038 -1.4136 -0.3453
   45MOL   C14614314   1.262   0.385   7.336  0.2251  0.4846 -0.0806
   45MOL   O14714315   1.317   0.465   7.444  0.1010 -0.2133  0.9825
   45MOL   C14814316   1.462   0.476   7.455  0.0616 -0.0903 -0.6189
   45MOL   C14914317   1.492   0.541   7.588  0.3721  0.3937  0.7547
   45MOL   C15014318   1.638   0.530   7.630 -0.1449  0.8229  0.0408
   45MOL   C15114319   1.136   0.313   7.375 -0.5206  0.5791  0.3087
   45MOL   H15214320   1.329   0.308   7.298  1.6166  2.2932 -1.3897
   45MOL   H15314321   1.517   0.382   7.456 -0.3176 -0.3151  0.9547
   45MOL   H15414322   1.508   0.543   7.382 -1.7818  1.1978 -0.6342
   45MOL   H15514323   1.433   0.480   7.656  0.5301 -0.7605 -0.1215
   45MOL   H15614324   1.455   0.641   7.611 -0.3725  0.2265  0.2850
   45MOL   H15714325   1.639   0.553   7.736  1.7030 -1.0346  0.4622
   45MOL   H15814326   1.706   0.595   7.576  0.6341 -1.2087 -1.5218
   45MOL   H15914327   1.679   0.431   7.609 -0.8509  0.0613  2.1052
   45MOL   H16014328   1.068   0.384   7.422 -0.6247  0.5508  0.2009
   45MOL   H16114329   1.081   0.264   7.295 -1.2705  0.3790  0.9370
   45MOL   C16214330   1.180   0.193   7.472  0.2581  0.3317 -0.2659
   45MOL   O16314331   1.094   0.184   7.588 -0.0039  0.2303  0.8487
   45MOL   C16414332   1.147   0.109   7.698 -0.1043  0.5962 -0.6457
   45MOL   C16514333   1.046   0.117   7.819 -0.3631  0.0862  0.1706
   45MOL   C16614334   1.034   0.262   0.036  0.1778 -0.5681 -0.5277
   45MOL   C16714335   1.183   0.056   7.392 -0.2254  0.2444  0.0120
   45MOL   H16814336   1.280   0.209   7.513  0.9445 -0.6232 -1.5055
   45MOL   H16914337   1.170   0.004   7.682  1.3619  1.0000 -1.1895
   45MOL   H17014338   1.242   0.152   7.730 -1.0194  0.9586  1.7026
   45MOL   H17114339   1.073   0.051   0.073 -3.1161  0.7324  1.6659
   45MOL   H17214340   0.950   0.075   7.786 -0.9253 -0.5052  2.4556
   45MOL   H17314341   1.137   0.285   0.063  0.4565 -0.5938 -1.5147
   45MOL   H17414342   0.973   0.275   0.125  1.6663 -2.9420  0.9241
   45MOL   H17514343   1.012   0.335   7.786  1.7598 -1.3427 -1.7437
   45MOL   H17614344   1.167   7.803   7.462  0.2268 -0.1558 -0.3469
   45MOL   H17714345   1.095   0.054   7.326  1.3450 -0.5600 -2.1105
   45MOL   C17814346   1.303   0.029   7.301 -0.2120  0.1564 -0.8950
   45MOL   O17914347   1.408   7.827   7.389  0.3173  0.5900 -0.6339
   45MOL   C18014348   1.531   0.028   7.332 -0.2886 -0.1101  0.0338
   45MOL   C18114349   1.643   7.817   7.429  0.3059  0.0311  0.5761
   45MOL   C18214350   1.683   0.095   7.538 -0.4994 -0.3278 -0.1975
   45MOL   C18314351   1.275   7.732   7.221  0.3547  0.2911 -0.2174
   45MOL   H18414352   1.318   0.113   7.234  2.3322  1.7433  1.5587
   45MOL   H18514353   1.546   7.797   7.241  0.9530  0.1822  0.0507
   45MOL   H18614354   1.542   0.131   7.297 -2.6619 -0.1568 -0.9801
   45MOL   H18714355   1.733   7.817   7.367 -0.8178  4.2228 -1.1940
   45MOL   H18814356   1.638   7.719   7.476  1.5313 -1.3331 -2.0374
   45MOL   H18914357   1.636   0.074   7.634  2.2439  1.2899  1.5682
   45MOL   H19014358   1.672   0.201   7.515 -0.9423 -1.0054 -3.2548
   45MOL   H19114359   1.788   0.097   7.564 -1.4072 -1.5300  3.9467
   45MOL   H19214360   1.359   7.669   7.191  1.4571  2.4287 -1.7100
   45MOL   H19314361   1.210   7.665   7.278 -0.0268  0.8153 -0.0373
   45MOL   C19414362   1.219   7.777   7.074  0.3948 -0.2805  0.3899
   45MOL   O19514363   1.310   0.029   7.000 -0.4184  0.0350  0.2756
   45MOL   C19614364   1.252   0.130   6.917  0.1985 -0.7535  0.0306
   45MOL   C19714365   1.366   0.212   6.859  0.1486 -0.8869  0.1900
   45MOL   C19814366   1.314   0.349   6.801  0.1683  0.0046  0.0106
   45MOL   C19914367   1.164   7.652   6.995  0.1679  0.3637 -0.1293
   45MOL   H20014368   1.131   0.010   7.095  0.9692  1.6528 -2.5579
   45MOL   H20114369   1.193   0.095   6.832  1.3788 -3.3997  0.2271
   45MOL   H20214370   1.199   0.189   6.991  3.0516  1.0971  0.6848
   45MOL   H20314371   1.423   0.163   6.779  0.2005 -1.3929  0.5366
   45MOL   H20414372   1.428   0.241   6.944 -0.9427 -0.5541  0.8682
   45MOL   H20514373   1.321   0.420   6.883  0.7531 -2.3060  2.0017
   45MOL   H20614374   1.214   0.352   6.759  0.0670 -0.9237  0.1820
   45MOL   H20714375   1.375   0.375   6.714  0.8511 -4.0254 -0.7964
   45MOL   H20814376   1.157   7.670   6.888 -1.6760 -1.2040 -0.2848
   45MOL   H20914377   1.255   7.592   7.002  0.7888  1.2958  0.0517
   45MOL   C21014378   1.035   7.593   7.049  0.2054 -0.4476 -0.4911
   45MOL   O21114379   0.940   7.679   6.996 -0.0711  0.1750 -0.2505
   45MOL   C21214380   0.807   7.687   7.061 -0.9534 -0.8137 -0.5435
   45MOL   C21314381   0.730   7.785   6.975 -0.4446 -0.0935 -0.7854
   45MOL   C21414382   0.698   7.743   6.837  0.0166  0.4120  0.0269
   45MOL   C21514383   1.016   7.449   6.993 -1.4653  0.3179  0.3560
   45MOL   H21614384   1.037   7.593   7.158 -0.8263  1.5710 -0.4591
   45MOL   H21714385   0.759   7.590   7.066 -1.2552 -0.6072  0.9799
   45MOL   H21814386   0.804   7.718   7.166  0.3611  0.3628 -0.8411
   45MOL   H21914387   0.782   0.052   6.964 -0.5628 -0.0082 -0.6261
   45MOL   H22014388   0.635   7.814   7.020  0.1015  1.4690 -0.6167
   45MOL   H22114389   0.793   7.713   6.793  1.4502 -0.9754  3.8247
   45MOL   H22214390   0.681   7.823   6.766 -3.3233  0.0738  0.3891
   45MOL   H22314391   0.628   7.662   6.817 -0.1813  0.7655 -0.6827
   45MOL   H22414392   1.090   7.381   7.034 -2.0799  0.0454  1.0176
   45MOL   H22514393   0.926   7.412   7.042  0.0821 -2.1978  1.4121
   45MOL   C22614394   1.007   7.430   6.838 -1.0855  0.7503  0.6194
   45MOL   O22714395   1.134   7.448   6.765  0.7700  0.5336 -0.0651
   45MOL   C22814396   1.119   7.460   6.623 -0.4932  0.3873 -0.1091
   45MOL   C22914397   1.260   7.492   6.573  0.4099  0.9718 -0.0855
   45MOL   C23014398   1.299   7.632   6.602  0.4958  0.5487 -0.9912
   45MOL   C23114399   0.953   7.283   6.807  0.3946  0.0885 -0.3257
   45MOL   H23214400   0.928   7.494   6.800 -1.8469 -0.0718  0.7907
   45MOL   H23314401   1.086   7.362   6.588 -0.4561  0.5343 -0.5706
   45MOL   H23414402   1.044   7.534   6.595 -0.2635  0.0864 -1.6091
   45MOL   H23514403   1.261   7.470   6.467  3.3711  1.8617 -0.2677
   45MOL   H23614404   1.328   7.421   6.620 -0.7190  0.1361  0.3073
   45MOL   H23714405   1.385   7.661   6.542  0.5254  1.0597 -0.7077
   45MOL   H23814406   1.325   7.636   6.708 -2.1458 -1.0475 -0.2342
   45MOL   H23914407   1.213   7.696   6.581 -0.9767 -1.1506 -0.2565
   45MOL   H24014408   0.944   7.277   6.699 -0.9130 -0.1161 -0.2205
   45MOL   H24114409   1.036   7.218   6.836 -1.8154 -2.5679  0.3352
   45MOL   C24214410   0.818   7.229   6.870 -0.0207  0.1687  0.2455
   45MOL   O24314411   0.846   7.200   7.006 -0.6360 -1.0467 -0.0610
   45MOL   C24414412   0.931   7.096   7.033  0.2897 -0.1267  0.3474
   45MOL   C24514413   0.929   7.086   7.182  0.0313  0.0482  0.6114
   45MOL   C24614414   1.012   6.971   7.243 -0.3312  0.0445 -0.0520
   45MOL   C24714415   0.687   7.324   6.862 -0.0244 -0.0065 -0.2268
   45MOL   H24814416   0.794   7.132   6.827  0.6449 -0.1910  0.6688
   45MOL   H24914417   0.898   7.004   6.983 -3.5638 -0.9495  4.0920
   45MOL   H25014418   1.036   7.119   7.016  0.5589 -0.7971  1.0922
   45MOL   H25114419   0.826   7.082   7.217  0.0562  1.3471  0.8493
   45MOL   H25214420   0.961   7.179   7.229 -2.7134  0.9505  0.7949
   45MOL   H25314421   0.987   6.972   7.350 -0.7246 -0.4858 -0.1367
   45MOL   H25414422   1.119   6.971   7.221  0.1714  0.4533  2.2497
   45MOL   H25514423   0.981   6.873   7.207 -1.5513  0.2772  0.3344
   45MOL   H25614424   0.729   7.418   6.897 -2.3429  1.3034 -0.9340
   45MOL   H25714425   0.671   7.342   6.756  3.6111  1.3454 -0.6136
   45MOL   C25814426   0.555   7.288   6.934 -0.0915 -0.2002 -0.4271
   45MOL   O25914427   0.477   7.408   6.918 -0.5442 -0.4550 -0.4304
   45MOL   C26014428   0.377   7.415   7.007  0.2628 -0.2923 -0.1486
   45MOL   C26114429   0.329   7.551   7.033  0.6613  0.8785 -0.4159
   45MOL   C26214430   0.427   7.641   7.114 -0.0021 -0.1063 -0.5276
   45MOL   C26314431   0.477   7.170   6.867  0.1842 -0.5857  0.5768
   45MOL   H26414432   0.599   7.263   7.031 -2.5460 -0.5407  0.6411
   45MOL   H26514433   0.302   7.352   6.958  0.7015  0.6005 -2.0300
   45MOL   H26614434   0.388   7.379   7.109 -1.8427  0.2362  0.2897
   45MOL   H26714435   0.235   7.541   7.087  2.1094  2.5852  2.5746
   45MOL   H26814436   0.309   7.609   6.943  0.4416 -0.1113 -1.0066
   45MOL   H26914437   0.526   7.646   7.071  1.2795 -2.7444  1.9666
   45MOL   H27014438   0.425   7.608   7.218 -2.6095 -0.3990 -0.6293
   45MOL   H27114439   0.393   7.744   7.104  1.0181  0.2440 -0.4589
   45MOL   H27214440   0.382   7.207   6.828  0.8247  0.0013 -0.4751
   45MOL   H27314441   0.516   7.122   6.777 -0.4393  0.3625 -0.2073
   45MOL   C27414442   0.442   7.056   6.962  0.7444  0.2050 -0.6072
   45MOL   O27514443   0.362   6.963   6.892  0.3467  0.0193  0.4691
   45MOL   C27614444   0.224   6.960   6.916 -0.6797  0.2726 -0.3709
   45MOL   C27714445   0.173   6.857   6.819 -0.3323 -0.5763 -0.2963
   45MOL   C27814446   0.189   6.902   6.667  0.2103 -0.1323 -0.6146
   45MOL   C27914447   0.563   6.975   7.012 -0.3918  0.6070 -0.1711
   45MOL   H28014448   0.385   7.092   7.047  3.7324  3.2192  0.2195
   45MOL   H28114449   0.201   6.935   7.020  1.3435  1.2450  0.3365
   45MOL   H28214450   0.181   7.056   6.888 -0.8652  0.6468  1.1667
   45MOL   H28314451   0.067   6.843   6.842 -0.8900  2.0976 -1.1258
   45MOL   H28414452   0.217   6.760   6.844 -0.0614 -0.1808  0.8351
   45MOL   H28514453   0.148   6.819   6.610 -1.6408  0.7422 -0.5945
   45MOL   H28614454   0.293   6.923   6.642 -0.1613  0.7175 -1.4691
   45MOL   H28714455   0.129   6.990   6.643  0.0393  0.1362  0.7455
   45MOL   H28814456   0.611   6.921   6.931  1.4786 -1.3995  2.2192
   45MOL   H28914457   0.645   7.037   7.049 -0.2198  1.2944 -1.6471
   45MOL   C29014458   0.538   6.879   7.129 -0.2578  0.3042  0.5658
   45MOL   O29114459   0.659   6.806   7.151  0.2964  0.0890 -0.1552
   45MOL   C29214460   0.664   6.682   7.080  0.0723  0.2120  0.0548
   45MOL   C29314461   0.780   6.592   7.144  0.6370 -0.3969 -1.3046
   45MOL   C29414462   0.755   6.561   7.290  0.1706 -0.3719 -0.4209
   45MOL   C29514463   0.505   6.956   7.260  0.7575 -0.4799  0.2448
   45MOL   H29614464   0.465   6.808   7.090  1.2529 -0.1543 -1.5359
   45MOL   H29714465   0.583   6.612   7.100 -0.5736  0.8369 -0.3537
   45MOL   H29814466   0.683   6.693   6.974  1.6009  0.0288  0.2908
   45MOL   H29914467   0.876   6.643   7.136  0.0831  0.6439 -1.4017
   45MOL   H30014468   0.785   6.493   7.098 -0.4742 -0.8456 -0.4797
   45MOL   H30114469   0.663   6.503   7.298  0.7817 -1.0764  1.6866
   45MOL   H30214470   0.753   6.652   7.349 -0.5379  0.2206 -1.3431
   45MOL   H30314471   0.827   6.488   7.325  1.1853  1.9910  2.5948
   45MOL   H30414472   0.577   7.037   7.278  0.0526 -0.1279  1.5930
   45MOL   H30514473   0.414   7.016   7.259  1.0351 -0.0240  0.9580
   45MOL   C30614474   0.496   6.867   7.389 -0.7044  0.7420  0.1088
   45MOL   O30714475   0.463   6.942   7.508 -0.1482  0.8513  0.0038
   45MOL   C30814476   0.571   7.024   7.557  0.0458  0.1648 -0.8197
   45MOL   C30914477   0.531   7.066   7.697 -0.7192  0.0027  0.2261
   45MOL   C31014478   0.432   7.184   7.692 -0.2620 -0.4063 -0.1108
   45MOL   C31114479   0.390   6.759   7.373 -0.5429 -0.5659  0.7681
   45MOL   H31214480   0.592   6.818   7.406 -2.1999 -2.8640 -1.2805
   45MOL   H31314481   0.661   6.962   7.551  0.8408  1.4328 -2.4750
   45MOL   H31414482   0.582   7.111   7.492  0.6035  0.1256 -0.7824
   45MOL   H31514483   0.616   7.105   7.754 -0.5337  1.0439 -0.7417
   45MOL   H31614484   0.496   6.982   7.756  1.4790 -1.1122 -0.0009
   45MOL   H31714485   0.480   7.268   7.641 -2.5657  1.0681  0.0401
   45MOL   H31814486   0.384   7.215   7.785  0.9789  0.8686  0.1180
   45MOL   H31914487   0.348   7.149   7.631 -2.0198 -0.4796  2.2768
   45MOL   H32014488   0.374   6.703   7.466  1.1122 -2.8567 -0.2935
   45MOL   H32114489   0.295   6.796   7.335  0.4565  1.2449  0.0329
   45MOL   H32214490   0.428   6.689   7.299 -1.9500  0.4292 -0.9312
   46MOL     C114491   5.108   1.158   3.328  0.2723  1.1880  0.1176
   46MOL     O214492   5.064   1.022   3.338 -0.6222 -0.0094 -0.1801
   46MOL     C314493   5.158   0.927   3.289  0.4263 -0.8854  0.4594
   46MOL     C414494   5.112   0.789   3.329  0.3440  0.1259 -0.5827
   46MOL     C514495   5.140   0.770   3.472 -0.0945  0.1896 -1.0711
   46MOL     C614496   5.005   1.252   3.388  0.4136  0.1966  0.1725
   46MOL     H714497   5.101   1.179   3.221 -1.7869 -0.9859 -0.1995
   46MOL     H814498   5.164   0.936   3.180 -1.3492  0.5448  0.4569
   46MOL     H914499   5.255   0.957   3.328  0.3285 -0.1238  0.1219
   46MOL    H1014500   5.151   0.701   3.279 -2.5152 -1.0468 -0.8347
   46MOL    H1114501   5.004   0.778   3.322  0.2704 -0.9314  1.7655
   46MOL    H1214502   5.100   0.680   3.518  2.9450 -0.9485 -0.5720
   46MOL    H1314503   5.090   0.854   3.522  0.8117  0.4475 -0.5778
   46MOL    H1414504   5.243   0.787   3.503  0.5897 -1.4899 -2.3785
   46MOL    H1514505   4.996   1.336   3.318  2.4457  0.4801  0.2004
   46MOL    H1614506   4.918   1.187   3.392  1.1413 -0.7650  0.4772
   46MOL    H1714507   5.209   1.174   3.366  0.4687 -1.7930  0.9654
   46MOL    C1814508   5.047   1.294   3.529  0.4092  0.2432  0.4567
   46MOL    O1914509   5.158   1.382   3.518  0.2530  0.1616  0.2860
   46MOL    C2014510   5.234   1.396   3.636  0.1973  0.6764  0.4081
   46MOL    C2114511   5.335   1.508   3.609  0.1854  0.3335  0.3442
   46MOL    C2214512   5.446   1.473   3.512  0.1884  0.1037  0.4492
   46MOL    C2314513   4.932   1.368   3.609 -0.0335  0.2670  0.5285
   46MOL    H2414514   5.072   1.206   3.588 -1.2620 -0.2026  0.5266
   46MOL    H2514515   5.173   1.432   3.719  1.4091 -1.9854  2.5108
   46MOL    H2614516   5.281   1.303   3.667 -0.1019  0.2254 -0.4680
   46MOL    H2714517   5.387   1.547   3.697 -0.5244 -0.5359  1.1693
   46MOL    H2814518   5.271   1.586   3.568 -1.3021  0.4153  2.7076
   46MOL    H2914519   5.516   1.407   3.564 -1.4509  0.6749  3.4835
   46MOL    H3014520   5.494   1.557   3.461  1.3181  0.0548  1.4028
   46MOL    H3114521   5.399   1.407   3.439  0.2244 -0.3962  0.8737
   46MOL    H3214522   4.960   1.408   3.707  0.1595 -3.0582  1.9096
   46MOL    H3314523   4.902   1.451   3.545  0.5176  0.9298  1.1154
   46MOL    C3414524   4.804   1.284   3.627 -0.1268  0.4262  0.0534
   46MOL    O3514525   4.839   1.189   3.722 -0.0976 -0.3411 -1.2870
   46MOL    C3614526   4.782   1.063   3.699 -0.2211  0.2262  0.1694
   46MOL    C3714527   4.826   0.957   3.808 -0.8053 -0.1767  0.1637
   46MOL    C3814528   4.982   0.949   3.818  0.1999  0.1395  0.6619
   46MOL    C3914529   4.690   1.365   3.685 -0.2131  0.0982 -0.2089
   46MOL    H4014530   4.774   1.234   3.535 -2.0233  3.0486 -0.8135
   46MOL    H4114531   4.676   1.082   3.712 -0.4754 -0.4985 -0.8175
   46MOL    H4214532   4.809   1.034   3.598 -1.5008 -2.0413  0.4604
   46MOL    H4314533   4.772   0.865   3.789  2.2275 -2.3330  1.5730
   46MOL    H4414534   4.788   0.996   3.902 -0.4500  1.7531 -0.4750
   46MOL    H4514535   5.013   1.049   3.847 -0.9624  1.1945 -1.6167
   46MOL    H4614536   5.021   0.930   3.718 -1.6181 -0.9655  0.1311
   46MOL    H4714537   5.017   0.864   3.877 -1.0172 -1.4776 -0.8719
   46MOL    H4814538   4.634   1.288   3.738 -0.2540 -0.8769 -1.6246
   46MOL    H4914539   4.731   1.432   3.761 -1.7274  1.1009 -0.2694
   46MOL    C5014540   4.616   1.448   3.574 -0.3040  1.0740  0.0873
   46MOL    O5114541   4.543   1.356   3.497  0.1045  0.3594  0.1990
   46MOL    C5214542   4.525   1.393   3.359 -0.2559 -1.1543 -0.2212
   46MOL    C5314543   4.422   1.291   3.303 -0.4691 -0.3769 -0.3942
   46MOL    C5414544   4.484   1.159   3.292  0.0053  0.7714  0.0904
   46MOL    C5514545   4.518   1.543   3.633 -0.1256  0.1785 -0.7172
   46MOL    H5614546   4.681   1.496   3.501  1.1450 -0.2694  0.4637
   46MOL    H5714547   4.477   1.490   3.347  1.0076 -0.3617  0.9213
   46MOL    H5814548   4.613   1.395   3.294  0.9498  0.4041  1.3916
   46MOL    H5914549   4.393   1.328   3.204  0.4138  0.1181 -0.4733
   46MOL    H6014550   4.326   1.294   3.355 -0.7964 -3.0017 -0.7873
   46MOL    H6114551   4.440   1.089   3.221  1.6086 -0.7280  0.5508
   46MOL    H6214552   4.507   1.118   3.390 -0.2448  0.5151  0.0405
   46MOL    H6314553   4.580   1.169   3.241  0.3754 -2.6931 -0.0013
   46MOL    H6414554   4.460   1.591   3.554 -2.1424 -1.1155 -0.0866
   46MOL    H6514555   4.445   1.493   3.697 -1.1394  0.9825 -1.2308
   46MOL    C6614556   4.562   1.662   3.726 -0.4318  0.7250  0.4526
   46MOL    O6714557   4.649   1.733   3.638  0.5725 -0.2716  0.0284
   46MOL    C6814558   4.736   1.834   3.684 -0.0135  0.0523 -0.1697
   46MOL    C6914559   4.825   1.895   3.583  0.4527  0.1427  0.2682
   46MOL    C7014560   4.903   2.008   3.640  0.0888 -0.2393 -0.2489
   46MOL    C7114561   4.443   1.750   3.775  0.4822 -0.3347 -0.0307
   46MOL    H7214562   4.608   1.602   3.806  0.0490 -1.5180 -1.4513
   46MOL    H7314563   4.683   1.918   3.728  1.2999  1.4847 -1.2794
   46MOL    H7414564   4.795   1.779   3.758 -2.1657 -0.8230  0.9469
   46MOL    H7514565   4.769   1.919   3.492  0.4430 -1.5298 -0.1757
   46MOL    H7614566   4.902   1.822   3.558  0.0276 -0.4060  0.5736
   46MOL    H7714567   4.992   2.030   3.582  0.7562 -1.1754  0.3968
   46MOL    H7814568   4.931   1.980   3.742 -0.3108  2.0760  0.5402
   46MOL    H7914569   4.842   2.098   3.631 -0.1549 -0.3873 -0.0957
   46MOL    H8014570   4.497   1.818   3.842  0.1611  1.0657 -1.1578
   46MOL    H8114571   4.405   1.811   3.693 -0.2135  1.5656  1.6625
   46MOL    C8214572   4.320   1.692   3.857  0.0714  0.1872  0.1183
   46MOL    O8314573   4.371   1.615   3.955  0.3639 -0.2338  0.5209
   46MOL    C8414574   4.282   1.549   4.039 -0.1850 -0.4408 -0.0887
   46MOL    C8514575   4.356   1.428   4.096 -0.1835 -0.1827 -0.1960
   46MOL    C8614576   4.406   1.327   3.986 -0.2602  0.0132  0.2614
   46MOL    C8714577   4.240   1.808   3.914  0.7291  0.6221  0.4316
   46MOL    H8814578   4.262   1.630   3.788 -0.9577  0.5182  0.6687
   46MOL    H8914579   4.236   1.617   4.110  2.5746  1.2247  0.1668
   46MOL    H9014580   4.194   1.511   3.986 -2.9107  2.5910  2.0262
   46MOL    H9114581   4.288   1.377   4.164 -0.6073  1.6433  0.7907
   46MOL    H9214582   4.443   1.456   4.156 -1.0781 -0.3457  1.2135
   46MOL    H9314583   4.322   1.283   3.931 -0.3096 -1.5477  1.5401
   46MOL    H9414584   4.454   1.239   4.029 -0.8042 -0.5836 -0.3331
   46MOL    H9514585   4.475   1.373   3.915  1.5852 -2.5082  0.3318
   46MOL    H9614586   4.170   1.763   3.984 -1.8979  1.1276 -1.7886
   46MOL    H9714587   4.312   1.862   3.976  3.3490  1.4277 -3.0865
   46MOL    C9814588   4.168   1.909   3.820  0.6503 -0.2582  0.2384
   46MOL    O9914589   4.082   1.833   3.733 -0.6270  0.4285 -0.0678
   46MOL   C10014590   4.108   1.845   3.596  0.0196 -0.1757  0.2709
   46MOL   C10114591   4.018   1.753   3.521 -0.3716  0.2034 -0.1621
   46MOL   C10214592   4.051   1.604   3.562  0.3225 -0.1276  0.0293
   46MOL   C10314593   4.086   2.016   3.887 -0.1731  0.2121  1.0422
   46MOL   H10414594   4.237   1.959   3.752  0.4381 -1.7078 -1.0511
   46MOL   H10514595   4.094   1.949   3.567  2.0857  0.1052  0.2309
   46MOL   H10614596   4.212   1.819   3.577  0.5619  1.2415  1.1876
   46MOL   H10714597   4.039   1.764   3.414  1.0950  1.2275  0.2305
   46MOL   H10814598   3.913   1.775   3.541 -0.1239  0.7853  0.4820
   46MOL   H10914599   3.977   1.530   3.529 -1.5699  1.1908  1.2648
   46MOL   H11014600   4.031   1.591   3.668 -3.0781 -0.3674 -0.5997
   46MOL   H11114601   4.150   1.562   3.542  0.4690  0.2851 -0.1153
   46MOL   H11214602   4.023   2.058   3.809 -1.1149 -1.3262  0.9349
   46MOL   H11314603   4.013   1.963   3.950 -0.3132 -0.4843  0.3054
   46MOL   C11414604   4.166   2.112   3.970  0.3211  0.5038  0.3374
   46MOL   O11514605   4.259   2.175   3.881  0.2085 -0.1139  0.1141
   46MOL   C11614606   4.392   2.181   3.932  0.0689 -0.2245  0.3093
   46MOL   C11714607   4.489   2.214   3.816 -0.6295 -0.1068  0.1612
   46MOL   C11814608   4.448   2.159   3.672  0.6357 -0.5817 -0.0327
   46MOL   C11914609   4.076   2.214   4.033  0.4203 -0.0694 -0.4352
   46MOL   H12014610   4.221   2.059   4.047  0.5875 -1.2740 -1.0359
   46MOL   H12114611   4.399   2.254   4.012  0.3314  0.6744 -0.5133
   46MOL   H12214612   4.408   2.079   3.966  0.8679 -1.2539 -2.9269
   46MOL   H12314613   4.589   2.180   3.844 -0.0581  0.5261 -1.0826
   46MOL   H12414614   4.504   2.322   3.819  0.7253 -0.2424 -1.0509
   46MOL   H12514615   4.450   2.050   3.669 -2.0482 -0.6968  1.1670
   46MOL   H12614616   4.526   2.200   3.608  0.1546  0.2365 -0.1013
   46MOL   H12714617   4.357   2.203   3.632  0.1190 -0.3135  1.4095
   46MOL   H12814618   4.052   2.286   3.955  0.4415  1.6867  1.1267
   46MOL   H12914619   3.982   2.169   4.064 -0.8786  2.9395  0.1585
   46MOL   C13014620   4.128   2.300   4.150  0.7987  0.8495 -0.0305
   46MOL   O13114621   4.027   2.395   4.186 -0.3208 -0.6258 -0.3083
   46MOL   C13214622   4.020   2.514   4.105  0.3874 -0.0257  0.4549
   46MOL   C13314623   3.923   2.617   4.170 -0.0866 -0.3481 -0.1703
   46MOL   C13414624   3.772   2.583   4.148  0.3922 -0.1545  0.4254
   46MOL   C13514625   4.162   2.223   4.285  0.3816  0.0766 -0.2949
   46MOL   H13614626   4.216   2.346   4.104  0.1811  0.5640 -1.5512
   46MOL   H13714627   4.115   2.566   4.096 -0.5969  1.6533 -0.4736
   46MOL   H13814628   3.988   2.484   4.005  1.4746  0.9953 -0.2055
   46MOL   H13914629   3.936   2.711   4.116 -1.8668 -1.2101 -2.1822
   46MOL   H14014630   3.949   2.627   4.276 -0.4858  0.2130 -0.1242
   46MOL   H14114631   3.748   2.495   4.207 -0.2165 -0.4373 -0.2440
   46MOL   H14214632   3.738   2.571   4.045  1.8159  0.8203 -0.1749
   46MOL   H14314633   3.705   2.659   4.190 -1.0254 -0.7853 -0.6600
   46MOL   H14414634   4.070   2.211   4.343  0.1985  0.3012 -0.5358
   46MOL   H14514635   4.183   2.120   4.259  2.2219  0.6713 -1.2352
   46MOL   C14614636   4.278   2.289   4.368 -0.3969 -0.3294  0.5020
   46MOL   O14714637   4.406   2.266   4.300 -0.0372 -0.3847  0.4471
   46MOL   C14814638   4.461   2.130   4.300 -0.4618 -0.5115  0.2639
   46MOL   C14914639   4.592   2.124   4.228  0.2676  0.0460 -0.2763
   46MOL   C15014640   4.664   1.990   4.232 -0.0837  0.2761 -0.2729
   46MOL   C15114641   4.262   2.436   4.403 -0.6370 -0.1735 -0.2693
   46MOL   H15214642   4.306   2.229   4.455  3.6859  0.3064 -0.2520
   46MOL   H15314643   4.476   2.098   4.403  3.2732  0.1657  0.0011
   46MOL   H15414644   4.392   2.067   4.244 -0.8947 -0.5315  0.8154
   46MOL   H15514645   4.669   2.190   4.268  0.5791 -1.4162  1.6375
   46MOL   H15614646   4.578   2.151   4.124 -1.1829  1.0118  0.1608
   46MOL   H15714647   4.663   1.948   4.333 -2.5823 -0.3904 -0.5431
   46MOL   H15814648   4.767   2.012   4.204  1.3363 -3.0471  2.0397
   46MOL   H15914649   4.618   1.917   4.166 -2.0686  0.9109  0.3607
   46MOL   H16014650   4.279   2.485   4.308 -2.6295  0.4507 -0.3425
   46MOL   H16114651   4.156   2.446   4.426 -0.1003  0.0298  2.2660
   46MOL   C16214652   4.348   2.487   4.520 -0.5173  0.5225 -0.4484
   46MOL   O16314653   4.353   2.625   4.520  0.3490  0.7419 -0.0329
   46MOL   C16414654   4.477   2.685   4.477  0.3878 -0.4011 -1.0967
   46MOL   C16514655   4.510   2.825   4.535  0.3840 -0.3924 -0.6932
   46MOL   C16614656   4.609   2.903   4.449  0.6723 -0.5492  0.1050
   46MOL   C16714657   4.289   2.448   4.659 -0.4017  0.5093  0.2011
   46MOL   H16814658   4.443   2.435   4.511  0.4391  2.0016  1.0141
   46MOL   H16914659   4.563   2.618   4.486  2.3408  2.2798  0.8730
   46MOL   H17014660   4.471   2.682   4.368  0.5900 -2.0850 -1.0823
   46MOL   H17114661   4.552   2.834   4.636  0.5635  0.0451 -0.8055
   46MOL   H17214662   4.414   2.877   4.537  0.5998 -0.0174  0.6821
   46MOL   H17314663   4.559   2.937   4.358 -0.5763 -2.7902 -0.0749
   46MOL   H17414664   4.693   2.837   4.427 -0.3410 -1.5435 -0.8696
   46MOL   H17514665   4.659   2.987   4.497  0.0288 -0.7746  1.1852
   46MOL   H17614666   4.212   2.525   4.669 -0.5924  0.0859  2.1677
   46MOL   H17714667   4.233   2.354   4.663 -0.2847  0.4244 -0.1432
   46MOL   C17814668   4.399   2.470   4.767 -0.2102  0.2613 -0.1844
   46MOL   O17914669   4.334   2.508   4.884 -0.4279  0.0368  0.2379
   46MOL   C18014670   4.330   2.651   4.905  0.0478 -0.2140  0.6103
   46MOL   C18114671   4.275   2.672   5.044  0.2743  0.0772  0.5751
   46MOL   C18214672   4.366   2.642   5.156  0.6741  0.3226 -0.1844
   46MOL   C18314673   4.458   2.335   4.805  0.0095 -0.0795 -0.3122
   46MOL   H18414674   4.484   2.529   4.732  0.2473 -0.7230 -0.7632
   46MOL   H18514675   4.423   2.704   4.881 -0.6036  0.6049 -0.1367
   46MOL   H18614676   4.260   2.700   4.837  1.0896  1.2259  0.5385
   46MOL   H18714677   4.178   2.621   5.047  0.1053  0.4356  1.3300
   46MOL   H18814678   4.263   2.780   5.049 -2.9740 -0.1811 -0.4424
   46MOL   H18914679   4.321   2.690   5.243 -0.1705 -0.0641 -0.4026
   46MOL   H19014680   4.464   2.688   5.146  0.3305  1.0886 -0.0512
   46MOL   H19114681   4.385   2.536   5.173  0.5600  0.3932  0.3837
   46MOL   H19214682   4.511   2.342   4.900 -1.1525  0.7644  0.2818
   46MOL   H19314683   4.372   2.271   4.823  0.2495 -0.9872 -2.2604
   46MOL   C19414684   4.547   2.266   4.702 -0.9928 -0.3724  0.0459
   46MOL   O19514685   4.678   2.327   4.684 -0.5056 -0.1728 -1.0046
   46MOL   C19614686   4.731   2.330   4.547 -0.4824  0.2445 -0.0307
   46MOL   C19714687   4.852   2.415   4.541  0.7904 -0.0896  0.3498
   46MOL   C19814688   4.839   2.574   4.550  0.0878 -0.2554  0.0187
   46MOL   C19914689   4.588   2.123   4.740 -0.0181  0.5772  0.3425
   46MOL   H20014690   4.500   2.253   4.605 -0.1627 -2.7358 -0.0982
   46MOL   H20114691   4.755   2.229   4.516  1.7775  0.9859 -0.8057
   46MOL   H20214692   4.658   2.382   4.485 -0.3468  0.6976  0.1861
   46MOL   H20314693   4.897   2.385   4.446  2.1482 -1.1035  1.3135
   46MOL   H20414694   4.922   2.376   4.613 -0.7115 -3.0831  0.2482
   46MOL   H20514695   4.779   2.615   4.468 -0.0380  2.0942  1.2433
   46MOL   H20614696   4.937   2.617   4.534 -0.4773  0.7748 -0.7704
   46MOL   H20714697   4.797   2.615   4.642  2.4649  0.9598  0.5903
   46MOL   H20814698   4.644   2.073   4.661 -1.9083  0.5598 -1.0078
   46MOL   H20914699   4.657   2.138   4.824 -0.4175  1.1018  0.5833
   46MOL   C21014700   4.485   2.034   4.809 -0.3507  0.5513  0.0111
   46MOL   O21114701   4.377   2.037   4.710  0.1805  0.5340 -0.4023
   46MOL   C21214702   4.256   1.993   4.768  0.2947 -0.4514 -0.4268
   46MOL   C21314703   4.130   2.046   4.692 -0.1022 -0.1140  0.3846
   46MOL   C21414704   3.994   1.990   4.742 -0.0502  0.1318  0.0478
   46MOL   C21514705   4.526   1.888   4.833 -0.5863 -0.6005 -0.6236
   46MOL   H21614706   4.457   2.082   4.902 -2.2364  2.5687 -1.5265
   46MOL   H21714707   4.245   1.885   4.780 -1.3479 -0.1542  0.7792
   46MOL   H21814708   4.246   2.015   4.874  0.4385  4.1330 -1.2661
   46MOL   H21914709   4.153   2.008   4.593 -0.2264  0.5599  0.0940
   46MOL   H22014710   4.123   2.154   4.698 -3.1868 -0.3703  2.7904
   46MOL   H22114711   3.987   2.022   4.846 -2.1652  0.2883 -0.1069
   46MOL   H22214712   3.979   1.883   4.752 -0.5226 -0.1416 -2.9684
   46MOL   H22314713   3.916   2.038   4.683 -1.2892  1.4187  2.6463
   46MOL   H22414714   4.445   1.815   4.839 -2.2382  1.2750  0.4072
   46MOL   H22514715   4.576   1.855   4.742 -0.6992 -1.8665 -0.2486
   46MOL   C22614716   4.620   1.874   4.953 -0.3925  0.2445 -0.3069
   46MOL   O22714717   4.751   1.922   4.926 -0.4361  0.8455 -0.9558
   46MOL   C22814718   4.844   1.820   4.881 -0.6800 -0.0218 -0.4042
   46MOL   C22914719   4.985   1.867   4.849 -0.1070  0.3046  0.9371
   46MOL   C23014720   5.001   1.962   4.736 -0.3718 -0.2224  0.3917
   46MOL   C23114721   4.583   1.944   5.086 -0.5441  0.1280  0.1369
   46MOL   H23214722   4.625   1.768   4.979 -0.7509  0.3221  0.0825
   46MOL   H23314723   4.846   1.742   4.957 -0.5403 -0.8295 -1.2262
   46MOL   H23414724   4.799   1.774   4.793  0.3062  1.5541 -1.7734
   46MOL   H23514725   5.034   1.774   4.821 -0.5181  0.3496  0.0768
   46MOL   H23614726   5.050   1.903   4.929 -0.3033  0.6205  0.9562
   46MOL   H23714727   4.957   1.918   4.646 -1.0096  0.5271  0.3350
   46MOL   H23814728   5.107   1.987   4.725 -0.4958  0.0595 -0.1610
   46MOL   H23914729   4.954   2.057   4.759 -0.8716 -0.6192  1.0269
   46MOL   H24014730   4.661   1.921   5.159 -1.4869  0.4782  1.2711
   46MOL   H24114731   4.575   2.051   5.071 -0.0186 -0.0826 -1.7599
   46MOL   C24214732   4.458   1.887   5.151  0.0209  0.0691  0.8763
   46MOL   O24314733   4.481   1.750   5.175  0.1048 -0.8231 -0.1035
   46MOL   C24414734   4.361   1.667   5.180  0.1277 -0.2231  0.1299
   46MOL   C24514735   4.397   1.515   5.189 -0.1574 -0.1732  0.2966
   46MOL   C24614736   4.402   1.460   5.335  0.0376 -0.1974 -0.0642
   46MOL   C24714737   4.414   1.952   5.285  0.0181  0.1219 -0.5303
   46MOL   H24814738   4.376   1.887   5.079 -0.5213  1.1866  1.4856
   46MOL   H24914739   4.286   1.707   5.247 -0.4595  1.4295 -1.4665
   46MOL   H25014740   4.312   1.679   5.083 -0.8868  1.6392  0.8532
   46MOL   H25114741   4.494   1.498   5.143 -1.4742 -1.0339 -2.2407
   46MOL   H25214742   4.331   1.458   5.123 -0.0734  0.5133 -0.3768
   46MOL   H25314743   4.483   1.511   5.388 -0.7276  1.9242 -0.8531
   46MOL   H25414744   4.431   1.355   5.332 -1.5321 -0.6299 -0.9798
   46MOL   H25514745   4.314   1.472   5.398  0.7941 -0.4456  1.0443
   46MOL   H25614746   4.325   1.902   5.323  0.6396 -0.7810 -0.2532
   46MOL   H25714747   4.498   1.928   5.349  0.2571 -2.6977 -1.8173
   46MOL   C25814748   4.384   2.105   5.281  0.6661  0.7383 -0.1921
   46MOL   O25914749   4.269   2.131   5.201  0.1623  0.3654  0.0390
   46MOL   C26014750   4.264   2.259   5.141 -0.6539  0.1480  0.5995
   46MOL   C26114751   4.133   2.288   5.069  0.2595  0.3678 -0.1710
   46MOL   C26214752   4.017   2.260   5.161 -0.3338  0.3122 -0.5499
   46MOL   C26314753   4.339   2.144   5.423 -0.2809  0.0132 -0.5138
   46MOL   H26414754   4.468   2.164   5.246  0.6114  1.5868  1.0436
   46MOL   H26514755   4.279   2.331   5.222 -0.6534 -0.2526  0.9538
   46MOL   H26614756   4.352   2.281   5.080 -0.8530 -3.8668 -1.2649
   46MOL   H26714757   4.124   2.237   4.973  0.6798 -2.5607  1.3105
   46MOL   H26814758   4.129   2.395   5.048  2.1441  0.4281 -0.2999
   46MOL   H26914759   3.923   2.300   5.124 -2.0024 -0.5085  2.6260
   46MOL   H27014760   4.034   2.318   5.252  0.3699  0.3828 -0.7276
   46MOL   H27114761   4.012   2.154   5.189  0.9937  0.9543  2.3779
   46MOL   H27214762   4.282   2.237   5.424 -0.6551 -0.2238  0.5603
   46MOL   H27314763   4.271   2.066   5.455 -1.7724  0.0373 -3.4622
   46MOL   C27414764   4.455   2.156   5.520  0.3917  0.3529  0.5347
   46MOL   O27514765   4.535   2.262   5.458  0.2088  0.4327  0.0040
   46MOL   C27614766   4.679   2.253   5.489  0.8365  0.1040 -0.0301
   46MOL   C27714767   4.755   2.234   5.356 -0.5891  0.0008 -0.0065
   46MOL   C27814768   4.745   2.356   5.258 -0.1457  0.4507 -0.0538
   46MOL   C27914769   4.423   2.204   5.668  0.1744  0.4763 -0.0387
   46MOL   H28014770   4.530   2.077   5.518 -0.6682 -0.6781  0.6759
   46MOL   H28114771   4.721   2.340   5.538  1.5163 -0.1648 -0.1268
   46MOL   H28214772   4.706   2.175   5.560  1.0822 -1.7150 -2.0612
   46MOL   H28314773   4.691   2.158   5.310 -1.0503  1.0994 -1.1896
   46MOL   H28414774   4.860   2.205   5.357 -0.1649  1.5152  1.7987
   46MOL   H28514775   4.795   2.343   5.162  0.0364 -1.1462  0.2511
   46MOL   H28614776   4.783   2.449   5.302  4.5953 -1.3941  0.0868
   46MOL   H28714777   4.639   2.373   5.238  0.3923  3.1328 -0.8743
   46MOL   H28814778   4.510   2.235   5.725  0.4564  0.0721 -0.2398
   46MOL   H28914779   4.360   2.292   5.666  0.1042  0.4380  0.3663
   46MOL   C29014780   4.349   2.092   5.748 -0.0755 -0.0333  0.0710
   46MOL   O29114781   4.435   1.982   5.744  0.1516  0.4140  0.6661
   46MOL   C29214782   4.371   1.854   5.722 -0.1722  0.1126  0.3437
   46MOL   C29314783   4.268   1.815   5.826  0.1532 -0.2480 -0.0727
   46MOL   C29414784   4.214   1.674   5.799 -1.0145 -0.9046 -0.5526
   46MOL   C29514785   4.336   2.139   5.905  0.7237 -1.0881 -0.7764
   46MOL   H29614786   4.253   2.062   5.705  1.0171  0.7342 -2.9675
   46MOL   H29714787   4.328   1.845   5.623 -0.5513 -0.6582  0.5771
   46MOL   H29814788   4.454   1.784   5.718 -0.0114  0.2763  0.7365
   46MOL   H29914789   4.186   1.886   5.818 -0.2283 -0.6170  0.5462
   46MOL   H30014790   4.319   1.824   5.922  0.1642 -2.3704  0.1306
   46MOL   H30114791   4.287   1.593   5.793  1.2180  1.0855 -1.2678
   46MOL   H30214792   4.164   1.677   5.702  0.3929 -0.9762 -1.2975
   46MOL   H30314793   4.133   1.644   5.865 -0.5944 -2.0629 -0.5562
   46MOL   H30414794   4.280   2.064   5.960 -2.6983 -0.0686 -2.7204
   46MOL   H30514795   4.434   2.126   5.952 -0.7118 -0.5298  2.5225
   46MOL   C30614796   4.275   2.273   5.949 -0.2146  0.1931 -0.0994
   46MOL   O30714797   4.143   2.290   5.897 -0.1003  0.5379  0.4029
   46MOL   C30814798   4.118   2.414   5.833  0.2721 -0.2085  0.1462
   46MOL   C30914799   3.974   2.419   5.786 -0.9005  0.0409 -0.5878
   46MOL   C31014800   3.937   2.297   5.693  0.2015 -0.3812  0.1874
   46MOL   C31114801   4.250   2.276   6.102  0.8038  0.2793  0.0359
   46MOL   H31214802   4.340   2.351   5.910 -1.6692  2.8098  2.5575
   46MOL   H31314803   4.134   2.492   5.907  1.4306  0.9320 -1.2706
   46MOL   H31414804   4.194   2.425   5.756  3.4544 -2.2601  2.8496
   46MOL   H31514805   3.955   2.506   5.722 -0.8429  0.5876  0.1243
   46MOL   H31614806   3.917   2.429   5.878 -0.4696  0.3642 -0.3518
   46MOL   H31714807   3.993   2.305   5.599  0.8545  0.1619  0.6193
   46MOL   H31814808   3.831   2.300   5.668  0.1844 -1.1058  0.1667
   46MOL   H31914809   3.966   2.198   5.727  0.8064 -0.8503 -1.6207
   46MOL   H32014810   4.207   2.373   6.125  0.7991 -0.1284  1.8031
   46MOL   H32114811   4.174   2.210   6.141 -0.3774  1.1250 -0.7945
   46MOL   H32214812   4.346   2.249   6.146  1.1112  0.5704 -0.4461
   47MOL     C114813   3.611   2.514   4.962 -0.5125  0.0756  0.2389
   47MOL     O214814   3.662   2.388   5.015  0.3791  0.1669 -0.0921
   47MOL     C314815   3.648   2.279   4.921 -0.3223 -0.4307 -0.4503
   47MOL     C414816   3.723   2.158   4.955  0.1053  0.8416  0.1323
   47MOL     C514817   3.691   2.090   5.089  0.5938  0.1398 -0.6873
   47MOL     C614818   3.666   2.632   5.033  0.1441 -0.0661 -0.2278
   47MOL     H714819   3.504   2.504   4.980 -0.4475  1.7893  1.6890
   47MOL     H814820   3.544   2.251   4.908 -0.0990 -0.9986 -1.0188
   47MOL     H914821   3.685   2.305   4.822 -1.0695 -1.2921 -0.9575
   47MOL    H1014822   3.826   2.193   4.958 -0.3307  2.1751 -0.3493
   47MOL    H1114823   3.712   2.091   4.869 -1.7952  3.0642 -1.4014
   47MOL    H1214824   3.588   2.054   5.097  0.7569 -0.1949  0.0315
   47MOL    H1314825   3.718   2.143   5.181 -2.6386  0.6915  0.0269
   47MOL    H1414826   3.747   1.996   5.095  0.2235 -0.0060  0.9515
   47MOL    H1514827   3.619   2.723   4.996 -1.7417  0.5903  3.5611
   47MOL    H1614828   3.649   2.625   5.140 -0.2393  0.9351 -0.2130
   47MOL    H1714829   3.621   2.526   4.855  0.1207  1.8231  0.4835
   47MOL    C1814830   3.815   2.654   5.008 -0.5622  0.0480  0.7315
   47MOL    O1914831   3.834   2.656   4.871 -0.3187  0.2518  0.3574
   47MOL    C2014832   3.922   2.554   4.813  0.0820  0.5566 -0.0503
   47MOL    C2114833   3.925   2.576   4.658  0.2710  0.1877  0.9185
   47MOL    C2214834   3.990   2.717   4.628  0.6258 -0.1483 -0.6617
   47MOL    C2314835   3.887   2.776   5.060 -0.0852 -0.7254 -1.1790
   47MOL    H2414836   3.868   2.568   5.049  0.0675  0.2672  0.3886
   47MOL    H2514837   4.021   2.546   4.858  1.5512 -0.4612 -3.3454
   47MOL    H2614838   3.876   2.455   4.813 -1.1346  1.0878 -1.7652
   47MOL    H2714839   3.829   2.581   4.607  1.9494  2.7307 -2.1385
   47MOL    H2814840   3.984   2.503   4.603 -0.9636 -1.3747  1.6105
   47MOL    H2914841   4.088   2.715   4.675 -0.1905  4.0733  1.4131
   47MOL    H3014842   3.933   2.794   4.680  0.0586  1.0300 -2.9771
   47MOL    H3114843   3.995   2.758   4.527 -0.8193  0.3117 -0.5477
   47MOL    H3214844   3.992   2.786   5.033  0.0343 -1.5027 -1.0111
   47MOL    H3314845   3.844   2.852   4.994  0.4475 -0.7692 -1.5826
   47MOL    C3414846   3.881   2.812   5.207 -0.5533 -0.2993  0.8969
   47MOL    O3514847   3.913   2.696   5.286  0.5813  0.1917  0.0572
   47MOL    C3614848   3.813   2.666   5.381 -0.0690  0.0007  0.1272
   47MOL    C3714849   3.837   2.541   5.450  0.4602 -0.3775 -0.7793
   47MOL    C3814850   3.778   2.424   5.377  0.3558  0.3335 -0.0999
   47MOL    C3914851   3.948   2.947   5.249 -0.3893 -0.4251  0.1655
   47MOL    H4014852   3.774   2.834   5.208 -0.5116 -0.1081  1.7519
   47MOL    H4114853   3.820   2.746   5.454 -1.2448  0.0118  0.2284
   47MOL    H4214854   3.721   2.654   5.324 -0.5533 -0.8777  1.0847
   47MOL    H4314855   3.805   2.554   5.553 -0.0237  0.1383 -0.9952
   47MOL    H4414856   3.945   2.538   5.466  0.5238 -0.3443 -1.1796
   47MOL    H4514857   3.812   2.428   5.274 -0.3329  3.5536 -0.2758
   47MOL    H4614858   3.670   2.433   5.366  0.3868 -2.3346 -2.9237
   47MOL    H4714859   3.814   2.328   5.413  0.1131  0.2167 -0.1758
   47MOL    H4814860   3.934   2.943   5.357 -0.1844  0.1911  0.2206
   47MOL    H4914861   4.055   2.943   5.231 -0.2590  1.2724  0.4010
   47MOL    C5014862   3.903   3.078   5.190  0.0810 -0.1428 -0.8368
   47MOL    O5114863   3.775   3.109   5.237 -0.2377 -0.2133  0.4840
   47MOL    C5214864   3.675   3.140   5.135 -0.2167 -0.3747  0.2994
   47MOL    C5314865   3.534   3.130   5.195 -0.2269 -0.8727  0.5138
   47MOL    C5414866   3.499   2.984   5.250 -0.6167 -0.2376  0.4510
   47MOL    C5514867   3.996   3.192   5.219  0.6957  0.1271  0.1922
   47MOL    H5614868   3.902   3.076   5.081  0.7082  0.8104 -0.8589
   47MOL    H5714869   3.700   3.240   5.102 -1.3001  0.4661  1.9371
   47MOL    H5814870   3.687   3.068   5.053 -1.5782 -1.8728  1.3863
   47MOL    H5914871   3.454   3.130   5.121  0.5899 -1.9846 -0.3749
   47MOL    H6014872   3.521   3.214   5.264 -1.3542 -1.5018  1.0727
   47MOL    H6114873   3.574   2.945   5.320 -1.2354 -0.3549  1.0488
   47MOL    H6214874   3.489   2.908   5.173  0.5622 -0.0052  0.0534
   47MOL    H6314875   3.406   2.991   5.306  0.4476  1.3661  2.1076
   47MOL    H6414876   4.083   3.178   5.155 -0.1383  1.0167 -1.1852
   47MOL    H6514877   3.948   3.280   5.177  0.0845  0.1226  0.8738
   47MOL    C6614878   4.023   3.213   5.369  0.1035 -0.2729 -0.7738
   47MOL    O6714879   4.132   3.127   5.399  0.1218  0.4284 -0.0844
   47MOL    C6814880   4.120   3.079   5.532  0.6737 -0.6640 -0.0695
   47MOL    C6914881   4.218   2.964   5.543 -0.2651  0.1909 -0.2386
   47MOL    C7014882   4.189   2.855   5.647 -0.1136 -0.1962 -0.1098
   47MOL    C7114883   4.059   3.356   5.399  0.0423 -0.1964  0.1030
   47MOL    H7214884   3.934   3.184   5.425  0.8285 -1.5277 -0.2397
   47MOL    H7314885   4.145   3.160   5.601  0.3511  1.1178 -1.9722
   47MOL    H7414886   4.017   3.051   5.557 -0.1787  2.1652 -0.2140
   47MOL    H7514887   4.316   3.011   5.555 -0.8464  0.9775  1.5461
   47MOL    H7614888   4.218   2.919   5.443  3.5355 -0.1365 -0.1687
   47MOL    H7714889   4.269   2.782   5.633 -0.4130 -0.7468  1.0080
   47MOL    H7814890   4.099   2.794   5.634 -0.0200 -0.2756 -0.3939
   47MOL    H7914891   4.191   2.908   5.742  1.4600 -1.0317  0.3308
   47MOL    H8014892   4.099   3.359   5.500 -0.6917 -0.0308  0.3918
   47MOL    H8114893   4.147   3.394   5.348 -1.9848  3.4054 -0.8462
   47MOL    C8214894   3.943   3.462   5.397 -0.9290  0.2360 -0.5771
   47MOL    O8314895   3.848   3.421   5.502  0.1069 -0.3798 -0.3269
   47MOL    C8414896   3.710   3.433   5.450  0.0299  0.6859 -0.3193
   47MOL    C8514897   3.617   3.382   5.553  0.2474  0.1573  0.3761
   47MOL    C8614898   3.630   3.456   5.682  0.9837 -0.1506 -0.2248
   47MOL    C8714899   3.985   3.602   5.430 -0.4095 -0.9721 -0.0664
   47MOL    H8814900   3.894   3.475   5.301 -1.9020 -0.0867 -0.1241
   47MOL    H8914901   3.688   3.536   5.422 -2.0368  0.7847  1.4809
   47MOL    H9014902   3.690   3.367   5.366 -0.4175  1.6952 -1.0126
   47MOL    H9114903   3.630   3.275   5.570 -4.0182 -0.1925  2.1012
   47MOL    H9214904   3.511   3.388   5.530  1.0783  2.9427 -3.2009
   47MOL    H9314905   3.648   3.562   5.667 -0.6990  0.0518 -0.9139
   47MOL    H9414906   3.710   3.408   5.739  0.2268  0.5996  1.5036
   47MOL    H9514907   3.534   3.448   5.733  1.8686  0.7126  1.6266
   47MOL    H9614908   3.893   3.649   5.462 -0.3088 -0.6552 -0.2471
   47MOL    H9714909   4.038   3.599   5.525  0.4001 -2.5420 -0.5323
   47MOL    C9814910   4.086   3.667   5.328  1.1228 -0.3892 -1.3198
   47MOL    O9914911   4.020   3.678   5.202  0.2080 -0.3836 -0.2803
   47MOL   C10014912   4.114   3.700   5.095 -0.4682  0.1521  0.3857
   47MOL   C10114913   4.108   3.595   4.982 -0.0312  0.3032  0.5196
   47MOL   C10214914   4.177   3.460   5.008 -0.3263  0.1932  0.3496
   47MOL   C10314915   4.128   3.814   5.375 -0.1536 -0.4018 -0.3968
   47MOL   H10414916   4.170   3.599   5.320  0.5379 -1.0163 -2.2188
   47MOL   H10514917   4.102   3.798   5.051  1.4494  1.4541  2.6048
   47MOL   H10614918   4.215   3.704   5.137 -1.1793  0.7675  2.0615
   47MOL   H10714919   4.165   3.634   4.897 -1.6563  1.0251 -0.2565
   47MOL   H10814920   4.006   3.578   4.946  0.1216  0.0554  0.1905
   47MOL   H10914921   4.190   3.394   4.922  0.5563 -0.1462  0.7326
   47MOL   H11014922   4.108   3.411   5.076 -0.1355  0.3897  0.6867
   47MOL   H11114923   4.277   3.474   5.049  0.2120  0.4603 -1.0256
   47MOL   H11214924   4.161   3.871   5.289  0.9483 -0.2802  0.0898
   47MOL   H11314925   4.045   3.866   5.423  0.0470 -0.8195  0.4139
   47MOL   C11414926   4.242   3.788   5.468 -0.6624 -1.0768  0.7934
   47MOL   O11514927   4.357   3.767   5.384  0.4438 -0.2897 -0.2699
   47MOL   C11614928   4.447   3.659   5.417  0.2191 -0.2585  0.5612
   47MOL   C11714929   4.566   3.660   5.324  0.6673 -0.2171  0.8313
   47MOL   C11814930   4.532   3.629   5.179 -0.2935  0.6759 -1.4500
   47MOL   C11914931   4.282   3.890   5.575 -0.1328  0.1989 -0.3187
   47MOL   H12014932   4.210   3.701   5.526 -0.7138 -1.0126  0.8616
   47MOL   H12114933   4.480   3.676   5.520 -0.9041  1.5297  0.6359
   47MOL   H12214934   4.395   3.564   5.408  0.6327 -0.3455 -1.0909
   47MOL   H12314935   4.645   3.594   5.360 -0.6053 -1.5252  1.2824
   47MOL   H12414936   4.614   3.758   5.328  0.6916 -0.1463 -0.9063
   47MOL   H12514937   4.617   3.654   5.116  0.7004  1.8489  0.2862
   47MOL   H12614938   4.444   3.684   5.145 -0.7947 -0.1365 -1.4631
   47MOL   H12714939   4.503   3.526   5.161  2.2704 -0.1627 -0.9348
   47MOL   H12814940   4.379   3.862   5.617  0.0181  2.3671  0.8599
   47MOL   H12914941   4.304   3.985   5.526 -0.8149  0.8522  0.6312
   47MOL   C13014942   4.194   3.897   5.702  0.5498  0.1938 -0.1966
   47MOL   O13114943   4.206   3.789   5.784 -0.4859 -0.0723 -0.5768
   47MOL   C13214944   4.084   3.724   5.812  0.3788  0.6306 -0.0233
   47MOL   C13314945   4.112   3.572   5.828  0.3419  0.8674 -0.0537
   47MOL   C13414946   3.995   3.481   5.847 -0.1687  0.0282  0.1506
   47MOL   C13514947   4.248   4.012   5.781  0.2837 -0.5684  0.5728
   47MOL   H13614948   4.090   3.917   5.676 -0.5785 -3.7113  0.8306
   47MOL   H13714949   4.046   3.759   5.908  0.3095 -2.3020  1.0781
   47MOL   H13814950   4.005   3.738   5.739 -1.4329  2.0303  2.1162
   47MOL   H13914951   4.165   3.558   5.922 -1.5444  1.4159  1.0944
   47MOL   H14014952   4.178   3.527   5.753  0.6373 -1.7245  1.6944
   47MOL   H14114953   3.928   3.500   5.931 -0.6553  2.7643 -0.8216
   47MOL   H14214954   4.016   3.375   5.860  0.5893  0.2166  0.4849
   47MOL   H14314955   3.928   3.494   5.762  1.5887 -2.8405 -1.7679
   47MOL   H14414956   4.355   4.016   5.804  0.4312 -1.4558  0.0943
   47MOL   H14514957   4.244   4.107   5.728  0.8597 -0.8665 -0.0127
   47MOL   C14614958   4.178   4.046   5.911  1.1859 -0.1195  0.0531
   47MOL   O14714959   4.240   4.161   5.970 -0.2707  0.6207 -0.1892
   47MOL   C14814960   4.318   4.134   6.084 -0.4044  0.0018  0.0055
   47MOL   C14914961   4.366   4.271   6.139 -0.2387  0.4376  0.4341
   47MOL   C15014962   4.245   4.360   6.170  0.4184 -0.4838 -0.1132
   47MOL   C15114963   4.029   4.086   5.889  0.8948  0.7843  0.2357
   47MOL   H15214964   4.185   3.959   5.977  1.7004 -1.3930 -1.6452
   47MOL   H15314965   4.267   4.081   6.164  0.6699  2.9471  2.7468
   47MOL   H15414966   4.406   4.074   6.060 -0.6829  0.9202 -3.5207
   47MOL   H15514967   4.440   4.321   6.077 -0.1314  1.6189  1.4894
   47MOL   H15614968   4.411   4.238   6.233 -0.3632 -2.4365 -0.4610
   47MOL   H15714969   4.182   4.311   6.244  1.6724 -0.9143  0.6843
   47MOL   H15814970   4.199   4.359   6.071  1.9700  2.2014 -0.9340
   47MOL   H15914971   4.283   4.460   6.191  0.2451 -0.2848 -0.7478
   47MOL   H16014972   4.034   4.177   5.830  2.7638 -0.6528 -1.9343
   47MOL   H16114973   3.970   4.016   5.829  0.5583  1.6949 -0.5023
   47MOL   C16214974   3.947   4.109   6.023 -0.1104  0.6629  0.1718
   47MOL   O16314975   3.825   4.169   5.972 -0.1152  0.4255  0.2524
   47MOL   C16414976   3.818   4.305   5.963  0.2057  0.0186  0.0430
   47MOL   C16514977   3.676   4.338   5.908  0.2037 -0.4944 -0.2002
   47MOL   C16614978   3.681   4.488   5.874 -0.9782  0.4604 -0.1660
   47MOL   C16714979   3.926   3.988   6.111  0.3920  0.5391  0.3860
   47MOL   H16814980   4.000   4.186   6.080 -0.2378  0.7332  0.1961
   47MOL   H16914981   3.844   4.348   6.060 -0.7859 -0.2437  0.4280
   47MOL   H17014982   3.885   4.326   5.879  2.5888 -1.9205  1.4030
   47MOL   H17114983   3.600   4.321   5.984  2.1183 -1.5890  1.5046
   47MOL   H17214984   3.653   4.279   5.819  0.3704  2.9655 -2.6354
   47MOL   H17314985   3.769   4.523   5.822 -0.5842  2.1829  1.5778
   47MOL   H17414986   3.661   4.556   5.957  1.6220 -0.8619  1.5961
   47MOL   H17514987   3.599   4.512   5.806 -2.0612 -1.0033  0.5857
   47MOL   H17614988   3.898   3.911   6.039  0.2679 -0.3185  1.3453
   47MOL   H17714989   4.016   3.967   6.168  0.9534 -2.4085 -1.5108
   47MOL   C17814990   3.818   4.006   6.211  0.0739 -0.4346 -0.4452
   47MOL   O17914991   3.796   3.875   6.269  0.2490  0.5017 -0.1576
   47MOL   C18014992   3.710   3.787   6.191 -0.3637 -0.1124 -0.4102
   47MOL   C18114993   3.687   3.651   6.250 -1.1994 -0.6216 -0.6659
   47MOL   C18214994   3.597   3.558   6.169  0.1579  0.5099 -0.4590
   47MOL   C18314995   3.858   4.097   6.333 -0.0016 -0.0663 -0.4473
   47MOL   H18414996   3.725   4.045   6.171 -0.8260 -1.1157  0.9619
   47MOL   H18514997   3.613   3.836   6.185 -0.8430 -1.0769 -0.6470
   47MOL   H18614998   3.763   3.775   6.097  1.4425  3.5472  0.0745
   47MOL   H18714999   3.649   3.658   6.352 -1.4527  0.3521 -0.8212
   47MOL   H18815000   3.781   3.599   6.264 -0.4761  0.4837 -1.2950
   47MOL   H18915001   3.604   3.553   6.060  2.1599  1.5399 -0.4079
   47MOL   H19015002   3.492   3.588   6.174 -0.8088 -2.8359  0.2420
   47MOL   H19115003   3.593   3.456   6.206 -1.0458  1.6037  2.5643
   47MOL   H19215004   3.942   4.066   6.395  0.4032  1.7036 -0.0815
   47MOL   H19315005   3.886   4.193   6.289 -0.4901 -0.0976 -0.8272
   47MOL   C19415006   3.740   4.112   6.443  0.0867  0.1577 -0.1234
   47MOL   O19515007   3.784   4.201   6.547  0.0681  0.3959 -0.0256
   47MOL   C19615008   3.873   4.146   6.642 -0.7473 -0.5425 -0.5505
   47MOL   C19715009   3.921   4.262   6.727  0.1216 -0.0332  0.3260
   47MOL   C19815010   3.806   4.335   6.799  0.0563 -0.1704 -0.0421
   47MOL   C19915011   3.614   4.176   6.380 -0.4731  0.1131  0.1006
   47MOL   H20015012   3.720   4.013   6.485 -0.9976  0.4071 -0.0350
   47MOL   H20115013   3.811   4.077   6.700  0.4699 -1.7279 -0.6408
   47MOL   H20215014   3.953   4.086   6.597  1.7813  2.3429 -0.0659
   47MOL   H20315015   3.969   4.336   6.664  0.5366 -0.3120  0.3110
   47MOL   H20415016   4.003   4.222   6.787  1.8372  1.3892 -0.9864
   47MOL   H20515017   3.800   4.335   6.908  0.8083  2.5734  0.0420
   47MOL   H20615018   3.712   4.327   6.745 -0.6287 -1.7021  1.3347
   47MOL   H20715019   3.822   4.440   6.773 -2.5094  0.2316 -0.1460
   47MOL   H20815020   3.641   4.268   6.327 -1.0411  0.5376  0.5307
   47MOL   H20915021   3.570   4.116   6.301  1.0719 -0.0633 -0.6283
   47MOL   C21015022   3.497   4.198   6.473 -0.0084  0.1096 -0.0330
   47MOL   O21115023   3.393   4.260   6.406  0.0376  0.0424  0.7810
   47MOL   C21215024   3.408   4.402   6.396 -0.3968  0.6507 -0.0502
   47MOL   C21315025   3.330   4.463   6.278 -0.2147 -0.1830 -0.3536
   47MOL   C21415026   3.399   4.457   6.143 -0.5504  0.4070 -0.1219
   47MOL   C21515027   3.438   4.069   6.527  0.4634 -0.0146 -0.4629
   47MOL   H21615028   3.528   4.261   6.557 -0.0216 -0.2417  0.2319
   47MOL   H21715029   3.392   4.455   6.490 -3.2515  0.3746 -0.3411
   47MOL   H21815030   3.512   4.419   6.368 -1.1970  3.3117 -1.6470
   47MOL   H21915031   3.317   4.569   6.297 -0.1914  0.0171 -1.4145
   47MOL   H22015032   3.235   4.410   6.266 -0.5664  0.6796 -1.5043
   47MOL   H22115033   3.473   4.535   6.129 -0.9406  0.5225 -1.6826
   47MOL   H22215034   3.321   4.468   6.067 -1.4444 -1.1149  0.5345
   47MOL   H22315035   3.456   4.364   6.131  0.7359  0.8433  2.3303
   47MOL   H22415036   3.410   3.999   6.449  1.9008  0.0989 -1.0846
   47MOL   H22515037   3.512   4.009   6.581  0.5493  0.1287 -0.4215
   47MOL   C22615038   3.323   4.083   6.625  0.2795  0.2655 -1.2806
   47MOL   O22715039   3.302   3.950   6.683  0.4034 -0.0854  0.5770
   47MOL   C22815040   3.186   3.876   6.647  0.6842  0.7373 -0.4104
   47MOL   C22915041   3.197   3.821   6.506 -0.5569 -0.0454  0.7358
   47MOL   C23015042   3.073   3.735   6.476  0.3827 -0.3826  0.0835
   47MOL   C23115043   3.360   4.169   6.753  0.2610 -0.4564 -0.0365
   47MOL   H23215044   3.230   4.110   6.574 -1.8149 -0.4871  2.0072
   47MOL   H23315045   3.168   3.797   6.720  0.1461  0.6046 -0.6783
   47MOL   H23415046   3.101   3.943   6.659 -1.5914 -2.3651  1.8241
   47MOL   H23515047   3.294   3.780   6.480 -1.2732 -0.3380 -1.6461
   47MOL   H23615048   3.192   3.911   6.443 -1.6409  0.6841  1.8386
   47MOL   H23715049   3.095   3.645   6.420 -0.7452 -0.3564 -0.4039
   47MOL   H23815050   3.015   3.791   6.403  1.7095 -0.2262 -0.8542
   47MOL   H23915051   3.005   3.717   6.560  0.2203 -1.6135 -0.3101
   47MOL   H24015052   3.456   4.133   6.791  1.2707 -1.6575 -3.5361
   47MOL   H24115053   3.381   4.269   6.716  0.4429 -1.2495 -2.1070
   47MOL   C24215054   3.259   4.178   6.874 -0.1855  0.1528 -0.2319
   47MOL   O24315055   3.309   4.251   6.987  0.1249 -0.3479 -0.2313
   47MOL   C24415056   3.387   4.176   7.078  0.4835  0.0783 -0.0566
   47MOL   C24515057   3.466   4.289   7.147 -0.5804 -0.5506  0.6122
   47MOL   C24615058   3.595   4.322   7.073 -0.1403 -0.5953 -0.5945
   47MOL   C24715059   3.138   4.257   6.826 -0.6491  0.2541  0.0028
   47MOL   H24815060   3.234   4.077   6.905  1.7908 -0.2436  0.1226
   47MOL   H24915061   3.308   4.136   7.141  0.5317 -1.0920 -0.7089
   47MOL   H25015062   3.451   4.094   7.043  0.3248 -0.8367  1.7436
   47MOL   H25115063   3.493   4.261   7.249  0.8251  0.6336  0.5847
   47MOL   H25215064   3.404   4.377   7.162 -0.7225 -0.3155 -1.3063
   47MOL   H25315065   3.570   4.366   6.976  2.2422  2.1629 -0.0514
   47MOL   H25415066   3.648   4.229   7.054 -1.7567 -1.1743 -2.4930
   47MOL   H25515067   3.644   4.395   7.137  0.0363 -0.7195 -0.5903
   47MOL   H25615068   3.170   4.360   6.810 -0.7335  0.4597  1.1397
   47MOL   H25715069   3.122   4.234   6.720 -0.8366  0.0016  0.0872
   47MOL   C25815070   3.007   4.255   6.909  0.5343  0.5757 -0.2881
   47MOL   O25915071   2.894   4.326   6.864  0.4505  0.1862  1.2663
   47MOL   C26015072   2.903   4.463   6.890  0.1006  0.4936  1.0526
   47MOL   C26115073   2.766   4.531   6.886 -1.3082 -0.0042  0.5339
   47MOL   C26215074   2.761   4.682   6.889 -0.0099  0.8359 -0.5685
   47MOL   C26315075   2.958   4.113   6.936 -1.0568 -0.1812  0.4643
   47MOL   H26415076   3.031   4.289   7.010 -0.7179  1.5345 -0.2979
   47MOL   H26515077   2.946   4.479   6.989 -0.2349 -1.0403  1.4593
   47MOL   H26615078   2.961   4.509   6.810  0.4189 -1.5896  0.0603
   47MOL   H26715079   2.715   4.496   6.976 -1.2679 -1.2975  0.0617
   47MOL   H26815080   2.695   4.494   6.812  0.3744 -0.4398 -0.8707
   47MOL   H26915081   2.793   4.717   6.987 -0.4732 -2.5819  0.8670
   47MOL   H27015082   2.654   4.700   6.881  0.0245  0.5765 -1.6329
   47MOL   H27115083   2.822   4.732   6.813  0.4764 -0.2691 -0.9101
   47MOL   H27215084   2.959   4.048   6.849 -0.9021 -2.4592  2.1289
   47MOL   H27315085   3.027   4.057   6.999  1.1425  2.3821  0.4331
   47MOL   C27415086   2.826   4.104   7.015 -0.1449 -0.2000 -0.0198
   47MOL   O27515087   2.797   3.971   7.056 -0.5803 -0.1896  0.0834
   47MOL   C27615088   2.773   3.885   6.942  0.2829 -0.0002  0.1720
   47MOL   C27715089   2.744   3.749   7.001 -0.4139 -0.6830  0.3542
   47MOL   C27815090   2.875   3.681   7.059 -0.5800 -0.3550  0.6953
   47MOL   C27915091   2.817   4.188   7.145 -0.3806 -0.6811 -0.4365
   47MOL   H28015092   2.750   4.140   6.946 -1.2732 -0.6319  0.9861
   47MOL   H28115093   2.682   3.927   6.899  0.2143 -0.0131  0.3037
   47MOL   H28215094   2.847   3.883   6.862  0.8419 -2.9463  0.7071
   47MOL   H28315095   2.694   3.680   6.933  2.4370 -3.2591  0.7447
   47MOL   H28415096   2.674   3.770   7.082 -0.2082  1.1837  0.0642
   47MOL   H28515097   2.909   3.741   7.143  3.5014 -0.9534 -0.4321
   47MOL   H28615098   2.950   3.695   6.981  0.6351 -1.7575  1.5948
   47MOL   H28715099   2.863   3.578   7.092 -0.7260  0.4889  3.4619
   47MOL   H28815100   2.910   4.206   7.197 -0.9824  2.9484 -0.4936
   47MOL   H28915101   2.791   4.288   7.113 -0.9723 -0.7942 -0.3202
   47MOL   C29015102   2.697   4.155   7.246  0.0630  0.8148 -0.8004
   47MOL   O29115103   2.725   4.199   7.381 -0.2429 -0.4091 -0.0900
   47MOL   C29215104   2.814   4.125   7.456 -0.5545 -0.7202  0.0467
   47MOL   C29315105   2.817   4.167   7.606  0.4579 -0.5443  0.4196
   47MOL   C29415106   2.675   4.149   7.658 -0.4462 -0.1491 -0.1149
   47MOL   C29515107   2.564   4.221   7.197 -0.1106 -0.2062  0.4082
   47MOL   H29615108   2.683   4.047   7.246 -4.0912  1.2751 -0.0130
   47MOL   H29715109   2.789   4.019   7.450  0.8488 -1.0819  0.2874
   47MOL   H29815110   2.914   4.123   7.411 -1.2570  0.6373 -1.6149
   47MOL   H29915111   2.837   4.272   7.628  0.9360 -0.7784  1.1095
   47MOL   H30015112   2.895   4.120   7.665  0.9092  3.2115  2.9676
   47MOL   H30115113   2.644   4.050   7.626 -0.4569 -1.0584  2.5380
   47MOL   H30215114   2.601   4.222   7.624  0.0701 -0.0731 -1.0612
   47MOL   H30315115   2.682   4.130   7.765  0.4518 -0.4457 -0.2257
   47MOL   H30415116   2.570   4.330   7.193 -1.3780 -0.0895  1.0609
   47MOL   H30515117   2.543   4.187   7.096 -0.9111 -1.0225  0.8354
   47MOL   C30615118   2.442   4.185   7.285 -0.3374 -0.0243 -0.3101
   47MOL   O30715119   2.321   4.253   7.255 -0.0845  0.0404 -0.0197
   47MOL   C30815120   2.321   4.396   7.291 -0.6047 -0.4784 -0.4706
   47MOL   C30915121   2.265   4.479   7.186  0.2870  0.7828 -0.3417
   47MOL   C31015122   2.352   4.466   7.062 -0.2472 -0.5255 -0.2139
   47MOL   C31115123   2.406   4.039   7.268  1.1903  0.2676  0.6880
   47MOL   H31215124   2.465   4.208   7.389  1.2682 -1.1157 -0.4044
   47MOL   H31315125   2.249   4.407   7.372  0.9618  0.2421  0.8651
   47MOL   H31415126   2.419   4.436   7.318 -0.8859  0.3353 -0.6520
   47MOL   H31515127   2.252   4.583   7.216  1.3075  0.9683 -0.5284
   47MOL   H31615128   2.163   4.446   7.165  0.7732 -0.9098 -0.0638
   47MOL   H31715129   2.338   4.370   7.010  1.2603 -2.0286  2.0873
   47MOL   H31815130   2.457   4.486   7.081 -0.4078  1.0321 -0.9140
   47MOL   H31915131   2.345   4.543   6.985  1.2659  1.4011  1.5334
   47MOL   H32015132   2.363   4.024   7.168  2.7265  3.5322 -0.5313
   47MOL   H32115133   2.485   3.965   7.281 -1.5618 -2.7237  0.9327
   47MOL   H32215134   2.329   4.011   7.340  2.2082 -0.9858  1.3074
   48MOL     C115135   4.544   6.730   2.633 -0.2448 -0.2019  0.4835
   48MOL     O215136   4.506   6.593   2.632 -0.4195  0.5190 -0.4033
   48MOL     C315137   4.374   6.580   2.697 -0.1264 -0.4990 -0.3163
   48MOL     C415138   4.316   6.451   2.635 -0.6386 -0.4983 -0.3686
   48MOL     C515139   4.310   6.464   2.482  0.2921 -0.3949  0.4231
   48MOL     C615140   4.694   6.729   2.605 -0.4256 -0.7791 -0.0684
   48MOL     H715141   4.513   6.783   2.723 -3.2460  4.8678 -3.2175
   48MOL     H815142   4.386   6.571   2.805  1.9125 -0.0723 -0.4768
   48MOL     H915143   4.306   6.661   2.675  1.3787  0.9391  0.2254
   48MOL    H1015144   4.213   6.431   2.666 -0.6421 -0.8486 -0.6150
   48MOL    H1115145   4.379   6.365   2.655 -3.5019 -2.7930 -0.8762
   48MOL    H1215146   4.255   6.387   2.427  1.0608 -1.6420  1.3764
   48MOL    H1315147   4.407   6.462   2.434  1.3214 -1.5415  2.4682
   48MOL    H1415148   4.262   6.556   2.450 -0.0063 -0.3253  1.0712
   48MOL    H1515149   4.745   6.694   2.694  0.2807 -0.1310 -0.2137
   48MOL    H1615150   4.716   6.652   2.530  2.2205 -0.2451  0.0959
   48MOL    H1715151   4.489   6.782   2.554  0.6844 -0.2953 -0.2337
   48MOL    C1815152   4.761   6.858   2.567  0.0524 -0.3744 -0.6148
   48MOL    O1915153   4.717   6.916   2.445 -0.0589 -0.1007  0.7604
   48MOL    C2015154   4.722   6.833   2.324  0.0380  0.7752 -0.6332
   48MOL    C2115155   4.674   6.936   2.221 -0.3413 -0.2918 -0.4372
   48MOL    C2215156   4.686   6.875   2.076 -0.3059  0.2311  0.3989
   48MOL    C2315157   4.760   6.965   2.686  0.7486 -0.0670  0.5546
   48MOL    H2415158   4.864   6.831   2.546  1.1607  2.6619  0.6868
   48MOL    H2515159   4.821   6.794   2.302  0.3598  1.7150 -0.8582
   48MOL    H2615160   4.652   6.749   2.333 -1.6504  2.2754  0.8914
   48MOL    H2715161   4.744   7.019   2.222  1.7864 -2.0082 -1.3475
   48MOL    H2815162   4.577   6.982   2.243 -0.4032 -0.4921 -0.2853
   48MOL    H2915163   4.645   6.943   2.002  1.4979  0.1248 -0.7304
   48MOL    H3015164   4.621   6.788   2.062  2.0676 -1.5004 -0.1568
   48MOL    H3115165   4.787   6.858   2.039 -0.8857 -4.4745  0.6441
   48MOL    H3215166   4.798   7.060   2.648  0.6605 -1.0756 -2.1753
   48MOL    H3315167   4.654   6.982   2.705  0.3020 -1.8436 -0.2659
   48MOL    C3415168   4.849   6.936   2.807  0.4620 -0.6732 -0.0750
   48MOL    O3515169   4.981   6.975   2.784 -0.4968  0.0074 -0.2372
   48MOL    C3615170   5.073   6.876   2.828 -0.5729  0.1440 -0.0534
   48MOL    C3715171   5.214   6.932   2.804 -0.5240 -0.9812  0.0271
   48MOL    C3815172   5.329   6.837   2.842 -0.3469 -0.6105  0.5343
   48MOL    C3915173   4.803   7.013   2.933  0.3110  0.0454 -0.0350
   48MOL    H4015174   4.852   6.834   2.845  0.6038  0.0161  1.8239
   48MOL    H4115175   5.060   6.855   2.934 -0.6529  0.1412 -0.0635
   48MOL    H4215176   5.062   6.783   2.773 -2.1166  0.1049  0.3090
   48MOL    H4315177   5.227   7.030   2.850 -3.7075 -1.0160  1.1537
   48MOL    H4415178   5.224   6.946   2.696 -1.3679 -0.9107 -0.0468
   48MOL    H4515179   5.345   6.766   2.761 -0.4274 -0.4776  0.4021
   48MOL    H4615180   5.306   6.785   2.935 -1.7769  1.3080  1.3005
   48MOL    H4715181   5.416   6.901   2.859 -0.4215  0.0374 -1.4198
   48MOL    H4815182   4.883   7.050   2.997 -0.0677  0.5386  0.1542
   48MOL    H4915183   4.760   7.110   2.911  0.4989  0.6605  2.1909
   48MOL    C5015184   4.695   6.937   3.020 -0.1299 -0.0790  0.3871
   48MOL    O5115185   4.764   6.831   3.077  0.3943 -0.4979  0.0302
   48MOL    C5215186   4.680   6.727   3.130 -0.4661  0.2871 -0.7218
   48MOL    C5315187   4.767   6.601   3.169  0.6448 -0.8843  0.1660
   48MOL    C5415188   4.878   6.624   3.271  0.4190  0.1005 -0.3101
   48MOL    C5515189   4.628   7.027   3.121 -0.1525  0.0319 -0.1954
   48MOL    H5615190   4.632   6.891   2.945  1.1865  0.8422 -1.3132
   48MOL    H5715191   4.622   6.760   3.216 -0.4576 -1.5782  0.0346
   48MOL    H5815192   4.614   6.703   3.047  0.2846 -3.3184 -0.3590
   48MOL    H5915193   4.802   6.574   3.069 -2.4232 -1.8071 -0.7239
   48MOL    H6015194   4.692   6.528   3.199  0.2012 -0.4800  0.0585
   48MOL    H6115195   4.948   6.540   3.278 -1.0396 -1.0964  0.1551
   48MOL    H6215196   4.843   6.634   3.373  2.3382 -3.3137  0.7792
   48MOL    H6315197   4.941   6.708   3.244  1.9049 -1.4524 -1.8842
   48MOL    H6415198   4.574   6.964   3.192 -1.1608 -1.3070 -2.1016
   48MOL    H6515199   4.696   7.098   3.169 -0.0138 -0.2685  0.0563
   48MOL    C6615200   4.520   7.118   3.061 -1.3214 -0.7384 -0.1185
   48MOL    O6715201   4.425   7.021   3.021  0.1489  0.2060  0.7000
   48MOL    C6815202   4.334   7.067   2.915  0.4323 -0.3190  0.2127
   48MOL    C6915203   4.277   6.941   2.846 -0.1824  0.4158  0.0452
   48MOL    C7015204   4.183   6.854   2.927 -0.2132 -0.3506  0.4858
   48MOL    C7115205   4.456   7.210   3.157 -0.4146  0.1665  0.2569
   48MOL    H7215206   4.565   7.168   2.975 -0.8145 -1.5471 -0.3295
   48MOL    H7315207   4.251   7.126   2.953  0.3184 -1.0639  1.1344
   48MOL    H7415208   4.381   7.130   2.840 -0.9406 -0.0570 -0.4404
   48MOL    H7515209   4.342   6.879   2.784  1.7088  1.8478  0.5304
   48MOL    H7615210   4.216   6.976   2.763  1.8788 -0.5389 -1.9391
   48MOL    H7715211   4.142   6.909   3.011  0.3014 -0.5366  0.8595
   48MOL    H7815212   4.226   6.763   2.969  0.5701  0.3376  1.1844
   48MOL    H7915213   4.096   6.824   2.867 -0.0476  0.2886 -0.0763
   48MOL    H8015214   4.348   7.225   3.154 -0.1824  2.5000  1.7899
   48MOL    H8115215   4.463   7.145   3.245  0.9653 -1.1313 -0.7964
   48MOL    C8215216   4.524   7.347   3.184 -0.0066 -0.1254 -0.8113
   48MOL    O8315217   4.572   7.403   3.057  0.5041  0.8240 -0.4166
   48MOL    C8415218   4.686   7.482   3.066 -0.2178  0.0416 -0.6269
   48MOL    C8515219   4.717   7.534   2.927  0.5855  0.2903  0.5852
   48MOL    C8615220   4.624   7.636   2.859 -0.0792  0.0309 -0.0083
   48MOL    C8715221   4.423   7.448   3.243 -1.3644  0.6112  0.0309
   48MOL    H8815222   4.608   7.328   3.251  0.1882  2.5262 -0.2325
   48MOL    H8915223   4.671   7.563   3.138  1.6466  3.0607 -3.5034
   48MOL    H9015224   4.766   7.414   3.095 -0.8677 -1.1722 -1.6229
   48MOL    H9115225   4.715   7.440   2.873  0.3128  0.8920 -0.4465
   48MOL    H9215226   4.820   7.570   2.937  2.2763 -4.0832 -0.1672
   48MOL    H9315227   4.601   7.720   2.924  1.2449  0.0307  0.4787
   48MOL    H9415228   4.534   7.580   2.832 -0.1715 -0.6011  1.6078
   48MOL    H9515229   4.657   7.667   2.760 -0.5311 -3.2113 -1.2498
   48MOL    H9615230   4.469   7.546   3.240  1.8733 -0.8124  1.0498
   48MOL    H9715231   4.344   7.436   3.169 -1.7810 -3.9409  1.0824
   48MOL    C9815232   4.374   7.406   3.385 -0.4210  1.0120 -0.0986
   48MOL    O9915233   4.488   7.418   3.470 -0.1139 -0.4003  0.3486
   48MOL   C10015234   4.477   7.364   3.605  0.0473 -1.0529 -0.1646
   48MOL   C10115235   4.608   7.391   3.676 -0.2495 -0.5612  0.6376
   48MOL   C10215236   4.584   7.353   3.822 -0.1307 -0.2521  0.0099
   48MOL   C10315237   4.256   7.493   3.433 -0.7045 -0.0863 -0.6672
   48MOL   H10415238   4.333   7.305   3.373 -3.1760  1.8586  1.7586
   48MOL   H10515239   4.394   7.410   3.657 -0.9465 -0.7546 -1.9641
   48MOL   H10615240   4.468   7.257   3.586 -0.0620 -1.7274  3.4306
   48MOL   H10715241   4.644   7.494   3.671 -1.4334 -0.2527 -2.3078
   48MOL   H10815242   4.697   7.350   3.628 -0.0309 -1.1893  1.5566
   48MOL   H10915243   4.649   7.410   3.889 -0.4665 -0.5614  0.6009
   48MOL   H11015244   4.604   7.247   3.837  0.7460 -0.3216 -1.5104
   48MOL   H11115245   4.483   7.371   3.859  0.2201 -1.6873  1.7071
   48MOL   H11215246   4.213   7.462   3.529 -1.4969 -1.7492 -1.5394
   48MOL   H11315247   4.293   7.593   3.455 -1.8743  0.5683 -1.6124
   48MOL   C11415248   4.138   7.506   3.328  0.3956 -0.9123  0.2555
   48MOL   O11515249   4.074   7.372   3.317  0.0613  0.6880 -0.3063
   48MOL   C11615250   4.030   7.338   3.186  0.6250  0.9368  0.3824
   48MOL   C11715251   3.940   7.213   3.184 -0.0574 -0.4975  0.2259
   48MOL   C11815252   3.877   7.181   3.055  0.3802 -0.1079 -0.0957
   48MOL   C11915253   4.033   7.607   3.372  0.5199 -0.0496 -0.4872
   48MOL   H12015254   4.185   7.533   3.234  1.3205  0.4888  1.1045
   48MOL   H12115255   3.983   7.421   3.133  0.4016  1.4803  1.4347
   48MOL   H12215256   4.119   7.323   3.124 -0.6730  0.4829 -1.4082
   48MOL   H12315257   3.857   7.219   3.254 -1.7926 -0.5367 -1.7803
   48MOL   H12415258   4.012   7.135   3.209  1.4935  1.0772  0.8252
   48MOL   H12515259   3.954   7.178   2.979  1.0764  0.7366  0.5649
   48MOL   H12615260   3.804   7.255   3.020 -0.7181 -0.9733  0.3361
   48MOL   H12715261   3.832   7.083   3.070  1.0284 -0.1941  1.3711
   48MOL   H12815262   3.945   7.590   3.310 -0.4036 -2.2590  1.3613
   48MOL   H12915263   4.001   7.587   3.474 -0.3669 -0.7545 -0.8949
   48MOL   C13015264   4.076   7.754   3.370 -0.0060 -0.1600 -0.0963
   48MOL   O13115265   4.085   7.798   3.232 -0.0766 -0.1818 -1.0159
   48MOL   C13215266   4.185   0.060   3.199 -0.4197 -0.0608 -0.5235
   48MOL   C13315267   4.168   0.110   3.060  0.0762  0.9858  0.1918
   48MOL   C13415268   4.152   0.001   2.953 -0.2251  0.0156 -0.1301
   48MOL   C13515269   3.989   0.014   3.472  0.1840 -0.0885 -0.4548
   48MOL   H13615270   4.177   7.761   3.411 -1.1031 -1.0260  2.8506
   48MOL   H13715271   4.185   0.148   3.263  2.4287 -0.6554  0.3526
   48MOL   H13815272   4.279   0.006   3.206  0.1289  0.4524 -3.4468
   48MOL   H13915273   4.249   0.179   3.037  2.0986 -1.2696  0.3966
   48MOL   H14015274   4.076   0.169   3.065 -1.1875 -0.9765  0.8409
   48MOL   H14115275   4.248   7.792   2.914 -0.4927  0.0073 -0.7906
   48MOL   H14215276   4.102   0.047   2.868  1.4318  0.5301 -0.8526
   48MOL   H14315277   4.088   7.750   2.993  0.8810 -1.3714 -1.0334
   48MOL   H14415278   3.902   0.051   3.417  0.4232  0.1805 -0.6458
   48MOL   H14515279   3.950   7.786   3.558 -0.0955 -1.9035 -1.7259
   48MOL   C14615280   4.069   0.124   3.544 -0.0158 -0.1118  0.8253
   48MOL   O14715281   3.968   0.210   3.605  0.1545 -0.0721  0.0265
   48MOL   C14815282   3.933   0.312   3.512  0.4207 -0.3737  0.3658
   48MOL   C14915283   3.836   0.404   3.578 -0.6676  0.4819  0.3702
   48MOL   C15015284   3.898   0.489   3.698  0.4199  0.0222 -0.2831
   48MOL   C15115285   4.156   0.070   3.655 -0.2876  0.5142 -0.6944
   48MOL   H15215286   4.126   0.186   3.475 -0.9651  0.0902  0.2036
   48MOL   H15315287   4.020   0.370   3.480  1.4362 -2.6363 -1.0607
   48MOL   H15415288   3.884   0.264   3.427 -0.9701 -0.8287  1.4005
   48MOL   H15515289   3.760   0.342   3.627 -0.1960  1.4751  2.4128
   48MOL   H15615290   3.779   0.463   3.506  0.1193  2.1100  1.0505
   48MOL   H15715291   3.965   0.567   3.660  1.5458 -0.9710 -0.3869
   48MOL   H15815292   3.938   0.422   3.773 -1.7628 -0.2155  0.6964
   48MOL   H15915293   3.814   0.538   3.747 -0.8725 -1.1046 -1.3303
   48MOL   H16015294   4.111   0.080   3.754 -0.8692 -0.5103 -0.8484
   48MOL   H16115295   4.168   7.790   3.645 -2.2649  0.2275 -0.1660
   48MOL   C16215296   4.297   0.135   3.671  0.5859  0.6466  1.1490
   48MOL   O16315297   4.365   0.122   3.550 -0.6882 -0.1203 -0.1094
   48MOL   C16415298   4.474   0.025   3.543  0.6392  0.4036  0.8793
   48MOL   C16515299   4.525   0.016   3.396  0.1034  0.0384 -1.0075
   48MOL   C16615300   4.653   7.777   3.369  0.3416  0.3622  0.4656
   48MOL   C16715301   4.287   0.284   3.705 -0.2483 -1.0863 -0.5034
   48MOL   H16815302   4.357   0.088   3.749 -0.5816 -1.7109  0.6667
   48MOL   H16915303   4.552   0.064   3.608 -1.3137  2.7114  1.8939
   48MOL   H17015304   4.443   7.755   3.581 -1.0909  1.5511  2.4819
   48MOL   H17115305   4.529   0.118   3.360  0.8112  0.7528  1.0221
   48MOL   H17215306   4.444   7.793   3.344  0.4694  1.0368 -2.5753
   48MOL   H17315307   4.686   7.816   3.273 -0.7036  1.2155  0.4405
   48MOL   H17415308   4.643   7.670   3.351  1.7712 -0.3328  3.4350
   48MOL   H17515309   4.733   7.801   3.440  1.9496  1.0587 -1.5479
   48MOL   H17615310   4.206   0.329   3.647  0.1741 -0.1434 -0.3727
   48MOL   H17715311   4.236   0.290   3.801  0.8655  0.2494  0.0197
   48MOL   C17815312   4.416   0.372   3.726  0.5334 -0.4381  0.3366
   48MOL   O17915313   4.376   0.509   3.753 -0.1885  0.4409 -0.5097
   48MOL   C18015314   4.464   0.606   3.702 -0.1295  0.3080  0.0200
   48MOL   C18115315   4.407   0.745   3.725 -0.6082  0.2869  0.0082
   48MOL   C18215316   4.478   0.854   3.650 -0.9310 -0.3674 -0.6316
   48MOL   C18315317   4.507   0.329   3.845 -0.0137  0.1870  0.1787
   48MOL   H18415318   4.479   0.357   3.638  1.7739  0.0730  1.1263
   48MOL   H18515319   4.561   0.594   3.750 -2.0250  0.3382  4.0626
   48MOL   H18615320   4.477   0.586   3.596  0.3119  0.1228  0.1071
   48MOL   H18715321   4.406   0.772   3.831 -1.8411 -0.5674  0.2196
   48MOL   H18815322   4.299   0.741   3.715 -0.6522  0.2726  0.4673
   48MOL   H18915323   4.474   0.837   3.542  1.4290 -0.9382 -0.6717
   48MOL   H19015324   4.584   0.845   3.675 -1.6471 -1.4115  2.1961
   48MOL   H19115325   4.450   0.959   3.661 -3.1963 -0.8603 -1.4631
   48MOL   H19215326   4.559   0.237   3.818 -2.2344 -0.3875 -2.3494
   48MOL   H19315327   4.590   0.395   3.869  0.9715 -1.3066  0.9771
   48MOL   C19415328   4.437   0.315   3.980  0.4286 -0.4906  0.6638
   48MOL   O19515329   4.395   0.181   3.997 -0.5902 -0.3117  0.5788
   48MOL   C19615330   4.276   0.166   4.066  0.2683 -0.0305 -0.4697
   48MOL   C19715331   4.237   0.020   4.081  0.8925  0.2500 -0.5151
   48MOL   C19815332   4.334   7.763   4.163  0.5466 -0.2928 -0.7503
   48MOL   C19915333   4.527   0.344   4.104  0.3243 -0.1915  0.2602
   48MOL   H20015334   4.346   0.375   3.985  2.0069  1.9709  0.2526
   48MOL   H20115335   4.283   0.206   4.168  0.6829  0.4016 -0.6652
   48MOL   H20215336   4.200   0.210   4.002  1.3501 -0.5106 -2.1083
   48MOL   H20315337   4.227   7.813   3.978 -0.7310 -2.4615  0.4942
   48MOL   H20415338   4.140   0.006   4.127  2.2469 -1.1203  2.0732
   48MOL   H20515339   4.303   7.658   4.161  0.6451 -0.3245 -0.5970
   48MOL   H20615340   4.336   7.791   4.268  0.4253 -1.6459 -0.3749
   48MOL   H20715341   4.431   7.751   4.113 -0.3207 -2.8671 -1.9528
   48MOL   H20815342   4.493   0.297   4.197 -1.4225  0.4133 -0.0628
   48MOL   H20915343   4.626   0.301   4.084  0.2743 -1.0887  1.8480
   48MOL   C21015344   4.534   0.497   4.145  1.2588  0.3546  0.0070
   48MOL   O21115345   4.399   0.534   4.193 -0.6722  0.5125  0.2815
   48MOL   C21215346   4.340   0.644   4.124 -0.5074  0.2322 -0.1359
   48MOL   C21315347   4.211   0.677   4.182 -0.5057 -0.5437 -0.5480
   48MOL   C21415348   4.090   0.606   4.109  0.8903 -0.3592  0.3088
   48MOL   C21515349   4.640   0.546   4.242  0.0899 -0.7863 -0.4225
   48MOL   H21615350   4.545   0.559   4.056  0.1228  1.2274  0.4556
   48MOL   H21715351   4.406   0.730   4.122  1.9168 -1.5441  0.7964
   48MOL   H21815352   4.334   0.632   4.015 -1.1819 -1.4392  0.0733
   48MOL   H21915353   4.201   0.786   4.185 -0.0870 -0.5193  2.7416
   48MOL   H22015354   4.216   0.652   4.288  2.3865  0.8058 -0.3011
   48MOL   H22115355   4.073   0.640   4.008 -0.5487 -0.7428  0.4126
   48MOL   H22215356   4.005   0.624   4.175  0.0863 -1.8824 -0.2996
   48MOL   H22315357   4.090   0.497   4.114  0.4253 -0.3721  0.0073
   48MOL   H22415358   4.615   0.651   4.256 -0.7038 -1.0913  0.5662
   48MOL   H22515359   4.615   0.511   4.342 -1.0282 -1.4064 -0.9072
   48MOL   C22615360   4.788   0.516   4.199 -0.2485  0.7511 -0.3662
   48MOL   O22715361   4.811   0.579   4.071  0.5793  0.5933  0.2116
   48MOL   C22815362   4.894   0.504   3.980 -0.3363  0.0255 -0.8122
   48MOL   C22915363   4.894   0.583   3.847  0.6188 -0.3027  0.0012
   48MOL   C23015364   4.941   0.491   3.736 -0.2921 -0.6915 -0.3372
   48MOL   C23115365   4.904   0.571   4.290  0.1615 -0.1795 -0.5099
   48MOL   H23215366   4.799   0.408   4.192 -0.2949  0.7833 -0.9462
   48MOL   H23315367   4.998   0.496   4.013 -0.8361 -1.4847  0.4329
   48MOL   H23415368   4.859   0.401   3.972  0.2578 -0.1433 -1.3142
   48MOL   H23515369   4.959   0.670   3.853  1.0758 -0.4515 -2.3404
   48MOL   H23615370   4.796   0.626   3.827  1.0589 -0.7906 -3.5897
   48MOL   H23715371   4.882   0.399   3.728 -2.8436  0.9055 -0.3606
   48MOL   H23815372   5.043   0.455   3.750 -0.5081 -0.9825  0.5048
   48MOL   H23915373   4.952   0.542   3.640 -0.8314 -0.1415 -0.1036
   48MOL   H24015374   4.996   0.583   4.232  0.3395  1.4061  0.0611
   48MOL   H24115375   4.882   0.674   4.319 -0.1957 -0.3370 -0.2116
   48MOL   C24215376   4.939   0.494   4.419  0.3303  0.4508  0.2314
   48MOL   O24315377   5.045   0.407   4.388 -0.3440  0.2484 -0.2808
   48MOL   C24415378   5.005   0.267   4.366  0.7531  0.1655  0.0832
   48MOL   C24515379   5.118   0.160   4.365  0.3410  0.6829  0.6282
   48MOL   C24615380   5.195   0.164   4.233  0.6015  0.0728 -0.4060
   48MOL   C24715381   4.985   0.582   4.531 -0.2605  0.1641 -0.3770
   48MOL   H24815382   4.846   0.444   4.447 -0.3507  1.2068 -0.6376
   48MOL   H24915383   4.941   0.241   4.450 -0.1979  0.4406 -0.5379
   48MOL   H25015384   4.940   0.264   4.278  1.5972 -1.7633 -0.5020
   48MOL   H25115385   5.087   0.057   4.380 -1.3959  1.1201  0.2687
   48MOL   H25215386   5.187   0.184   4.445  0.8590  1.4160 -0.0227
   48MOL   H25315387   5.283   0.099   4.239  0.3113 -0.1932  1.1651
   48MOL   H25415388   5.224   0.263   4.198 -1.1703  1.0531  0.8581
   48MOL   H25515389   5.141   0.126   4.146 -0.0847 -0.3601  0.2106
   48MOL   H25615390   5.079   0.622   4.492  1.3689 -1.1088  2.0934
   48MOL   H25715391   4.923   0.669   4.554 -2.3783 -1.2449 -0.6279
   48MOL   C25815392   5.005   0.513   4.669 -0.2785  0.0811  0.3354
   48MOL   O25915393   5.114   0.565   4.749  0.2952 -0.3127 -0.1552
   48MOL   C26015394   5.247   0.535   4.696 -0.9904 -0.0809 -0.8459
   48MOL   C26115395   5.347   0.594   4.790 -0.2610  0.0540  0.0689
   48MOL   C26215396   5.333   0.536   4.927  0.4256  0.1427  0.4284
   48MOL   C26315397   4.876   0.532   4.748 -0.0519 -0.0845 -0.2253
   48MOL   H26415398   5.027   0.407   4.657 -2.7203 -0.2265 -1.8509
   48MOL   H26515399   5.257   0.426   4.694 -1.1068 -0.1498  1.5518
   48MOL   H26615400   5.270   0.579   4.599  1.1202  0.6902 -0.0382
   48MOL   H26715401   5.339   0.702   4.782  2.0304  0.0509 -3.0981
   48MOL   H26815402   5.444   0.564   4.753 -1.2264 -2.2399 -0.6982
   48MOL   H26915403   5.388   0.595   5.001 -1.3818  1.9710  0.3357
   48MOL   H27015404   5.372   0.434   4.937  1.6089  0.3159 -2.0244
   48MOL   H27115405   5.233   0.532   4.969  0.2244  0.2972 -0.0343
   48MOL   H27215406   4.878   0.639   4.770 -1.1284 -0.6171  2.7457
   48MOL   H27315407   4.792   0.501   4.687 -1.7999 -0.4984  2.2959
   48MOL   C27415408   4.873   0.454   4.882 -0.6459  0.0975  0.5448
   48MOL   O27515409   4.791   0.530   4.967  0.0636 -0.6752 -0.2730
   48MOL   C27615410   4.853   0.621   5.063 -0.6227  1.2076 -0.1098
   48MOL   C27715411   4.747   0.683   5.153  0.2613  0.3972 -0.0128
   48MOL   C27815412   4.666   0.598   5.246  0.5209 -0.0445  0.2476
   48MOL   C27915413   4.810   0.317   4.873 -0.0089  0.2331 -0.2820
   48MOL   H28015414   4.972   0.437   4.923 -0.5776 -0.7424  0.0369
   48MOL   H28115415   4.917   0.561   5.127  0.5414  1.7575 -0.7438
   48MOL   H28215416   4.923   0.698   5.032  0.2290  0.6829  0.4738
   48MOL   H28315417   4.667   0.733   5.099 -0.0987 -0.0041  0.1515
   48MOL   H28415418   4.806   0.753   5.213  0.9667 -0.9777  0.9367
   48MOL   H28515419   4.583   0.655   5.288 -1.1085 -0.8787 -1.7711
   48MOL   H28615420   4.729   0.555   5.324 -2.0637 -2.8502  0.8961
   48MOL   H28715421   4.617   0.522   5.185  3.6009  0.0776 -2.4667
   48MOL   H28815422   4.704   0.333   4.853 -0.2185 -2.6121 -1.8112
   48MOL   H28915423   4.866   0.261   4.798  1.9011 -0.0802  1.3491
   48MOL   C29015424   4.814   0.237   5.007 -0.0349  0.4076  0.4429
   48MOL   O29115425   4.722   0.131   4.990  0.4525  0.1216  0.2242
   48MOL   C29215426   4.603   0.138   5.068  0.3944  0.4108  0.0163
   48MOL   C29315427   4.530   0.002   5.069  0.3084  0.3764  0.0016
   48MOL   C29415428   4.501   7.767   4.933 -0.8026 -0.0014  0.8278
   48MOL   C29515429   4.948   0.180   5.048 -0.2506  0.5605 -0.1490
   48MOL   H29615430   4.784   0.305   5.087 -0.1280  0.6063  0.2399
   48MOL   H29715431   4.625   0.182   5.165  1.1670  1.8018 -0.7746
   48MOL   H29815432   4.546   0.214   5.014 -1.0239 -1.5339 -1.2434
   48MOL   H29915433   4.433   0.027   5.112  0.4124 -1.1250  1.1449
   48MOL   H30015434   4.583   7.758   5.131 -1.4350  1.7681  3.2709
   48MOL   H30115435   4.590   7.774   4.871 -0.9268 -0.3569  0.6040
   48MOL   H30215436   4.423   7.818   4.876  0.2943 -0.7468 -1.3980
   48MOL   H30315437   4.464   7.664   4.938  0.9458 -0.8401 -2.4493
   48MOL   H30415438   4.967   0.106   4.970  0.1107 -0.4807  0.9152
   48MOL   H30515439   5.030   0.252   5.048 -0.5840  0.9370 -0.6171
   48MOL   C30615440   4.939   0.115   5.182  1.0056  0.3260 -0.1026
   48MOL   O30715441   5.037   0.015   5.182  0.7726 -0.2063  0.5960
   48MOL   C30815442   5.013   7.741   5.281 -0.4053 -1.1489  0.1500
   48MOL   C30915443   5.128   7.642   5.284 -0.1456  0.6444 -1.1947
   48MOL   C31015444   5.096   7.520   5.377 -0.5825 -0.5068 -0.2028
   48MOL   C31115445   4.980   0.213   5.294  0.7366  0.8039  0.4572
   48MOL   H31215446   4.837   0.078   5.196  0.3312  1.3276 -2.1314
   48MOL   H31315447   5.003   7.792   5.376  1.6025  0.6447 -0.5727
   48MOL   H31415448   4.919   7.696   5.248  0.5145 -1.3251 -2.3197
   48MOL   H31515449   5.222   7.690   5.312 -0.3849 -0.3074  1.4403
   48MOL   H31615450   5.138   7.605   5.182  0.6023  0.8698 -1.2091
   48MOL   H31715451   5.078   7.551   5.480  0.3098  1.7429 -0.6914
   48MOL   H31815452   5.191   7.467   5.374  0.4727  1.2868  0.8845
   48MOL   H31915453   5.025   7.447   5.338 -1.8555 -0.8759  2.6493
   48MOL   H32015454   4.963   0.159   5.387  1.7272 -2.8243 -1.3708
   48MOL   H32115455   5.085   0.242   5.290  0.8541  0.3392  0.0152
   48MOL   H32215456   4.918   0.298   5.265 -0.5032 -1.1302 -2.8831
   49MOL     C115457   6.833   5.887   0.727 -0.7474  0.1030  0.1151
   49MOL     O215458   6.874   5.895   0.864  0.1249  0.4338  0.5421
   49MOL     C315459   6.763   5.946   0.938 -0.1897  0.3065 -0.0424
   49MOL     C415460   6.808   5.989   1.080  0.2337  0.7820 -0.3309
   49MOL     C515461   6.862   5.873   1.175  0.1941  0.7686  0.2167
   49MOL     C615462   6.953   5.833   0.646 -0.7877  0.3836  0.7391
   49MOL     H715463   6.781   5.977   0.691  1.0763  1.3448  0.5179
   49MOL     H815464   6.727   6.032   0.881  1.0129  0.2140 -0.9538
   49MOL     H915465   6.688   5.869   0.957  2.6779 -2.1274  1.8734
   49MOL    H1015466   6.725   6.040   1.130 -2.5447 -1.5561 -2.3647
   49MOL    H1115467   6.889   6.059   1.059  1.9616 -1.3871 -1.0211
   49MOL    H1215468   6.949   5.826   1.129  0.0090  1.0853 -0.4705
   49MOL    H1315469   6.784   5.807   1.212 -0.4976  0.2940 -1.9849
   49MOL    H1415470   6.903   5.927   1.261  1.5346  0.7742 -0.4025
   49MOL    H1515471   6.989   5.743   0.696 -1.4515 -1.1323 -1.4027
   49MOL    H1615472   6.912   5.804   0.549 -0.7251  0.6220  0.6411
   49MOL    H1715473   6.753   5.813   0.718 -0.5129 -0.1298 -0.0307
   49MOL    C1815474   7.059   5.938   0.623 -0.1476 -0.2559  0.2977
   49MOL    O1915475   7.001   6.022   0.521  0.3924  0.1941 -0.4101
   49MOL    C2015476   7.101   6.101   0.456  0.0571 -0.0546 -0.4619
   49MOL    C2115477   7.045   6.161   0.329  0.0867  0.5743 -0.0830
   49MOL    C2215478   7.031   6.047   0.228  0.9692 -0.7224 -0.0030
   49MOL    C2315479   7.123   6.000   0.744 -0.8534 -0.2658  0.0070
   49MOL    H2415480   7.139   5.882   0.575 -0.8009 -2.4301  1.6687
   49MOL    H2515481   7.139   6.185   0.513 -2.0363  0.1558  0.6866
   49MOL    H2615482   7.187   6.044   0.422  1.3814  1.4496  0.3371
   49MOL    H2715483   7.118   6.227   0.282  2.9321 -1.6425  1.1340
   49MOL    H2815484   6.952   6.217   0.344 -0.1495  0.0814  0.2877
   49MOL    H2915485   6.975   6.078   0.140  3.8882  3.4369 -0.5555
   49MOL    H3015486   6.978   5.961   0.267 -1.6854  1.1622  0.7150
   49MOL    H3115487   7.131   6.028   0.188  1.9240  1.0501  1.3895
   49MOL    H3215488   7.177   6.088   0.710 -1.7021 -0.1569 -1.0929
   49MOL    H3315489   7.036   6.035   0.800 -1.2637 -0.5033 -0.4801
   49MOL    C3415490   7.209   5.913   0.835 -0.4347 -0.3089  0.7982
   49MOL    O3515491   7.340   5.899   0.785  0.0737  0.0240  0.2395
   49MOL    C3615492   7.362   5.807   0.685 -0.6940  0.1431  0.5296
   49MOL    C3715493   7.518   5.784   0.684  0.1031  0.3274  0.0388
   49MOL    C3815494   7.560   5.681   0.788  0.4050 -0.2335  0.0333
   49MOL    C3915495   7.203   5.977   0.979  0.3334  0.7974 -1.2799
   49MOL    H4015496   7.167   5.812   0.835  0.1755 -0.5584 -0.1366
   49MOL    H4115497   7.312   5.710   0.686  1.1451 -0.8449 -0.6767
   49MOL    H4215498   7.339   5.850   0.587  1.2970  1.4311  0.5744
   49MOL    H4315499   7.573   5.875   0.709 -0.8384  0.5601  1.2706
   49MOL    H4415500   7.552   5.754   0.585 -0.7164 -1.7012  0.3638
   49MOL    H4515501   7.505   5.700   0.881  1.1725 -0.1607  0.4785
   49MOL    H4615502   7.664   5.688   0.819  0.7541  0.4217 -1.2904
   49MOL    H4715503   7.540   5.580   0.753 -2.7435 -0.2024  1.5471
   49MOL    H4815504   7.238   6.079   0.967  1.3456  0.7478  0.9868
   49MOL    H4915505   7.100   5.980   1.017  1.5950 -1.1367  2.5558
   49MOL    C5015506   7.291   5.906   1.083 -0.3995  0.3773 -0.7953
   49MOL    O5115507   7.277   5.968   1.216 -0.2932  0.0060 -0.9901
   49MOL    C5215508   7.331   6.091   1.237  0.4819 -0.2299  0.4927
   49MOL    C5315509   7.336   6.132   1.384  0.0405 -0.3682  0.7071
   49MOL    C5415510   7.450   6.050   1.451  0.1886 -0.1264  0.6245
   49MOL    C5515511   7.260   5.761   1.108 -0.2797 -0.1042  0.2088
   49MOL    H5615512   7.392   5.920   1.045 -0.3277 -0.5549 -0.9523
   49MOL    H5715513   7.432   6.094   1.195  0.0943  0.8075 -0.4055
   49MOL    H5815514   7.275   6.159   1.172 -0.6937 -1.0489  0.6355
   49MOL    H5915515   7.245   6.107   1.439  0.4420  1.1704  2.1079
   49MOL    H6015516   7.356   6.238   1.397 -2.7370  0.4446 -1.1489
   49MOL    H6115517   7.431   6.037   1.557  0.8024 -1.1075  0.6210
   49MOL    H6215518   7.551   6.089   1.439  0.5864 -1.2090  0.3582
   49MOL    H6315519   7.454   5.946   1.419 -2.1441  0.8729 -3.2933
   49MOL    H6415520   7.153   5.748   1.123 -0.1754 -4.0569 -1.6034
   49MOL    H6515521   7.287   5.702   1.019  2.1321  0.1091  0.7608
   49MOL    C6615522   7.351   5.692   1.224 -0.0888  0.0013  0.0965
   49MOL    O6715523   7.319   5.558   1.222 -0.1062  0.5773 -0.2554
   49MOL    C6815524   7.199   5.511   1.286 -0.3658 -0.8649 -0.1456
   49MOL    C6915525   7.154   5.401   1.189  0.1146 -0.0182  0.0301
   49MOL    C7015526   7.254   5.289   1.178 -0.2016 -0.4948  0.5737
   49MOL    C7115527   7.505   5.724   1.196  0.1575  0.1591  0.0609
   49MOL    H7215528   7.320   5.729   1.321 -1.2224 -0.0365 -0.2358
   49MOL    H7315529   7.211   5.469   1.386 -0.7425 -1.0981 -0.1971
   49MOL    H7415530   7.126   5.591   1.296 -0.9707 -1.5787  1.3398
   49MOL    H7515531   7.127   5.436   1.089  0.5341  1.4323  0.4006
   49MOL    H7615532   7.063   5.356   1.228 -0.4226 -1.4384 -2.7099
   49MOL    H7715533   7.285   5.249   1.274  2.1472  0.9641  0.4501
   49MOL    H7815534   7.337   5.330   1.121 -1.5673  0.9791 -0.4317
   49MOL    H7915535   7.204   5.212   1.119 -0.4903  0.7670 -0.8812
   49MOL    H8015536   7.517   5.715   1.088 -0.5922  1.8231 -0.1785
   49MOL    H8115537   7.531   5.829   1.206 -1.9889  0.8781 -1.4370
   49MOL    C8215538   7.597   5.642   1.289  0.9801  1.0002 -0.4118
   49MOL    O8315539   7.716   5.615   1.220 -0.4737 -0.5023 -0.0796
   49MOL    C8415540   7.728   5.518   1.117  0.3653  0.6632  0.7186
   49MOL    C8515541   0.055   5.486   1.093  0.3410 -0.3687 -0.0058
   49MOL    C8615542   0.136   5.604   1.036  0.9309  0.2216 -0.6089
   49MOL    C8715543   7.617   5.716   1.426 -0.2404 -0.9207 -0.3878
   49MOL    H8815544   7.557   5.542   1.308  1.5112  1.0757  1.1622
   49MOL    H8915545   7.677   5.424   1.139 -1.8580  0.7986 -3.3903
   49MOL    H9015546   7.677   5.551   1.027 -1.3552 -1.8278  0.7125
   49MOL    H9115547   0.057   5.409   1.016  0.0887 -2.2906  1.8674
   49MOL    H9215548   0.113   5.450   1.178 -0.0860  2.4442  1.5552
   49MOL    H9315549   0.236   5.569   1.013  0.9432 -0.2946  0.1985
   49MOL    H9415550   0.147   5.682   1.112 -3.7414  0.0124  0.4503
   49MOL    H9515551   0.094   5.644   0.944  1.0834 -2.8343 -2.0531
   49MOL    H9615552   7.666   5.813   1.421 -0.1403 -1.0169 -1.5366
   49MOL    H9715553   7.518   5.725   1.471  0.7299  3.5973  1.1158
   49MOL    C9815554   7.697   5.620   1.520  0.2549  0.1574 -0.2011
   49MOL    O9915555   7.813   5.697   1.544  0.9643  1.0972  0.2009
   49MOL   C10015556   0.108   5.645   1.497 -0.6072  0.1900 -0.4803
   49MOL   C10115557   0.210   5.758   1.494 -0.1257  0.9786  0.8948
   49MOL   C10215558   0.181   5.876   1.395 -0.1548  0.6243 -0.5906
   49MOL   C10315559   7.631   5.591   1.656  0.2390  0.0908  0.3648
   49MOL   H10415560   7.730   5.525   1.478 -0.2113 -0.1133  0.0362
   49MOL   H10515561   0.142   5.555   1.549 -0.2805  0.2147 -0.6528
   49MOL   H10615562   0.094   5.616   1.393 -0.4233 -0.8611 -0.2256
   49MOL   H10715563   0.312   5.722   1.479  0.3236  1.7419  2.0238
   49MOL   H10815564   0.210   5.802   1.593  0.1449  0.9939  0.8889
   49MOL   H10915565   0.176   5.832   1.296 -3.2322 -0.7721  0.1044
   49MOL   H11015566   0.258   5.952   1.404 -0.6263  1.0298  0.0947
   49MOL   H11115567   0.081   5.907   1.426  1.3031  2.8847  2.1108
   49MOL   H11215568   7.710   5.540   1.712  1.8660  1.2559 -0.8234
   49MOL   H11315569   7.622   5.682   1.715 -0.2740  1.0549 -1.1839
   49MOL   C11415570   7.504   5.498   1.661 -0.6464  0.4931 -0.2187
   49MOL   O11515571   7.551   5.378   1.605 -0.1870  0.1881 -0.3748
   49MOL   C11615572   7.444   5.305   1.536 -0.4146 -0.4197  0.5719
   49MOL   C11715573   7.507   5.190   1.447 -0.7639 -0.8226 -0.1020
   49MOL   C11815574   7.570   5.236   1.313  0.3199  0.3778  0.7503
   49MOL   C11915575   7.446   5.480   1.804  0.5527  0.3471 -0.5997
   49MOL   H12015576   7.438   5.547   1.589 -0.9904 -0.5713 -0.6420
   49MOL   H12115577   7.382   5.252   1.608 -1.3919 -0.9577 -0.6547
   49MOL   H12215578   7.374   5.369   1.482  0.8661 -1.6209 -2.6505
   49MOL   H12315579   7.428   5.125   1.409  0.3106 -1.3561 -1.4778
   49MOL   H12415580   7.578   5.128   1.502  1.5029  2.2996  0.6093
   49MOL   H12515581   7.610   5.160   1.245  1.5104  1.9326 -0.3088
   49MOL   H12615582   7.652   5.304   1.336  0.0961  1.4250 -1.4841
   49MOL   H12715583   7.507   5.310   1.264 -0.7824 -1.4459 -0.6343
   49MOL   H12815584   7.356   5.419   1.794 -0.9847  2.6310 -1.0168
   49MOL   H12915585   7.513   5.423   1.868  1.7162  3.0015  0.6275
   49MOL   C13015586   7.398   5.612   1.878 -0.2098 -0.5497 -0.9961
   49MOL   O13115587   7.298   5.667   1.796  0.5403  0.3516  0.4245
   49MOL   C13215588   7.319   5.801   1.754 -0.6133 -0.3848  0.6981
   49MOL   C13315589   7.189   5.853   1.695  0.3405  0.0652 -0.4347
   49MOL   C13415590   7.131   5.755   1.588  0.1272  0.1343  0.2445
   49MOL   C13515591   7.347   5.562   2.015 -0.4985 -0.4354  0.5208
   49MOL   H13615592   7.479   5.684   1.892 -1.9419  0.7798  2.8645
   49MOL   H13715593   7.353   5.869   1.833  0.7780 -0.5109  0.2157
   49MOL   H13815594   7.395   5.817   1.678 -3.2130  1.7264 -1.5857
   49MOL   H13915595   7.212   5.948   1.646 -0.1230  0.1160 -0.5543
   49MOL   H14015596   7.113   5.881   1.767  1.7181 -0.9549  1.4523
   49MOL   H14115597   7.080   5.666   1.627  2.0554 -0.8878  0.4656
   49MOL   H14215598   7.208   5.714   1.522  2.9829  0.4040  3.3069
   49MOL   H14315599   7.070   5.815   1.521 -0.7637 -0.1042  0.8300
   49MOL   H14415600   7.248   5.522   1.991 -1.4211  1.4826  1.0322
   49MOL   H14515601   7.418   5.489   2.056 -1.6047 -1.0167  1.4387
   49MOL   C14615602   7.328   5.671   2.121  0.4982  0.5460 -0.2652
   49MOL   O14715603   7.444   5.747   2.151 -0.1424 -0.1223  0.1918
   49MOL   C14815604   7.543   5.695   2.230 -0.9333 -0.3122 -0.0329
   49MOL   C14915605   7.663   5.793   2.244  0.1267  0.0271  0.3208
   49MOL   C15015606   7.618   5.933   2.301  0.1670  0.0970 -0.6144
   49MOL   C15115607   7.214   5.770   2.082  0.3271  0.4479 -0.0564
   49MOL   H15215608   7.304   5.610   2.208 -1.5281  0.0373 -1.1528
   49MOL   H15315609   7.502   5.673   2.329 -0.4539  1.1664  0.5033
   49MOL   H15415610   7.583   5.600   2.193  1.5432  1.1427 -1.2204
   49MOL   H15515611   7.710   5.804   2.147  0.3560 -0.4436  0.3802
   49MOL   H15615612   7.733   5.735   2.303 -2.3826 -2.2860  1.1334
   49MOL   H15715613   7.697   5.998   2.339 -1.0642  1.1272  0.2141
   49MOL   H15815614   7.554   5.913   2.387 -1.5433  0.2649 -1.8321
   49MOL   H15915615   7.558   5.991   2.231  0.3776 -0.0988 -0.9569
   49MOL   H16015616   7.235   5.841   2.001 -0.2460 -0.5571 -1.1002
   49MOL   H16115617   7.127   5.718   2.043  0.3863 -0.4671  1.0316
   49MOL   C16215618   7.174   5.861   2.196  0.4271 -0.1809  0.6676
   49MOL   O16315619   7.094   5.970   2.151 -0.0473 -0.0280  0.3389
   49MOL   C16415620   7.163   6.095   2.144  0.5431  0.1014 -0.4528
   49MOL   C16515621   7.075   6.182   2.054  0.2493  0.1192  0.0970
   49MOL   C16615622   7.059   6.136   1.906  0.1121  0.2033 -0.2000
   49MOL   C16715623   7.094   5.783   2.301 -0.2498  0.0230  0.3409
   49MOL   H16815624   7.269   5.889   2.240  0.2408 -0.6757  1.4114
   49MOL   H16915625   7.186   6.128   2.246  1.4524  1.7165 -1.1565
   49MOL   H17015626   7.258   6.083   2.093  1.4671 -1.6883  1.6089
   49MOL   H17115627   7.116   6.283   2.061 -1.9557  1.1027 -0.8053
   49MOL   H17215628   6.978   6.189   2.102  1.6111  1.4348  2.7446
   49MOL   H17315629   7.140   6.065   1.887 -1.0050 -1.7924  2.1919
   49MOL   H17415630   7.060   6.225   1.843 -1.5861  1.5602  1.6152
   49MOL   H17515631   6.967   6.077   1.899  0.4648 -0.5697  1.2778
   49MOL   H17615632   7.006   5.755   2.244 -0.8006  1.7184  0.3607
   49MOL   H17715633   7.119   5.680   2.326 -1.9426 -0.1739  1.2953
   49MOL   C17815634   7.050   5.868   2.422  0.5448  1.0381  0.1375
   49MOL   O17915635   6.961   5.781   2.483 -0.3116 -0.1198  0.1832
   49MOL   C18015636   6.826   5.786   2.440  0.0859 -0.4702  0.4936
   49MOL   C18115637   6.749   5.664   2.493  0.0117  0.3293  0.1389
   49MOL   C18215638   6.751   5.635   2.642  0.1605 -0.4786 -0.0446
   49MOL   C18315639   7.159   5.910   2.514 -0.2353  0.1681 -0.5559
   49MOL   H18415640   7.000   5.958   2.385 -0.1416  0.0089 -1.4969
   49MOL   H18515641   6.784   5.876   2.484 -1.5131 -0.7038 -0.4949
   49MOL   H18615642   6.806   5.803   2.334 -0.3660  0.2695  0.6872
   49MOL   H18715643   6.802   5.578   2.450 -0.4705  0.3700 -0.5418
   49MOL   H18815644   6.646   5.667   2.457 -0.0713 -0.8621  0.2630
   49MOL   H18915645   6.702   5.713   2.700  2.3445 -2.5523  4.9351
   49MOL   H19015646   6.850   5.625   2.685 -0.5491 -1.4043  1.4018
   49MOL   H19115647   6.695   5.551   2.683 -2.0537  1.0350  0.1018
   49MOL   H19215648   7.201   5.819   2.556 -2.8538 -0.2026  1.3056
   49MOL   H19315649   7.239   5.951   2.451 -1.0179  1.1085 -0.9516
   49MOL   C19415650   7.108   6.007   2.622 -0.1651 -0.3018 -0.1774
   49MOL   O19515651   7.195   5.993   2.737  0.5112  0.8913 -0.1545
   49MOL   C19615652   7.160   5.885   2.821 -0.3641 -0.3641  0.4540
   49MOL   C19715653   7.212   5.929   2.961 -0.1322  0.0592  0.2298
   49MOL   C19815654   7.112   6.008   3.041  0.3191  0.8428 -0.2035
   49MOL   C19915655   7.105   6.161   2.586  0.3080 -0.1973  0.1191
   49MOL   H20015656   7.008   5.980   2.655  1.0974 -3.5509  1.1725
   49MOL   H20115657   7.051   5.876   2.817 -0.2487 -1.0141 -2.9763
   49MOL   H20215658   7.209   5.791   2.796 -1.4990 -0.9543  0.4250
   49MOL   H20315659   7.302   5.984   2.934 -0.3542  1.0185  1.4372
   49MOL   H20415660   7.237   5.839   3.017 -0.2529 -1.2841 -1.8249
   49MOL   H20515661   7.121   6.114   3.016 -3.0448  1.0956 -0.5867
   49MOL   H20615662   7.133   5.990   3.146 -0.0004  0.5824 -0.1817
   49MOL   H20715663   7.012   5.964   3.035 -0.3818  2.4489 -0.4400
   49MOL   H20815664   7.208   6.188   2.561  0.6029 -1.4303 -0.0293
   49MOL   H20915665   7.044   6.188   2.500 -0.9330 -0.8441  0.7769
   49MOL   C21015666   7.056   6.263   2.698  0.0738  0.1094  0.2935
   49MOL   O21115667   7.108   6.386   2.651  0.7434  0.1136 -0.2018
   49MOL   C21215668   7.158   6.475   2.745 -0.0170  0.2927 -0.5998
   49MOL   C21315669   7.188   6.618   2.687 -0.7583 -0.5309  0.3214
   49MOL   C21415670   7.064   6.703   2.669 -0.1785  0.7034  0.3970
   49MOL   C21515671   6.903   6.265   2.711 -0.2041 -0.3273  0.6702
   49MOL   H21615672   7.095   6.235   2.796 -1.8670  0.8377  1.3036
   49MOL   H21715673   7.088   6.479   2.828 -0.1911  0.8490 -0.7682
   49MOL   H21815674   7.253   6.438   2.783 -0.6568  0.8584  1.6008
   49MOL   H21915675   7.243   6.603   2.595 -2.8194  0.7254 -1.1480
   49MOL   H22015676   7.265   6.675   2.739  0.2149 -0.1691 -1.4835
   49MOL   H22115677   6.990   6.658   2.602  2.2975  0.6631 -2.4433
   49MOL   H22215678   7.098   6.791   2.613 -3.1216  1.3859 -0.3910
   49MOL   H22315679   7.022   6.740   2.762  0.1474  3.2492 -0.4223
   49MOL   H22415680   6.866   6.177   2.764  0.1197 -0.9138 -0.0614
   49MOL   H22515681   6.892   6.340   2.789  2.2725  0.1100  0.6633
   49MOL   C22615682   6.813   6.301   2.592  0.5689 -0.1820  0.2070
   49MOL   O22715683   6.800   6.191   2.497  0.6483  0.1841  0.3191
   49MOL   C22815684   6.789   6.239   2.361 -0.4558  1.1233 -0.6877
   49MOL   C22915685   6.756   6.121   2.276 -0.3918 -0.6682  0.0626
   49MOL   C23015686   6.613   6.066   2.307  0.9267  0.2405  0.1484
   49MOL   C23115687   6.673   6.350   2.636 -0.0657 -0.0496  0.2232
   49MOL   H23215688   6.861   6.387   2.545  1.4104 -1.1314 -0.6955
   49MOL   H23315689   6.713   6.317   2.351 -1.5070  0.2637  0.5067
   49MOL   H23415690   6.890   6.275   2.341  0.0934  0.1008  0.1769
   49MOL   H23515691   6.841   6.054   2.290  1.6788  1.7804 -0.3006
   49MOL   H23615692   6.767   6.154   2.173 -0.7252  1.3240  0.6432
   49MOL   H23715693   6.603   5.974   2.250 -0.7809  1.7190 -2.0282
   49MOL   H23815694   6.545   6.140   2.264  1.0498  1.3226  1.7811
   49MOL   H23915695   6.596   6.052   2.413  0.2417  1.3469  0.1977
   49MOL   H24015696   6.594   6.303   2.578  0.1935 -0.8196  0.4858
   49MOL   H24115697   6.665   6.311   2.738 -0.5356  0.3283  0.3358
   49MOL   C24215698   6.646   6.507   2.639  0.2148  0.7202 -1.0645
   49MOL   O24315699   6.513   6.539   2.653  0.2123 -0.4594 -0.3732
   49MOL   C24415700   6.437   6.542   2.534  0.0379 -0.0320 -0.2010
   49MOL   C24515701   6.290   6.523   2.578  0.8401  0.3392 -0.3969
   49MOL   C24615702   6.189   6.595   2.497 -0.0314 -0.0073  0.4084
   49MOL   C24715703   6.719   6.579   2.760 -0.5242  0.0756 -0.0147
   49MOL   H24815704   6.687   6.557   2.552  1.3460  1.6224 -0.0291
   49MOL   H24915705   6.436   6.640   2.486 -3.1238  0.3501  0.5076
   49MOL   H25015706   6.470   6.462   2.468  3.0420  0.8458  0.1694
   49MOL   H25115707   6.274   6.554   2.682  2.4418  0.2438 -0.0979
   49MOL   H25215708   6.267   6.417   2.574  0.4272  0.3776  0.8036
   49MOL   H25315709   6.203   6.548   2.400 -0.9839 -1.9132  1.1653
   49MOL   H25415710   6.203   6.703   2.495  0.2155 -0.0350  0.6274
   49MOL   H25515711   6.089   6.570   2.534  0.4035 -0.8984  1.0219
   49MOL   H25615712   6.709   6.519   2.851 -0.7934  0.2606  0.0804
   49MOL   H25715713   6.824   6.568   2.737 -0.4945  0.2396  0.0445
   49MOL   C25815714   6.694   6.722   2.786  0.8819 -0.6370 -0.4869
   49MOL   O25915715   6.782   6.738   2.901  0.0083 -0.0550 -0.2526
   49MOL   C26015716   6.770   6.855   2.981  0.8188 -0.0414  0.6770
   49MOL   C26115717   6.909   6.882   3.037  0.3820  1.0639 -0.6469
   49MOL   C26215718   6.918   7.012   3.120 -0.1365  0.1455  0.3444
   49MOL   C26315719   6.737   6.818   2.673  0.2695 -0.2780  0.1719
   49MOL   H26415720   6.590   6.720   2.820  1.2240  1.3777  0.8265
   49MOL   H26515721   6.746   6.939   2.916  1.0653  0.1970  0.8907
   49MOL   H26615722   6.695   6.868   3.059 -0.8104  1.9377 -1.1692
   49MOL   H26715723   6.983   6.892   2.958  2.1618 -0.0707  0.8097
   49MOL   H26815724   6.937   6.795   3.097  0.9336 -0.5196 -3.1223
   49MOL   H26915725   7.023   7.026   3.145 -0.5085 -0.2121  2.1944
   49MOL   H27015726   6.875   6.992   3.219  1.8354  2.5120  1.7425
   49MOL   H27115727   6.886   7.098   3.062  0.5060  0.4994  0.5071
   49MOL   H27215728   6.816   6.887   2.703  1.6096 -1.4154 -0.6856
   49MOL   H27315729   6.785   6.763   2.592 -0.0856 -1.2671  0.6265
   49MOL   C27415730   6.611   6.889   2.619 -0.3562  0.4533  0.4625
   49MOL   O27515731   6.543   6.954   2.726 -0.4525  0.1826  0.2491
   49MOL   C27615732   6.410   6.914   2.718 -0.4837 -0.5378 -0.0380
   49MOL   C27715733   6.331   6.997   2.817  0.8624  0.7216  0.0398
   49MOL   C27815734   6.344   6.955   2.964  0.5270 -0.1216 -0.1680
   49MOL   C27915735   6.643   6.998   2.523 -0.2874 -0.4514 -0.4377
   49MOL   H28015736   6.555   6.807   2.574 -0.1656  0.6076 -0.0615
   49MOL   H28115737   6.376   6.930   2.616 -0.9351  1.8810  0.4734
   49MOL   H28215738   6.395   6.809   2.744 -0.5230 -0.1938  1.4007
   49MOL   H28315739   6.228   6.974   2.792  0.5297 -0.0450  1.9756
   49MOL   H28415740   6.334   7.105   2.802 -0.4559  0.7861  0.2088
   49MOL   H28515741   6.286   6.869   2.996  0.3585  0.9007  2.3547
   49MOL   H28615742   6.310   7.043   3.018  0.9287  0.1579 -0.3731
   49MOL   H28715743   6.447   6.935   2.991 -0.2200 -2.7134  0.9040
   49MOL   H28815744   6.551   7.055   2.506  0.1956  0.6627  0.6017
   49MOL   H28915745   6.716   7.067   2.566 -2.1164  1.2970 -0.0588
   49MOL   C29015746   6.701   6.955   2.387  0.3202  0.4060  0.2636
   49MOL   O29115747   6.590   6.954   2.288 -0.0359  0.2233 -0.2694
   49MOL   C29215748   6.572   6.831   2.219 -0.5408  0.2277  0.4126
   49MOL   C29315749   6.446   6.820   2.130 -0.1905  0.0785 -0.4911
   49MOL   C29415750   6.321   6.830   2.215  0.1927 -1.0305 -0.1071
   49MOL   C29515751   6.770   7.071   2.324 -0.4881 -0.2719 -0.0686
   49MOL   H29615752   6.753   6.859   2.388  0.6052  0.5568  0.2529
   49MOL   H29715753   6.653   6.803   2.151 -0.4214 -0.1589  0.7104
   49MOL   H29815754   6.573   6.757   2.298 -1.0484 -0.2754 -0.0469
   49MOL   H29915755   6.447   6.725   2.077 -1.7406 -0.6177  0.6999
   49MOL   H30015756   6.457   6.899   2.056 -1.8767 -1.4244 -2.3919
   49MOL   H30115757   6.241   6.874   2.155 -0.1770  0.7409  1.6467
   49MOL   H30215758   6.329   6.860   2.319 -0.2845 -0.0370 -0.3560
   49MOL   H30315759   6.278   6.732   2.232 -0.8155 -0.1367  2.5971
   49MOL   H30415760   6.783   7.053   2.217  1.5545  1.3793 -0.1456
   49MOL   H30515761   6.698   7.152   2.313 -0.8945 -0.5653  0.4240
   49MOL   C30615762   6.912   7.109   2.378 -0.5970 -0.2935 -0.2984
   49MOL   O30715763   7.011   7.043   2.297 -0.3270 -0.2097 -0.0178
   49MOL   C30815764   7.136   7.006   2.360 -0.4628 -0.2638 -0.1684
   49MOL   C30915765   7.210   6.895   2.278 -0.6963  0.6050  0.0218
   49MOL   C31015766   7.335   6.853   2.345 -0.0021  0.2776 -0.0575
   49MOL   C31115767   6.933   7.255   2.361  0.1862  1.0354 -0.6275
   49MOL   H31215768   6.920   7.091   2.485 -1.9075  0.9531  0.0300
   49MOL   H31315769   7.194   7.099   2.367  2.0440 -1.8912  1.4694
   49MOL   H31415770   7.112   6.978   2.462 -1.6078  1.3347  0.0246
   49MOL   H31515771   7.213   6.914   2.170 -0.9674 -2.9790 -0.6863
   49MOL   H31615772   7.150   6.804   2.274  0.1672  0.1158 -4.2412
   49MOL   H31715773   7.333   6.751   2.382 -0.2137  0.2606 -0.1203
   49MOL   H31815774   7.367   6.918   2.428  0.6464  0.8266 -0.7293
   49MOL   H31915775   7.413   6.848   2.269  0.6261 -0.7648  0.6316
   49MOL   H32015776   7.034   7.285   2.392 -0.4501  1.7951  0.7532
   49MOL   H32115777   6.919   7.275   2.255 -0.8848 -1.1572 -0.9336
   49MOL   H32215778   6.870   7.310   2.430 -0.7909 -0.8636  0.0460
   50MOL     C115779   4.004   1.733   2.734 -0.1974  0.0948  0.2572
   50MOL     O215780   4.097   1.836   2.683  0.4167  0.7639  0.3366
   50MOL     C315781   4.033   1.960   2.685  0.0682  0.4379 -0.4001
   50MOL     C415782   3.969   1.996   2.555  0.1029 -0.0339 -0.3599
   50MOL     C515783   3.921   2.141   2.560 -0.2942  0.0734 -0.4744
   50MOL     C615784   4.075   1.595   2.747 -0.2971 -0.0052 -0.2827
   50MOL     H715785   3.921   1.709   2.668  0.3419 -2.3627  0.4003
   50MOL     H815786   3.967   1.975   2.770 -1.3334 -0.6849 -1.2456
   50MOL     H915787   4.116   2.023   2.714  0.6891 -1.8329  3.0062
   50MOL    H1015788   3.886   1.928   2.534  0.5729 -0.7336  0.0054
   50MOL    H1115789   4.046   1.986   2.478 -0.3471 -3.1555 -0.4597
   50MOL    H1215790   3.839   2.162   2.628 -0.7675  3.1910 -1.9158
   50MOL    H1315791   3.893   2.171   2.459  0.6021  1.4413 -0.3309
   50MOL    H1415792   4.012   2.196   2.584  0.6271 -1.5687 -0.0927
   50MOL    H1515793   4.005   1.516   2.773 -1.4229  0.7181 -1.0654
   50MOL    H1615794   4.125   1.578   2.652 -1.0596  1.0892 -0.8820
   50MOL    H1715795   3.954   1.766   2.824  0.3192  1.0040  0.2159
   50MOL    C1815796   4.188   1.596   2.851 -0.4001  0.3130 -0.5248
   50MOL    O1915797   4.108   1.597   2.974 -0.4256 -0.2253  0.9218
   50MOL    C2015798   4.106   1.719   3.057 -0.6713 -0.2838  0.4718
   50MOL    C2115799   4.231   1.715   3.145 -0.3956 -0.2570 -0.3760
   50MOL    C2215800   4.222   1.585   3.231  0.2189 -0.9097 -0.1396
   50MOL    C2315801   4.289   1.472   2.846  0.1037 -0.3397  0.3292
   50MOL    H2415802   4.250   1.685   2.841 -0.5812  0.3513 -1.3657
   50MOL    H2515803   4.096   1.809   2.997 -1.4662  0.0862  1.1550
   50MOL    H2615804   4.014   1.718   3.115 -1.0116  0.8617 -0.0276
   50MOL    H2715805   4.220   1.800   3.212 -2.8084 -2.1487  1.7301
   50MOL    H2815806   4.320   1.718   3.081 -0.5926  2.7218 -0.5699
   50MOL    H2915807   4.231   1.499   3.165 -1.4829 -1.2224  0.0005
   50MOL    H3015808   4.130   1.574   3.289  0.0502 -0.6693 -0.3600
   50MOL    H3115809   4.305   1.586   3.302  0.2104  1.2309 -0.1281
   50MOL    H3215810   4.331   1.457   2.945 -0.3842 -0.0073  0.5874
   50MOL    H3315811   4.240   1.377   2.824 -0.7971  0.4088 -0.9011
   50MOL    C3415812   4.404   1.483   2.751 -0.5290 -0.4167 -0.9818
   50MOL    O3515813   4.513   1.395   2.801  0.1635 -0.6718  0.2099
   50MOL    C3615814   4.594   1.460   2.898 -0.2949  0.0138  0.2549
   50MOL    C3715815   4.693   1.352   2.948  0.2254 -0.1809  0.2582
   50MOL    C3815816   4.817   1.415   3.024 -0.0175  0.0483 -0.6170
   50MOL    C3915817   4.373   1.444   2.607 -0.0672 -0.9362  0.5421
   50MOL    H4015818   4.441   1.585   2.745  0.4457 -0.7223 -0.2974
   50MOL    H4115819   4.654   1.541   2.858  0.1407 -0.0188  0.8259
   50MOL    H4215820   4.545   1.504   2.985 -1.7649 -1.4795  0.2023
   50MOL    H4315821   4.748   1.301   2.869  0.5970  0.2380  0.2454
   50MOL    H4415822   4.638   1.274   3.001 -0.5134  0.7353  0.8524
   50MOL    H4515823   4.866   1.495   2.968  1.3150  0.6661  1.3703
   50MOL    H4615824   4.889   1.342   3.061  0.5114  1.3413  0.9643
   50MOL    H4715825   4.794   1.462   3.120  1.1691  1.5663 -1.0575
   50MOL    H4815826   4.402   1.338   2.607  1.8598 -0.4321 -0.6973
   50MOL    H4915827   4.266   1.430   2.590 -0.1090  1.2810 -1.1403
   50MOL    C5015828   4.448   1.512   2.494  0.6421  0.0247 -0.2682
   50MOL    O5115829   4.429   1.651   2.502  0.3251 -0.3780 -0.3124
   50MOL    C5215830   4.450   1.723   2.380 -0.4226 -0.3694  0.1079
   50MOL    C5315831   4.385   1.866   2.398  0.3827 -0.3208 -0.5952
   50MOL    C5415832   4.441   1.971   2.303 -0.3695  0.3906  0.0429
   50MOL    C5515833   4.595   1.474   2.501  0.5070  0.4739  0.1168
   50MOL    H5615834   4.403   1.488   2.398  0.3991  1.1054 -0.4318
   50MOL    H5715835   4.558   1.740   2.374 -1.0638  4.9762  1.1324
   50MOL    H5815836   4.413   1.670   2.293  0.1567  0.9094 -0.9352
   50MOL    H5915837   4.404   1.894   2.501  0.6206 -0.6561 -0.5484
   50MOL    H6015838   4.280   1.844   2.377  0.7089 -1.3706 -1.2011
   50MOL    H6115839   4.393   2.065   2.331  0.5011  0.8733 -0.0805
   50MOL    H6215840   4.404   1.947   2.203 -1.7810 -1.0745  0.8865
   50MOL    H6315841   4.549   1.977   2.313 -0.2016  0.2321 -1.4851
   50MOL    H6415842   4.660   1.551   2.543 -0.4767  0.9140  0.8522
   50MOL    H6515843   4.618   1.387   2.563 -1.3335 -1.4204 -1.7872
   50MOL    C6615844   4.663   1.449   2.364  0.1077  0.6231  0.6335
   50MOL    O6715845   4.799   1.413   2.393 -0.4727  0.2701  0.1828
   50MOL    C6815846   4.901   1.497   2.336  0.0679 -0.5770 -0.0507
   50MOL    C6915847   5.035   1.460   2.404 -0.2530  0.4294 -0.1763
   50MOL    C7015848   5.143   1.564   2.366 -0.1155 -0.3674 -0.5778
   50MOL    C7115849   4.597   1.327   2.284 -1.0209  0.0068 -0.1500
   50MOL    H7215850   4.660   1.535   2.297  1.9939 -0.5067 -0.9716
   50MOL    H7315851   4.921   1.494   2.229 -0.1550 -0.7840 -0.0887
   50MOL    H7415852   4.872   1.598   2.363 -1.8730 -1.5246  1.5209
   50MOL    H7515853   5.067   1.359   2.380 -1.5616 -0.4018  1.4921
   50MOL    H7615854   5.034   1.463   2.513  1.3845 -1.1661 -0.0999
   50MOL    H7715855   5.109   1.665   2.388 -0.2630 -0.8493  1.5381
   50MOL    H7815856   5.182   1.562   2.264 -1.4736  0.1134 -1.1222
   50MOL    H7915857   5.224   1.554   2.438  0.1461 -0.8489 -0.9283
   50MOL    H8015858   4.494   1.346   2.255 -0.5375 -0.7980 -2.5280
   50MOL    H8115859   4.652   1.323   2.190 -0.1845 -0.4920  0.3566
   50MOL    C8215860   4.615   1.184   2.348 -0.3716 -0.3347 -1.0244
   50MOL    O8315861   4.525   1.080   2.298  0.3706  0.3354 -0.6159
   50MOL    C8415862   4.391   1.080   2.341 -1.0651  0.9271 -0.2243
   50MOL    C8515863   4.304   1.009   2.229 -0.2471  0.1613  0.1603
   50MOL    C8615864   4.332   1.061   2.087 -0.0942  0.4029  0.0680
   50MOL    C8715865   4.752   1.120   2.318 -1.0308 -0.3474  0.4262
   50MOL    H8815866   4.586   1.200   2.452  0.5186  0.2986 -0.8692
   50MOL    H8915867   4.391   1.025   2.434  2.5428 -0.2913 -0.8564
   50MOL    H9015868   4.353   1.182   2.355  0.6140  1.4002  0.9468
   50MOL    H9115869   4.198   1.004   2.255 -0.4538 -0.7344 -0.8421
   50MOL    H9215870   4.336   0.906   2.216 -0.0759  0.1417  0.7081
   50MOL    H9315871   4.256   1.021   2.019 -1.2098 -0.3588  1.7307
   50MOL    H9415872   4.428   1.020   2.056  0.8691  2.0601  0.7919
   50MOL    H9515873   4.330   1.169   2.079  3.5603  0.4868 -0.3509
   50MOL    H9615874   4.740   1.077   2.218 -0.7277  0.5511  0.0026
   50MOL    H9715875   4.835   1.191   2.319 -0.9894 -0.2777 -2.4814
   50MOL    C9815876   4.795   1.016   2.424  0.8197  0.3425 -0.5254
   50MOL    O9915877   4.898   0.929   2.383  0.1167  0.0067 -0.0899
   50MOL   C10015878   4.868   0.841   2.278  0.5281 -1.1661  0.0339
   50MOL   C10115879   4.974   0.736   2.279  0.6181 -0.0928 -0.1990
   50MOL   C10215880   4.978   0.648   2.160 -0.1885 -0.1369  0.2721
   50MOL   C10315881   4.849   1.089   2.547  0.2715 -0.1161  0.5718
   50MOL   H10415882   4.710   0.951   2.448  1.9158 -0.4025  1.5009
   50MOL   H10515883   4.770   0.794   2.283 -0.4173  0.8879  0.9709
   50MOL   H10615884   4.873   0.889   2.180 -3.4613 -0.0906  0.2799
   50MOL   H10715885   4.970   0.675   2.370  0.4539  0.0123 -0.1362
   50MOL   H10815886   5.069   0.790   2.270  0.6150 -0.0879 -0.2039
   50MOL   H10915887   5.008   0.712   2.076  1.1435 -0.5464  0.4275
   50MOL   H11015888   4.879   0.608   2.140 -1.1465  2.3592 -0.2442
   50MOL   H11115889   5.055   0.572   2.172  1.3779  1.8792  3.8145
   50MOL   H11215890   4.915   1.169   2.514 -1.9635  0.1509 -3.5126
   50MOL   H11315891   4.772   1.143   2.603 -0.1336 -0.4609  0.3531
   50MOL   C11415892   4.913   1.001   2.658  0.8358 -0.0151  0.1397
   50MOL   O11515893   4.999   1.081   2.743  0.1864  0.3465 -0.3845
   50MOL   C11615894   5.134   1.100   2.706  0.2550 -0.1856 -0.9068
   50MOL   C11715895   5.205   1.164   2.834  0.5391  0.1430 -0.7754
   50MOL   C11815896   5.356   1.185   2.810  0.9911  0.0717 -0.0859
   50MOL   C11915897   4.800   0.933   2.748  0.0020  0.7742  0.4561
   50MOL   H12015898   4.968   0.918   2.612  2.1946 -0.3188  2.1904
   50MOL   H12115899   5.178   1.001   2.694  0.3251 -0.4420  1.2249
   50MOL   H12215900   5.138   1.172   2.625 -1.2253  1.7174  0.6404
   50MOL   H12315901   5.192   1.105   2.925 -2.4201 -0.6335 -1.6709
   50MOL   H12415902   5.165   1.264   2.848 -1.2693 -0.6471 -0.2176
   50MOL   H12515903   5.407   1.213   2.902  0.4010 -1.3406  0.6777
   50MOL   H12615904   5.364   1.264   2.735  0.0105  1.9487  1.7180
   50MOL   H12715905   5.407   1.092   2.784  0.3273 -0.9779  2.2419
   50MOL   H12815906   4.733   1.006   2.794 -3.6695 -1.3682 -1.3135
   50MOL   H12915907   4.718   0.895   2.688 -0.5358  2.0317  0.3760
   50MOL   C13015908   4.847   0.832   2.852  0.3267 -0.4944  0.1845
   50MOL   O13115909   4.758   0.846   2.960  0.1961  0.1185  0.2145
   50MOL   C13215910   4.801   0.905   3.081  0.1456  0.1576  0.4294
   50MOL   C13315911   4.691   0.890   3.185 -0.6852 -0.1046  0.8172
   50MOL   C13415912   4.695   0.748   3.249 -0.0081  1.2250 -0.0388
   50MOL   C13515913   4.840   0.682   2.807  0.4187  0.8528  0.9404
   50MOL   H13615914   4.951   0.845   2.882  1.0203  0.9137 -2.6689
   50MOL   H13715915   4.898   0.870   3.116  0.1996 -1.6090 -1.4455
   50MOL   H13815916   4.814   1.012   3.060  0.6311 -0.2725 -1.5555
   50MOL   H13915917   4.596   0.899   3.132  0.0496 -1.8074 -0.8511
   50MOL   H14015918   4.698   0.974   3.254 -1.2596  2.4459 -2.1123
   50MOL   H14115919   4.599   0.722   3.294 -0.7212  1.3850 -1.4452
   50MOL   H14215920   4.776   0.748   3.322  0.2703 -0.8718 -0.3330
   50MOL   H14315921   4.720   0.677   3.170  0.4299 -1.6386  2.5713
   50MOL   H14415922   4.920   0.678   2.733 -0.2784 -1.3147  0.2917
   50MOL   H14515923   4.850   0.627   2.901  0.2671 -1.0159 -0.1293
   50MOL   C14615924   4.719   0.629   2.739  0.6499  0.0078  0.2549
   50MOL   O14715925   4.733   0.488   2.726 -0.1008  0.1627  0.4820
   50MOL   C14815926   4.778   0.445   2.597  0.0219 -0.2599  0.6653
   50MOL   C14915927   4.767   0.294   2.575 -0.3855  0.6482 -0.3772
   50MOL   C15015928   4.804   0.261   2.434  0.7685 -0.2315 -0.2353
   50MOL   C15115929   4.574   0.652   2.804 -0.5219 -0.4775  0.4533
   50MOL   H15215930   4.710   0.676   2.642  2.2313 -0.8802 -0.3389
   50MOL   H15315931   4.716   0.491   2.520  1.4167  0.2794 -0.1509
   50MOL   H15415932   4.885   0.461   2.585  0.2685 -1.8699  0.6607
   50MOL   H15515933   4.674   0.241   2.598  0.2348 -0.9475 -1.5013
   50MOL   H15615934   4.848   0.238   2.620 -0.9455 -0.5115 -0.7853
   50MOL   H15715935   4.725   0.299   2.369  0.1009  0.7352  1.1100
   50MOL   H15815936   4.808   0.153   2.427 -0.4108 -0.3837  1.1145
   50MOL   H15915937   4.897   0.310   2.405  1.1728 -0.8913 -0.0565
   50MOL   H16015938   4.575   0.630   2.911 -1.1611 -0.7079  0.4101
   50MOL   H16115939   4.561   0.759   2.793 -1.9508 -0.8182 -1.2972
   50MOL   C16215940   4.452   0.594   2.731  0.3346 -0.7695  0.2924
   50MOL   O16315941   4.460   0.595   2.585 -0.5123  0.7387 -0.3389
   50MOL   C16415942   4.462   0.725   2.523  0.3437  0.0048 -0.2896
   50MOL   C16515943   4.505   0.702   2.375  0.2646 -0.3710 -0.5366
   50MOL   C16615944   4.400   0.627   2.294 -0.4691  0.0344  0.3223
   50MOL   C16715945   4.424   0.446   2.768 -0.1336 -0.3480  0.4097
   50MOL   H16815946   4.360   0.639   2.769  0.4381 -0.4207  0.1262
   50MOL   H16915947   4.357   0.754   2.529 -0.1438 -1.5154 -1.2802
   50MOL   H17015948   4.532   0.796   2.567  1.7974 -0.7613 -1.3402
   50MOL   H17115949   4.595   0.642   2.370  1.1150  0.7012  1.2803
   50MOL   H17215950   4.525   0.798   2.328  0.7874  0.0184  0.4696
   50MOL   H17315951   4.393   0.524   2.328 -0.4997  0.3175  1.1807
   50MOL   H17415952   4.419   0.622   2.187 -2.9589  0.1193 -0.1617
   50MOL   H17515953   4.303   0.677   2.303 -1.0596 -0.9714 -0.4282
   50MOL   H17615954   4.496   0.383   2.716 -0.4609 -0.6852  0.3590
   50MOL   H17715955   4.438   0.424   2.874 -2.2179 -1.4300  0.4897
   50MOL   C17815956   4.281   0.387   2.740 -0.5211  0.1179 -0.4732
   50MOL   O17915957   4.295   0.247   2.746  0.1136 -0.1597  0.2798
   50MOL   C18015958   4.324   0.187   2.621  0.0555  0.4877 -0.5038
   50MOL   C18115959   4.355   0.039   2.657  0.7425  0.5042  0.4701
   50MOL   C18215960   4.438   7.788   2.552 -0.5201 -0.3808  0.0197
   50MOL   C18315961   4.178   0.440   2.850 -0.3265 -0.1613  0.6586
   50MOL   H18415962   4.252   0.424   2.642 -0.7742 -1.3561 -0.9651
   50MOL   H18515963   4.258   0.190   2.534 -2.4786 -0.4102  1.3112
   50MOL   H18615964   4.419   0.217   2.576 -1.1850  2.0952 -2.1105
   50MOL   H18715965   4.262   7.819   2.685  1.7452 -0.9243  1.4115
   50MOL   H18815966   4.412   0.052   2.749  1.7323  0.9146 -0.1777
   50MOL   H18915967   4.528   0.017   2.527 -2.5671  3.3053  0.5876
   50MOL   H19015968   4.387   7.749   2.464 -0.4433 -0.9329  0.2221
   50MOL   H19115969   4.476   7.698   2.599  4.5570  0.7757 -1.5356
   50MOL   H19215970   4.221   0.408   2.945  2.6275  1.7804  0.0491
   50MOL   H19315971   4.175   0.548   2.857 -0.8679 -0.2524  1.8590
   50MOL   C19415972   4.039   0.389   2.826 -0.2645  0.4213 -0.2683
   50MOL   O19515973   3.984   0.428   2.952 -0.2143  0.1660  0.3733
   50MOL   C19615974   3.868   0.356   2.983  0.3344 -0.3634  0.3748
   50MOL   C19715975   3.836   0.385   3.128  0.0128 -0.1216 -0.1718
   50MOL   C19815976   3.696   0.345   3.161 -0.3282  0.3670 -1.2129
   50MOL   C19915977   3.963   0.458   2.715 -0.7295 -0.1698  0.2627
   50MOL   H20015978   4.040   0.280   2.826  0.0719  0.3412  3.3227
   50MOL   H20115979   3.782   0.385   2.923  0.6392 -1.5578 -0.6667
   50MOL   H20215980   3.887   0.249   2.975 -0.8926 -0.5245 -0.3251
   50MOL   H20315981   3.845   0.491   3.152  1.7120  0.2466 -2.3188
   50MOL   H20415982   3.909   0.337   3.193 -0.4610 -0.2890  0.2423
   50MOL   H20515983   3.625   0.387   3.090 -0.0398  1.3839 -0.9120
   50MOL   H20615984   3.666   0.388   3.257  1.1050  0.2643 -0.7067
   50MOL   H20715985   3.696   0.236   3.163  0.7664  0.3713 -0.3297
   50MOL   H20815986   3.863   0.482   2.752 -0.6677 -0.9445  0.9454
   50MOL   H20915987   4.000   0.558   2.690 -1.5273 -0.2040 -1.0889
   50MOL   C21015988   3.954   0.378   2.586  0.0842 -0.7002 -0.6356
   50MOL   O21115989   3.872   0.258   2.608  0.4812  0.5537  0.3348
   50MOL   C21215990   3.938   0.133   2.600 -0.1596  0.4110 -0.5781
   50MOL   C21315991   3.841   0.023   2.643  0.6620  0.5798 -0.2595
   50MOL   C21415992   3.794   0.032   2.778  0.1672  0.5033  0.7925
   50MOL   C21515993   3.891   0.466   2.473 -0.0451 -0.0247 -0.4477
   50MOL   H21615994   4.052   0.351   2.548  0.6869 -2.7871  2.2785
   50MOL   H21715995   3.981   0.122   2.501 -2.6193 -1.9980 -1.4717
   50MOL   H21815996   4.023   0.120   2.667 -0.2265  1.4274 -0.2978
   50MOL   H21915997   3.889   7.755   2.623 -1.4675 -0.8058  0.9872
   50MOL   H22015998   3.752   0.038   2.582  0.8870  2.2449 -0.2054
   50MOL   H22115999   3.782   0.137   2.807 -1.6286  0.7787 -0.8341
   50MOL   H22216000   3.862   7.808   2.845  0.7108  2.7007  2.0172
   50MOL   H22316001   3.696   7.813   2.788  0.1756  0.7408  2.1108
   50MOL   H22416002   3.783   0.463   2.493 -0.0730  1.0029 -0.3804
   50MOL   H22516003   3.913   0.573   2.478  1.2004 -0.3146  0.2525
   50MOL   C22616004   3.898   0.407   2.332 -0.0900  0.1765 -0.1309
   50MOL   O22716005   3.787   0.434   2.251  0.5648  0.4954  0.0621
   50MOL   C22816006   3.684   0.330   2.244  0.9010 -0.1024 -0.0371
   50MOL   C22916007   3.571   0.358   2.146  0.0062  0.2474  0.3877
   50MOL   C23016008   3.627   0.379   2.015 -0.0420  0.5746  0.2294
   50MOL   C23116009   4.019   0.480   2.270 -0.1190  0.3375  0.0897
   50MOL   H23216010   3.913   0.299   2.332  2.1366  0.4624 -0.9236
   50MOL   H23316011   3.740   0.240   2.220  3.6568  1.2796  0.9931
   50MOL   H23416012   3.638   0.304   2.339 -0.7147  2.2555 -0.1332
   50MOL   H23516013   3.521   0.447   2.185 -2.0099 -1.1213  1.0438
   50MOL   H23616014   3.493   0.282   2.143 -1.2806  1.6169 -2.0745
   50MOL   H23716015   3.552   0.390   1.937  1.6744 -0.5536 -1.6329
   50MOL   H23816016   3.697   0.300   1.986  1.0431  0.9093  1.8277
   50MOL   H23916017   3.684   0.471   2.025  1.0588  0.1565 -1.9249
   50MOL   H24016018   3.991   0.585   2.268 -0.4292  0.2716  0.7900
   50MOL   H24116019   4.101   0.476   2.341 -0.8632  0.0683  0.9506
   50MOL   C24216020   4.077   0.437   2.133 -1.0894  0.1491 -0.3965
   50MOL   O24316021   4.169   0.546   2.091  0.4758  0.0653 -0.2840
   50MOL   C24416022   4.121   0.618   1.979 -0.2108  0.2222  0.9827
   50MOL   C24516023   4.231   0.719   1.935  0.5028  0.4192  0.4835
   50MOL   C24616024   4.360   0.666   1.878  0.1091 -0.1722  0.9873
   50MOL   C24716025   4.158   0.309   2.133 -0.0451  0.5979  0.6015
   50MOL   H24816026   3.992   0.445   2.065 -0.5078 -1.9264 -1.3926
   50MOL   H24916027   4.102   0.542   1.902 -0.5344  1.1600  0.1276
   50MOL   H25016028   4.024   0.667   1.991 -0.3456  0.5996 -1.3722
   50MOL   H25116029   4.261   0.790   2.012 -0.6848  1.1399  0.2845
   50MOL   H25216030   4.184   0.789   1.866 -2.9992 -1.7819  0.5009
   50MOL   H25316031   4.345   0.609   1.786  0.7585  0.2212  0.6337
   50MOL   H25416032   4.393   0.587   1.946 -0.6577 -1.3073  0.0717
   50MOL   H25516033   4.433   0.740   1.847 -0.2722 -0.6566 -1.1509
   50MOL   H25616034   4.246   0.344   2.187 -0.2794  2.8371 -0.4200
   50MOL   H25716035   4.104   0.249   2.207  0.1291  0.0839  0.3102
   50MOL   C25816036   4.169   0.224   2.002  0.3291 -0.2131 -0.2715
   50MOL   O25916037   4.227   0.096   2.031 -0.0896 -0.2535 -0.3330
   50MOL   C26016038   4.367   0.097   2.048 -0.0913 -0.1359 -0.3288
   50MOL   C26116039   4.406   7.780   2.096  0.2130 -0.0471 -0.3021
   50MOL   C26216040   4.558   7.770   2.131  0.8041  0.7299 -0.3758
   50MOL   C26316041   4.037   0.203   1.928  0.0328 -0.1440  0.7330
   50MOL   H26416042   4.233   0.282   1.936 -2.9664  1.9136 -1.6854
   50MOL   H26516043   4.416   0.122   1.954  1.2808  0.3058  0.4979
   50MOL   H26616044   4.392   0.170   2.125 -2.6433  0.8214 -0.3372
   50MOL   H26716045   4.380   7.709   2.018  0.2329  0.7423 -1.0333
   50MOL   H26816046   4.338   7.760   2.179 -2.8275  3.1409 -1.8608
   50MOL   H26916047   4.586   7.816   2.226  0.5083  2.2022 -0.9984
   50MOL   H27016048   4.619   7.809   2.050  1.2241  1.5487  0.3327
   50MOL   H27116049   4.592   7.667   2.142 -0.7278  0.2699  0.2484
   50MOL   H27216050   3.969   0.157   2.000  0.5178 -1.4062  0.3968
   50MOL   H27316051   3.990   0.300   1.912 -0.0962  0.2070  3.0280
   50MOL   C27416052   4.060   0.125   1.797 -0.2785 -0.2847 -0.2983
   50MOL   O27516053   4.002   7.826   1.818  0.1637  0.2108 -0.0392
   50MOL   C27616054   4.081   7.716   1.806 -0.5868  0.9950 -0.0064
   50MOL   C27716055   4.005   7.585   1.806 -0.2613 -0.6436 -0.6486
   50MOL   C27816056   3.911   7.582   1.685  0.4391  0.0484 -0.3688
   50MOL   C27916057   3.984   0.190   1.675 -0.5671  0.3838 -0.1719
   50MOL   H28016058   4.165   0.110   1.774 -0.0001  0.9328  0.1329
   50MOL   H28116059   4.139   7.731   1.715 -0.7336  1.3034 -0.0506
   50MOL   H28216060   4.147   7.708   1.892 -0.3000  1.9986 -0.1284
   50MOL   H28316061   3.955   7.580   1.903  0.3911  2.0297 -0.1351
   50MOL   H28416062   4.068   7.496   1.803  0.8102 -0.0216  1.6809
   50MOL   H28516063   3.847   7.670   1.681 -1.1141 -1.0169  0.6398
   50MOL   H28616064   3.841   7.500   1.691 -1.1847  1.5017  0.9763
   50MOL   H28716065   3.960   7.579   1.588  0.4664  0.8059 -0.3808
   50MOL   H28816066   3.989   0.131   1.583  0.0923  0.0773  0.0584
   50MOL   H28916067   3.881   0.185   1.710 -0.9312 -0.2986 -1.3215
   50MOL   C29016068   4.021   0.334   1.633 -0.7337  1.3040 -0.5225
   50MOL   O29116069   4.143   0.311   1.560 -0.1687  0.3656 -0.7648
   50MOL   C29216070   4.221   0.423   1.531 -0.5238 -0.2586 -0.4787
   50MOL   C29316071   4.300   0.406   1.395 -0.5369 -0.3080  0.1006
   50MOL   C29416072   4.400   0.520   1.362 -0.8123 -0.0438 -0.9070
   50MOL   C29516073   3.913   0.410   1.554  0.7060 -0.0699 -0.1252
   50MOL   H29616074   4.042   0.400   1.717 -1.7369 -1.1987  1.7912
   50MOL   H29716075   4.154   0.509   1.525 -2.0687 -1.4653 -0.8867
   50MOL   H29816076   4.289   0.445   1.614 -0.2586  1.6437 -1.1725
   50MOL   H29916077   4.239   0.398   1.305 -1.4222 -0.1246  0.6822
   50MOL   H30016078   4.349   0.309   1.384 -0.5385 -0.4375  1.2147
   50MOL   H30116079   4.466   0.491   1.280  1.3835 -0.3920  0.9404
   50MOL   H30216080   4.467   0.547   1.443 -0.4542 -1.8215 -0.5866
   50MOL   H30316081   4.333   0.604   1.345 -4.0800 -2.3999 -0.1230
   50MOL   H30416082   3.962   0.490   1.499 -0.5133  0.3442 -0.6183
   50MOL   H30516083   3.883   0.351   1.467  0.2474  1.2918 -0.8935
   50MOL   C30616084   3.784   0.465   1.618 -0.7098 -0.2924 -0.1663
   50MOL   O30716085   3.713   0.362   1.690  0.0142 -0.2369  0.0130
   50MOL   C30816086   3.636   0.283   1.595  0.1461  0.0478  0.1636
   50MOL   C30916087   3.578   0.180   1.674  0.2452 -0.0204 -0.1040
   50MOL   C31016088   3.457   0.114   1.609 -0.2486 -0.2586  0.2713
   50MOL   C31116089   3.814   0.564   1.725 -0.6170  0.4331  0.1284
   50MOL   H31216090   3.734   0.519   1.538  0.7453  0.1657 -0.7874
   50MOL   H31316091   3.564   0.349   1.546  1.1349  1.0722  0.0699
   50MOL   H31416092   3.698   0.232   1.521  1.1165  1.4428 -0.0047
   50MOL   H31516093   3.528   0.224   1.760  0.1496 -1.0837  0.3904
   50MOL   H31616094   3.656   0.114   1.712 -0.9558 -0.4518  1.6977
   50MOL   H31716095   3.373   0.180   1.588 -0.1731 -0.2222  0.0840
   50MOL   H31816096   3.426   0.037   1.680  1.1641 -2.3841 -1.3595
   50MOL   H31916097   3.493   0.068   1.517 -0.9996  0.9316 -0.6276
   50MOL   H32016098   3.720   0.601   1.766  0.6979 -0.7789  4.6146
   50MOL   H32116099   3.875   0.530   1.809  1.5173 -1.1324 -1.9930
   50MOL   H32216100   3.861   0.655   1.688 -1.0328  0.6835  0.2115
   51MOL     C116101   0.300   5.711   5.998 -0.1675 -0.1667 -0.1860
   51MOL     O216102   0.388   5.755   5.902 -0.1370 -0.3788  0.1820
   51MOL     C316103   0.318   5.784   5.784 -0.5488 -0.6286 -0.5635
   51MOL     C416104   0.411   5.871   5.693  0.0143 -0.7627 -0.0808
   51MOL     C516105   0.526   5.792   5.641  0.0111  0.5091  0.6793
   51MOL     C616106   0.386   5.687   6.129  0.3683 -0.4988 -0.0457
   51MOL     H716107   0.242   5.625   5.966  0.3541 -1.1871  1.5254
   51MOL     H816108   0.281   5.695   5.733 -3.2989  0.1941 -0.0811
   51MOL     H916109   0.234   5.850   5.804 -0.1998 -0.6343  0.9819
   51MOL    H1016110   0.443   5.962   5.744 -1.6036 -1.0195  1.4561
   51MOL    H1116111   0.352   5.904   5.608  0.2544  0.4400  0.2084
   51MOL    H1216112   0.493   5.707   5.582 -1.4296  1.4566  0.0869
   51MOL    H1316113   0.591   5.758   5.722 -0.5066  0.2556  0.9981
   51MOL    H1416114   0.584   5.851   5.570 -0.5235  1.5458  1.0823
   51MOL    H1516115   0.442   5.593   6.127 -1.3461 -1.5402 -0.0983
   51MOL    H1616116   0.469   5.757   6.135 -1.2340  1.6196 -1.9248
   51MOL    H1716117   0.221   5.786   6.009  0.4175  0.0597  3.4051
   51MOL    C1816118   0.292   5.692   6.255 -0.5243 -0.5464 -0.1748
   51MOL    O1916119   0.214   5.575   6.247  0.1235  0.0169  0.5068
   51MOL    C2016120   0.073   5.602   6.237  0.3550 -0.5859  0.5452
   51MOL    C2116121   0.006   5.467   6.218 -0.1601  0.3091  0.3033
   51MOL    C2216122   7.677   5.473   6.217  0.3372 -0.7313 -0.6154
   51MOL    C2316123   0.362   5.702   6.390  0.0252  0.0494  0.5806
   51MOL    H2416124   0.236   5.783   6.232  0.5127 -0.2100 -1.4272
   51MOL    H2516125   0.039   5.651   6.329 -2.6408  0.0266 -0.8265
   51MOL    H2616126   0.057   5.655   6.144 -2.0795  1.3462  1.9812
   51MOL    H2716127   0.043   5.399   6.295  2.3841  0.6282 -0.5775
   51MOL    H2816128   0.042   5.436   6.120  3.0325  1.1437  1.1388
   51MOL    H2916129   7.628   5.498   6.311 -0.9143  0.2723 -1.5171
   51MOL    H3016130   7.622   5.392   6.168  0.2437 -0.1315 -1.5074
   51MOL    H3116131   7.648   5.557   6.155 -5.3506 -1.2788  0.9931
   51MOL    H3216132   0.283   5.683   6.463 -1.4443  0.1641 -0.9470
   51MOL    H3316133   0.435   5.622   6.402  2.1690  1.8458 -0.1036
   51MOL    C3416134   0.421   5.844   6.410  0.0103  0.4087  0.5380
   51MOL    O3516135   0.314   5.924   6.468 -0.3809 -0.1368 -0.0023
   51MOL    C3616136   0.313   6.052   6.419 -0.5108  0.4758  0.7738
   51MOL    C3716137   0.226   6.132   6.506  0.2149 -0.2460  1.0085
   51MOL    C3816138   0.292   6.195   6.627 -0.7020 -0.2619  0.3470
   51MOL    C3916139   0.553   5.852   6.487 -0.4912 -0.0424 -0.5113
   51MOL    H4016140   0.456   5.878   6.313 -1.8876 -0.2444 -0.3937
   51MOL    H4116141   0.412   6.097   6.409 -2.1917  3.5965 -3.0011
   51MOL    H4216142   0.258   6.062   6.325  1.0748  0.3292 -0.1831
   51MOL    H4316143   0.137   6.077   6.533 -0.3933 -0.8526 -2.0731
   51MOL    H4416144   0.187   6.222   6.457  2.3689 -0.1832 -0.6836
   51MOL    H4516145   0.353   6.280   6.595 -0.4135 -0.7361 -0.3863
   51MOL    H4616146   0.360   6.125   6.675  1.4634  1.7259  0.2906
   51MOL    H4716147   0.217   6.241   6.691 -0.0264  0.1387  0.8641
   51MOL    H4816148   0.570   5.949   6.535 -1.5940 -0.1703  0.1565
   51MOL    H4916149   0.546   5.788   6.575  1.4654 -0.4262 -0.6148
   51MOL    C5016150   0.688   5.837   6.397 -0.8080  0.9002  0.3100
   51MOL    O5116151   0.700   5.946   6.304 -0.4754  0.3077 -0.7290
   51MOL    C5216152   0.757   5.907   6.181 -0.8243  0.0690 -0.1054
   51MOL    C5316153   0.752   6.035   6.092  0.7449  0.4209  0.0448
   51MOL    C5416154   0.771   6.022   5.938 -0.0021  0.2495 -0.1279
   51MOL    C5516155   0.820   5.823   6.479  0.2313 -0.9201 -0.5279
   51MOL    H5616156   0.671   5.746   6.339  0.8492  1.7621 -1.5846
   51MOL    H5716157   0.861   5.873   6.189 -0.0445  2.1484 -0.9213
   51MOL    H5816158   0.702   5.828   6.131 -1.5792  0.8111 -0.4714
   51MOL    H5916159   0.816   6.112   6.134  0.2690  1.0217 -0.3133
   51MOL    H6016160   0.651   6.072   6.108  0.7715  2.3593 -3.6102
   51MOL    H6116161   0.759   6.115   5.881 -0.3172  1.2023  1.4635
   51MOL    H6216162   0.698   5.955   5.892  1.2299 -1.2084 -0.0016
   51MOL    H6316163   0.872   5.988   5.917  0.2999  0.1371  1.4988
   51MOL    H6416164   0.909   5.838   6.417 -0.1031 -0.6791 -0.9466
   51MOL    H6516165   0.819   5.895   6.561  3.4045 -1.0338 -0.3205
   51MOL    C6616166   0.837   5.683   6.533 -0.3828 -0.8091 -0.2577
   51MOL    O6716167   0.863   5.603   6.414 -0.5776 -0.0951 -0.0818
   51MOL    C6816168   0.812   5.469   6.444 -0.3464  0.0507  0.9430
   51MOL    C6916169   0.882   5.365   6.360  0.1350  0.0199  0.8523
   51MOL    C7016170   1.037   5.347   6.369  0.3055 -0.7159  0.8659
   51MOL    C7116171   0.958   5.669   6.628  0.1159 -0.1697 -0.3097
   51MOL    H7216172   0.757   5.652   6.600  0.3219 -0.0825  0.9365
   51MOL    H7316173   0.824   5.439   6.548 -0.1018  0.4662  1.0410
   51MOL    H7416174   0.704   5.461   6.434 -0.2743 -0.8886  0.9483
   51MOL    H7516175   0.852   5.387   6.258  0.5303  0.7220  0.8862
   51MOL    H7616176   0.839   5.267   6.381  1.8600 -1.1251 -0.8046
   51MOL    H7716177   1.078   5.293   6.283 -0.7468  0.4855 -0.4134
   51MOL    H7816178   1.067   5.308   6.466 -0.8283 -0.0239  1.5020
   51MOL    H7916179   1.084   5.445   6.360 -2.6762  0.7071  0.2767
   51MOL    H8016180   0.998   5.571   6.600 -0.1722  0.4728 -3.1544
   51MOL    H8116181   1.036   5.739   6.599 -0.2196  0.7735  0.9900
   51MOL    C8216182   0.927   5.708   6.774 -0.8871 -0.0800 -0.1309
   51MOL    O8316183   0.850   5.602   6.835  0.5443 -0.0741 -1.1263
   51MOL    C8416184   0.778   5.644   6.953  0.9273  0.3851 -0.8035
   51MOL    C8516185   0.740   5.529   7.046 -0.6508 -0.0842  0.1416
   51MOL    C8616186   0.857   5.452   7.108  0.7138 -0.6522  0.5601
   51MOL    C8716187   1.057   5.709   6.865 -0.4158 -0.5283 -0.6204
   51MOL    H8816188   0.874   5.803   6.782 -1.5612 -0.5831  1.5254
   51MOL    H8916189   0.830   5.721   7.011 -0.6031  0.6900  0.2060
   51MOL    H9016190   0.683   5.695   6.933  1.2901  1.0964 -0.7491
   51MOL    H9116191   0.658   5.473   7.002 -1.2685  0.6612  0.3228
   51MOL    H9216192   0.687   5.575   7.130 -1.6274  1.7276 -1.4213
   51MOL    H9316193   0.921   5.525   7.156  1.0878  0.0657 -0.9831
   51MOL    H9416194   0.908   5.391   7.033  2.4336  0.1456  1.0512
   51MOL    H9516195   0.828   5.390   7.193  2.7352 -1.8180  0.4276
   51MOL    H9616196   1.022   5.708   6.969 -0.7683  0.9937 -0.7194
   51MOL    H9716197   1.104   5.610   6.861 -1.1040 -0.8286 -1.3726
   51MOL    C9816198   1.159   5.819   6.838  1.0591 -0.0645  0.7233
   51MOL    O9916199   1.091   5.945   6.869 -0.1495 -0.1827  0.2285
   51MOL   C10016200   1.148   6.060   6.800 -0.5155  0.3444  0.5065
   51MOL   C10116201   1.093   6.185   6.874  0.0243 -0.5103  0.0582
   51MOL   C10216202   1.129   6.190   7.021 -0.0141  0.5659 -0.6090
   51MOL   C10316203   1.286   5.805   6.921  0.0777  0.1581 -0.7020
   51MOL   H10416204   1.181   5.821   6.732 -2.5355 -1.2193 -0.1251
   51MOL   H10516205   1.257   6.053   6.797 -0.5625  0.3803 -2.1500
   51MOL   H10616206   1.117   6.052   6.696  1.8324 -1.8024 -0.0785
   51MOL   H10716207   0.984   6.188   6.882  0.0661  2.1156 -0.0771
   51MOL   H10816208   1.128   6.271   6.817  0.5912 -1.9182 -1.7752
   51MOL   H10916209   1.238   6.189   7.019  0.0314  0.3486  1.4266
   51MOL   H11016210   1.099   6.099   7.073 -0.5269 -0.3585 -2.4864
   51MOL   H11116211   1.088   6.279   7.067 -1.8868  0.8667 -2.7609
   51MOL   H11216212   1.340   5.895   6.891  0.5216  0.6179  1.4132
   51MOL   H11316213   1.253   5.819   7.024  1.4669  0.0389 -0.2260
   51MOL   C11416214   1.358   5.671   6.907 -0.1247  0.3775 -0.1238
   51MOL   O11516215   1.405   5.659   6.778 -0.5394  0.4586 -0.2212
   51MOL   C11616216   1.367   5.533   6.710  0.7847  0.3904  0.1809
   51MOL   C11716217   1.448   5.509   6.586 -0.0400  0.1616 -0.4280
   51MOL   C11816218   1.407   5.392   6.511 -0.5052 -0.3178  0.1760
   51MOL   C11916219   1.490   5.671   6.989 -0.0839 -0.0668  0.5789
   51MOL   H12016220   1.292   5.595   6.948  1.0230  0.5581  2.1042
   51MOL   H12116221   1.387   5.447   6.774  0.8792 -2.0374 -3.0159
   51MOL   H12216222   1.259   5.526   6.707  0.6219  2.1787  1.1847
   51MOL   H12316223   1.553   5.501   6.612 -0.1987 -0.4284  0.0525
   51MOL   H12416224   1.436   5.598   6.523 -0.8174 -0.2531 -0.8771
   51MOL   H12516225   1.303   5.403   6.481  0.2758  0.5472 -2.4069
   51MOL   H12616226   1.425   5.301   6.568  1.2407 -0.0121  0.1364
   51MOL   H12716227   1.470   5.389   6.422 -0.1628 -1.5305  0.4581
   51MOL   H12816228   1.533   5.572   6.973 -1.6117 -0.9130  1.5115
   51MOL   H12916229   1.564   5.743   6.954 -0.7853  1.1784  1.5964
   51MOL   C13016230   1.474   5.705   7.142 -0.7959 -0.2255  0.1971
   51MOL   O13116231   1.448   5.844   7.143 -0.5393 -0.3382 -0.1528
   51MOL   C13216232   1.471   5.900   7.271  0.1844 -0.5583  0.0632
   51MOL   C13316233   1.401   6.033   7.277  0.8108 -0.2969  0.1005
   51MOL   C13416234   1.345   6.066   7.417  0.2516  1.1058 -0.2142
   51MOL   C13516235   1.370   5.612   7.216  0.0501  0.1157  0.1660
   51MOL   H13616236   1.577   5.689   7.172 -0.5230  3.3969  1.4156
   51MOL   H13716237   1.429   5.840   7.352  1.2664  1.5152  2.2179
   51MOL   H13816238   1.578   5.904   7.287 -0.0657 -0.8099  1.8800
   51MOL   H13916239   1.325   6.027   7.199 -0.4856  3.9058  0.8959
   51MOL   H14016240   1.458   6.122   7.249 -0.0140  0.2356  0.0948
   51MOL   H14116241   1.290   6.160   7.406 -0.4329  0.5409 -1.7667
   51MOL   H14216242   1.422   6.079   7.492  0.1020 -0.3852  0.2158
   51MOL   H14316243   1.283   5.986   7.457  1.8261  1.5294  3.2888
   51MOL   H14416244   1.339   5.659   7.309  1.0222 -0.1182  0.6071
   51MOL   H14516245   1.276   5.613   7.160 -0.7813 -0.8275  1.5194
   51MOL   C14616246   1.418   5.467   7.238  0.6923  0.6053 -0.5808
   51MOL   O14716247   1.531   5.483   7.320 -0.1035 -0.1970  0.1191
   51MOL   C14816248   1.621   5.375   7.315  0.5042  0.1999 -0.1497
   51MOL   C14916249   1.745   5.427   7.378  0.7356 -0.4996 -0.7338
   51MOL   C15016250   1.831   5.514   7.290 -0.1178 -0.0559  0.1401
   51MOL   C15116251   1.315   5.382   7.317  0.4760 -0.9964 -0.6400
   51MOL   H15216252   1.444   5.417   7.144 -1.0183 -2.5498  0.5556
   51MOL   H15316253   1.581   5.293   7.374 -1.2600  1.1341 -0.0135
   51MOL   H15416254   1.653   5.341   7.216  2.0284 -0.8915  0.6897
   51MOL   H15516255   1.809   5.346   7.412  1.6878  0.7661  0.5584
   51MOL   H15616256   1.719   5.479   7.470  1.4169 -0.6739 -0.4337
   51MOL   H15716257   1.848   5.474   7.190  2.1682  0.9316  0.1177
   51MOL   H15816258   1.926   5.539   7.336 -0.6770 -0.7455  1.6959
   51MOL   H15916259   1.774   5.605   7.272 -0.8644 -0.6273 -0.4780
   51MOL   H16016260   1.365   5.287   7.333  1.6255 -0.5121 -1.3664
   51MOL   H16116261   1.282   5.429   7.410  0.0586  1.3340 -1.9255
   51MOL   C16216262   1.191   5.342   7.231  0.0145 -0.2802 -0.4893
   51MOL   O16316263   1.249   5.282   7.118 -0.5842 -0.0896 -0.4772
   51MOL   C16416264   1.177   5.281   6.998 -0.0919  0.2623 -0.0962
   51MOL   C16516265   1.259   5.181   6.920  0.7799  0.0045  0.4896
   51MOL   C16616266   1.198   5.155   6.781 -0.1637 -0.8879 -0.2864
   51MOL   C16716267   1.101   5.238   7.305 -0.2336 -0.9300  0.1743
   51MOL   H16816268   1.130   5.424   7.191  0.3711 -0.6164 -1.7434
   51MOL   H16916269   1.078   5.240   7.020 -0.2264  0.1441 -0.9190
   51MOL   H17016270   1.179   5.377   6.946  2.5974  1.4866  2.1130
   51MOL   H17116271   1.267   5.091   6.980  0.8903  0.7511  1.5977
   51MOL   H17216272   1.362   5.216   6.911 -0.1636  2.5240 -1.2593
   51MOL   H17316273   1.098   5.115   6.794 -0.2454 -0.3015  1.0372
   51MOL   H17416274   1.246   5.085   6.713 -1.5671 -1.3462 -0.8180
   51MOL   H17516275   1.198   5.242   6.715  0.3225 -1.4885 -1.0817
   51MOL   H17616276   1.017   5.202   7.246 -1.4673 -0.3153  1.5086
   51MOL   H17716277   1.146   5.141   7.322  0.2511 -0.8626 -0.7057
   51MOL   C17816278   1.033   5.290   7.432  0.0763  0.1536  0.3751
   51MOL   O17916279   0.947   5.399   7.394 -0.3522 -0.2699 -0.0055
   51MOL   C18016280   0.951   5.511   7.482  0.4984 -0.6077  0.6666
   51MOL   C18116281   0.836   5.613   7.444  0.2058  0.5128 -0.1781
   51MOL   C18216282   0.702   5.544   7.473 -0.4694  0.5220 -0.1989
   51MOL   C18316283   0.959   5.173   7.513 -0.1441  0.1390 -0.0891
   51MOL   H18416284   1.106   5.327   7.504 -1.9775  2.2293  1.4582
   51MOL   H18516285   0.931   5.476   7.584 -0.1166 -0.4553  0.6007
   51MOL   H18616286   1.053   5.548   7.472 -0.0600  0.3270 -1.7515
   51MOL   H18716287   0.831   5.660   7.345  0.3371 -0.3925 -0.6164
   51MOL   H18816288   0.837   5.704   7.504  2.1111 -0.0821  0.7300
   51MOL   H18916289   0.676   5.486   7.385 -1.5855  0.6603  0.0348
   51MOL   H19016290   0.625   5.621   7.480 -0.9367 -0.0157  0.5926
   51MOL   H19116291   0.707   5.474   7.556 -0.2102  0.4383 -0.2826
   51MOL   H19216292   1.043   5.108   7.537  1.2596  1.4194 -1.4102
   51MOL   H19316293   0.926   5.216   7.607  0.6166 -2.3787  1.3761
   51MOL   C19416294   0.845   5.095   7.447  0.2528 -0.5111  0.3637
   51MOL   O19516295   0.821   4.984   7.532  0.2401 -0.1014 -0.1355
   51MOL   C19616296   0.856   4.862   7.478 -0.0736  0.2233 -0.5616
   51MOL   C19716297   0.838   4.761   7.591 -0.0320  0.1016 -0.6082
   51MOL   C19816298   0.936   4.790   7.706 -0.2813  0.6939  0.6567
   51MOL   C19916299   0.718   5.182   7.436  0.2034  0.1829 -0.1993
   51MOL   H20016300   0.879   5.066   7.348 -1.0940  0.2028 -0.3299
   51MOL   H20116301   0.796   4.841   7.390 -0.2154  0.1227 -0.4414
   51MOL   H20216302   0.960   4.866   7.448  0.1499  0.0452  0.1799
   51MOL   H20316303   0.853   4.656   7.568 -3.1424  0.0385 -2.6311
   51MOL   H20416304   0.736   4.758   7.630  0.3823 -2.3259  0.3586
   51MOL   H20516305   1.003   4.874   7.693  0.4414 -0.2377 -1.9178
   51MOL   H20616306   0.993   4.702   7.737 -0.9524 -0.5675 -1.5842
   51MOL   H20716307   0.892   4.818   7.802  1.0310  1.2803  1.0916
   51MOL   H20816308   0.697   5.232   7.531  1.3792  0.8072 -0.2640
   51MOL   H20916309   0.736   5.267   7.371  1.4023  0.8119  0.9402
   51MOL   C21016310   0.601   5.103   7.373  0.3448 -0.3685  0.3887
   51MOL   O21116311   0.489   5.179   7.390 -0.1479  0.0929  0.5643
   51MOL   C21216312   0.411   5.147   7.500 -0.8858  0.4107 -0.5471
   51MOL   C21316313   0.295   5.244   7.477  0.3855 -0.2212  0.3201
   51MOL   C21416314   0.333   5.389   7.494 -0.8362 -0.0507 -0.2267
   51MOL   C21516315   0.627   5.090   7.211 -0.1092 -0.4288  0.1133
   51MOL   H21616316   0.592   5.006   7.421  1.2570 -0.4543  0.3926
   51MOL   H21716317   0.375   5.044   7.506 -0.5681  0.3973  1.6118
   51MOL   H21816318   0.467   5.167   7.591 -1.6062 -0.3024  0.0556
   51MOL   H21916319   0.217   5.228   7.551 -2.1111  0.9560 -1.9556
   51MOL   H22016320   0.250   5.230   7.379 -1.2436 -1.0604  1.1658
   51MOL   H22116321   0.251   5.461   7.489 -0.4072  0.4509 -0.0977
   51MOL   H22216322   0.404   5.412   7.414  1.5659 -0.4810  1.7358
   51MOL   H22316323   0.379   5.400   7.592  0.6023  0.5017 -0.9488
   51MOL   H22416324   0.636   5.191   7.171 -2.6031  0.3871  1.4889
   51MOL   H22516325   0.728   5.053   7.192  0.1446  0.3031  0.0036
   51MOL   C22616326   0.525   4.998   7.141 -0.3965  0.1711 -0.2211
   51MOL   O22716327   0.518   4.877   7.211  0.4928 -0.5301 -0.3615
   51MOL   C22816328   0.458   4.762   7.146 -0.1640 -0.2937  0.4045
   51MOL   C22916329   0.424   4.667   7.256  0.3565 -0.0358 -0.4695
   51MOL   C23016330   0.308   4.721   7.342  0.3995  0.3482 -0.1761
   51MOL   C23116331   0.385   5.062   7.119 -0.6973 -0.3452 -0.2654
   51MOL   H23216332   0.561   4.983   7.039  4.9704  1.1894  1.3858
   51MOL   H23316333   0.377   4.775   7.075  0.0242 -0.7491  0.1050
   51MOL   H23416334   0.542   4.726   7.087 -1.0109  1.1786 -1.7585
   51MOL   H23516335   0.519   4.663   7.310  0.1446  1.2950  0.0099
   51MOL   H23616336   0.399   4.568   7.218 -1.6675  0.4886 -0.5504
   51MOL   H23716337   0.222   4.735   7.276  1.5126  1.6753 -1.3877
   51MOL   H23816338   0.333   4.814   7.391 -1.1210  0.3504  0.6147
   51MOL   H23916339   0.280   4.641   7.410  1.5016 -1.1585 -1.4530
   51MOL   H24016340   0.324   4.982   7.079  0.3355 -1.7954  1.0289
   51MOL   H24116341   0.334   5.081   7.214  0.6102 -1.6514  0.7147
   51MOL   C24216342   0.374   5.188   7.026  0.4377  0.4901  0.3928
   51MOL   O24316343   0.445   5.145   6.904  0.7578  0.3585  0.1046
   51MOL   C24416344   0.480   5.252   6.822 -0.7310 -0.6638  0.7040
   51MOL   C24516345   0.525   5.207   6.688  0.1864  0.2319 -0.7867
   51MOL   C24616346   0.671   5.161   6.684 -0.2988  0.6626  0.1375
   51MOL   C24716347   0.226   5.226   7.008  0.1139 -0.8619  0.1246
   51MOL   H24816348   0.431   5.274   7.062  2.2547  0.0293 -1.2813
   51MOL   H24916349   0.406   5.332   6.818 -1.1536 -1.0211  1.2637
   51MOL   H25016350   0.567   5.299   6.868 -0.1065 -2.5333  1.4863
   51MOL   H25116351   0.506   5.291   6.621  0.0128  0.2720 -0.6882
   51MOL   H25216352   0.458   5.127   6.657 -0.1897  0.2926 -0.1498
   51MOL   H25316353   0.695   5.134   6.581  0.2130  2.9033 -0.3535
   51MOL   H25416354   0.683   5.069   6.741  0.4559 -0.2036 -1.3791
   51MOL   H25516355   0.741   5.237   6.720 -0.9884  1.9498 -1.1850
   51MOL   H25616356   0.205   5.267   6.910  3.3116  0.7022  0.0159
   51MOL   H25716357   0.164   5.137   7.015  0.4857 -1.1490 -0.1976
   51MOL   C25816358   0.166   5.333   7.104  0.3684  0.3110 -0.3268
   51MOL   O25916359   0.247   5.457   7.089 -0.0289 -0.6028  0.1883
   51MOL   C26016360   0.229   5.565   7.178  0.8413 -0.2747 -0.4448
   51MOL   C26116361   0.357   5.650   7.181  0.0783 -0.2946 -0.6206
   51MOL   C26216362   0.355   5.743   7.297  0.0864 -0.5065  0.1306
   51MOL   C26316363   0.021   5.363   7.096 -0.4233 -0.3856 -0.1050
   51MOL   H26416364   0.190   5.305   7.207 -0.2388 -2.8856 -0.9950
   51MOL   H26516365   0.137   5.622   7.161 -1.0836 -2.0412  3.5017
   51MOL   H26616366   0.214   5.530   7.280 -1.8142  0.2033 -0.6283
   51MOL   H26716367   0.366   5.708   7.089 -2.8134  1.6182  0.2405
   51MOL   H26816368   0.453   5.597   7.184  0.4707  0.4780  1.7768
   51MOL   H26916369   0.431   5.821   7.296  0.1077 -0.4955  1.6245
   51MOL   H27016370   0.365   5.691   7.392  0.9022  0.3095  0.5037
   51MOL   H27116371   0.262   5.801   7.291  0.6200  0.5357  1.6825
   51MOL   H27216372   0.007   5.431   7.180  1.6133 -3.5142  2.8834
   51MOL   H27316373   0.008   5.424   7.006  2.3544  1.6937  0.8167
   51MOL   C27416374   7.763   5.237   7.102  0.1268 -0.1632 -0.2661
   51MOL   O27516375   7.763   5.172   7.229  0.1718  0.2117 -0.1730
   51MOL   C27616376   0.001   5.050   7.239 -0.7438  0.3152 -0.1837
   51MOL   C27716377   7.796   4.960   7.364 -0.0077  0.2702  0.0062
   51MOL   C27816378   0.038   4.995   7.493  0.0921  0.3540  0.0945
   51MOL   C27916379   7.611   5.279   7.091  0.4355 -0.3560 -0.6708
   51MOL   H28016380   7.773   5.166   7.019  0.6402 -0.0463 -0.3070
   51MOL   H28116381   7.800   5.002   7.146 -0.8655  0.5912 -0.2887
   51MOL   H28216382   0.108   5.067   7.224 -0.3511 -2.0429 -0.3261
   51MOL   H28316383   7.823   4.859   7.333  1.3695  1.2253 -1.9670
   51MOL   H28416384   7.689   4.969   7.381  0.4567  1.0163  2.8656
   51MOL   H28516385   0.023   4.906   7.554 -0.8707 -1.5598 -2.8675
   51MOL   H28616386   0.006   5.085   7.546  0.1574  1.8284 -2.3114
   51MOL   H28716387   0.141   5.015   7.464 -0.0697  0.7431 -0.2154
   51MOL   H28816388   7.587   5.355   7.166  0.5262  2.8082 -3.6805
   51MOL   H28916389   7.591   5.328   6.996  0.3091  1.6906  0.3662
   51MOL   C29016390   7.515   5.159   7.106 -0.4255 -0.1120 -0.2192
   51MOL   O29116391   7.383   5.212   7.104 -0.1742 -0.2926  0.0577
   51MOL   C29216392   7.331   5.281   7.212  0.5007 -0.7151  0.1096
   51MOL   C29316393   7.178   5.301   7.214 -0.0769  0.0141 -0.0932
   51MOL   C29416394   7.105   5.163   7.210 -0.1105 -0.2093 -0.4938
   51MOL   C29516395   7.521   5.055   6.993  0.2091 -0.1425  0.1023
   51MOL   H29616396   7.535   5.112   7.202 -0.0815 -0.3004 -0.3846
   51MOL   H29716397   7.352   5.236   7.309  0.1193 -1.6087 -0.2195
   51MOL   H29816398   7.379   5.379   7.218 -1.3100  0.0550  2.4032
   51MOL   H29916399   7.160   5.363   7.126  2.9082  0.8570 -0.1529
   51MOL   H30016400   7.154   5.353   7.308 -1.3849 -0.9874  0.1479
   51MOL   H30116401   7.137   5.110   7.121  2.3099  2.3423 -1.2123
   51MOL   H30216402   6.997   5.166   7.196 -0.2253 -0.3060  0.3087
   51MOL   H30316403   7.115   5.100   7.298  0.6437 -1.1738 -1.2590
   51MOL   H30416404   7.487   5.096   6.897  1.0597 -2.5102 -1.2447
   51MOL   H30516405   7.619   5.012   6.976 -0.6993 -2.0106 -0.5657
   51MOL   C30616406   7.436   4.923   7.019 -0.6481  0.0030  0.3740
   51MOL   O30716407   7.458   4.839   6.909 -0.1009  0.0734  0.1879
   51MOL   C30816408   7.367   4.870   6.805  0.1487 -0.4515  0.3094
   51MOL   C30916409   7.399   4.764   6.697 -0.0125 -0.1226  0.6029
   51MOL   C31016410   7.374   4.622   6.744  0.3275  0.0511 -0.5413
   51MOL   C31116411   7.478   4.830   7.132 -0.1861  0.8225 -0.5916
   51MOL   H31216412   7.329   4.935   7.039 -0.8023 -2.1738  1.0166
   51MOL   H31316413   7.263   4.862   6.838  0.3524 -1.7050  0.6825
   51MOL   H31416414   7.379   4.973   6.771  0.0828 -0.5748 -0.0948
   51MOL   H31516415   7.502   4.777   6.664 -0.0179  0.7511  0.9251
   51MOL   H31616416   7.338   4.779   6.607  1.4036 -2.4732 -0.7910
   51MOL   H31716417   7.425   4.556   6.673  1.4267  1.2345 -0.8682
   51MOL   H31816418   7.266   4.610   6.745  0.3332  0.0010 -0.5007
   51MOL   H31916419   7.402   4.592   6.845  0.4338 -2.1468 -1.1988
   51MOL   H32016420   7.439   4.728   7.133  0.8413  0.3967 -1.8633
   51MOL   H32116421   7.587   4.830   7.142 -0.1578  0.7684 -0.8885
   51MOL   H32216422   7.437   4.873   7.223  0.6285  0.6916 -0.1557
   52MOL     C116423   5.009   1.327   1.027  0.3351 -0.4271 -0.3788
   52MOL     O216424   4.995   1.270   1.160  0.1658  0.7122  0.0958
   52MOL     C316425   4.908   1.332   1.255 -0.7760 -0.4195 -0.2258
   52MOL     C416426   4.991   1.415   1.349  0.2429  0.6986  0.0532
   52MOL     C516427   5.061   1.537   1.288 -0.0865  0.2117 -0.4246
   52MOL     C616428   5.057   1.215   0.935  0.0230  0.4394 -0.4254
   52MOL     H716429   5.078   1.411   1.032 -1.6628  1.2521 -0.1297
   52MOL     H816430   4.842   1.395   1.196  1.4625  0.2701 -2.0650
   52MOL     H916431   4.846   1.258   1.306 -0.1671 -0.9817 -0.2879
   52MOL    H1016432   5.072   1.349   1.379 -0.2259  0.7150  1.3848
   52MOL    H1116433   4.921   1.426   1.432 -1.4178  3.1848 -1.5871
   52MOL    H1216434   5.135   1.516   1.210  2.2638  1.1561  1.4929
   52MOL    H1316435   5.106   1.591   1.371 -0.3092  1.2923 -0.9949
   52MOL    H1416436   4.976   1.591   1.247 -0.6846 -0.5216 -0.1487
   52MOL    H1516437   5.091   1.281   0.855  0.2198  1.1981  0.2807
   52MOL    H1616438   5.140   1.159   0.978 -0.3085  0.1026 -0.2223
   52MOL    H1716439   4.921   1.378   0.987  0.2514 -1.0572 -1.0067
   52MOL    C1816440   4.948   1.116   0.892  0.7023  0.2100 -0.2736
   52MOL    O1916441   4.867   1.193   0.809  0.6993  0.2073 -0.1980
   52MOL    C2016442   4.751   1.130   0.763  0.4184 -0.3611 -0.6494
   52MOL    C2116443   4.662   1.235   0.684  0.5544 -0.2227  0.2785
   52MOL    C2216444   4.724   1.270   0.543  0.4655  0.1989  0.5701
   52MOL    C2316445   5.000   0.990   0.825 -0.5087 -0.0673  0.3686
   52MOL    H2416446   4.884   1.079   0.972  0.6024  0.1321 -0.3880
   52MOL    H2516447   4.774   1.048   0.696 -0.9910 -0.7504 -0.6783
   52MOL    H2616448   4.683   1.099   0.843  2.6983 -0.5101  1.2945
   52MOL    H2716449   4.642   1.321   0.749  0.5195  1.0398 -1.3780
   52MOL    H2816450   4.562   1.191   0.678 -0.6048  2.1865  0.9748
   52MOL    H2916451   4.656   1.328   0.480  1.0052 -1.2773 -1.4491
   52MOL    H3016452   4.759   1.185   0.484  0.7637 -0.5347  1.7865
   52MOL    H3116453   4.807   1.340   0.551  0.0648  0.4764  2.5374
   52MOL    H3216454   4.921   0.922   0.792  0.1537 -1.3896  1.4552
   52MOL    H3316455   5.051   1.013   0.732  0.4659 -1.6976  0.4842
   52MOL    C3416456   5.091   0.897   0.907 -0.7828 -0.5309 -0.1271
   52MOL    O3516457   5.006   0.867   1.017 -0.3234  0.5896  1.2240
   52MOL    C3616458   5.080   0.869   1.140  0.3966  0.2394  0.3734
   52MOL    C3716459   4.971   0.863   1.252  0.1281 -0.0352 -0.2400
   52MOL    C3816460   4.947   0.727   1.304 -0.9496  0.2588 -0.4392
   52MOL    C3916461   5.143   0.761   0.842 -0.4227  0.7353  0.3563
   52MOL    H4016462   5.178   0.957   0.934 -0.5143  0.6789 -3.4120
   52MOL    H4116463   5.151   0.787   1.137  1.6505  1.3234 -0.8393
   52MOL    H4216464   5.134   0.964   1.149  1.1784  0.1022 -2.4294
   52MOL    H4316465   4.885   0.918   1.214  0.0967 -0.4198 -0.7375
   52MOL    H4416466   5.010   0.929   1.329 -1.1004  1.5413 -0.9329
   52MOL    H4516467   4.841   0.710   1.318 -0.6075 -2.6768 -1.2366
   52MOL    H4616468   4.998   0.700   1.397 -0.6658 -0.1666 -0.7204
   52MOL    H4716469   4.983   0.657   1.229 -0.6941  0.0294 -0.1058
   52MOL    H4816470   5.205   0.725   0.924 -2.0708  2.7651  2.5678
   52MOL    H4916471   5.065   0.688   0.823 -0.0801 -0.0002  1.7096
   52MOL    C5016472   5.222   0.795   0.721  0.3497  0.2919  0.2829
   52MOL    O5116473   5.340   0.872   0.757  0.3257  0.4272 -0.1152
   52MOL    C5216474   5.373   0.980   0.668 -0.8177 -0.1095  0.3015
   52MOL    C5316475   5.489   1.056   0.739  0.3309 -0.3794  0.5395
   52MOL    C5416476   5.461   1.089   0.877 -0.0962  0.4958  0.4291
   52MOL    C5516477   5.270   0.668   0.641 -0.9432 -0.3513 -0.0492
   52MOL    H5616478   5.161   0.845   0.645  0.7330 -0.9608 -0.8762
   52MOL    H5716479   5.408   0.958   0.567 -0.6779 -1.0125  0.5448
   52MOL    H5816480   5.292   1.053   0.664  0.8975  2.0586  3.0886
   52MOL    H5916481   5.509   1.145   0.680 -2.5744  1.2531  1.9495
   52MOL    H6016482   5.580   0.995   0.744  0.4075 -0.4471 -1.4572
   52MOL    H6116483   5.378   1.160   0.886  0.1084  0.9467 -1.1386
   52MOL    H6216484   5.552   1.130   0.922  0.8597 -0.5006 -0.5673
   52MOL    H6316485   5.436   1.004   0.940 -0.7700  0.3057 -0.0862
   52MOL    H6416486   5.351   0.702   0.577  0.3015 -1.2975  0.9872
   52MOL    H6516487   5.320   0.615   0.722 -0.7899  2.0330  1.4713
   52MOL    C6616488   5.158   0.592   0.569  0.1169 -0.3116  0.1032
   52MOL    O6716489   5.100   0.680   0.476 -0.5821 -0.1554 -0.1909
   52MOL    C6816490   4.958   0.674   0.480 -0.4528  0.5012 -0.5988
   52MOL    C6916491   4.905   0.758   0.372  0.0357 -0.6030  0.2200
   52MOL    C7016492   4.953   0.904   0.378  0.1308  0.4797 -0.1457
   52MOL    C7116493   5.208   0.470   0.475  0.0381 -0.7203 -0.1794
   52MOL    H7216494   5.091   0.544   0.641 -2.3516  0.8139 -1.3593
   52MOL    H7316495   4.932   0.569   0.470  0.3731  0.5826 -3.9983
   52MOL    H7416496   4.916   0.711   0.574 -1.1296  0.6082 -0.9375
   52MOL    H7516497   4.797   0.773   0.371  0.4571  3.6829 -3.5695
   52MOL    H7616498   4.911   0.708   0.275 -3.5093  0.4451 -0.6396
   52MOL    H7716499   4.871   0.972   0.354 -1.0264 -1.0138 -0.5414
   52MOL    H7816500   5.032   0.906   0.303  0.4709 -0.5274  0.1785
   52MOL    H7916501   4.991   0.937   0.474  0.8957  0.7202 -0.5291
   52MOL    H8016502   5.229   0.387   0.542  2.8295  0.2062  0.1335
   52MOL    H8116503   5.117   0.439   0.422  1.0311 -1.4329 -1.5108
   52MOL    C8216504   5.334   0.497   0.389  0.5370  0.6955  0.3614
   52MOL    O8316505   5.454   0.476   0.464  0.3084 -0.0509 -1.0156
   52MOL    C8416506   5.562   0.570   0.437 -0.1630  0.7378  0.3079
   52MOL    C8516507   5.679   0.524   0.525  0.4344  0.5093  0.1490
   52MOL    C8616508   5.652   0.544   0.683 -0.2457 -0.8696 -0.2590
   52MOL    C8716509   5.350   0.399   0.268 -0.1441 -0.4775 -0.1670
   52MOL    H8816510   5.342   0.602   0.358 -1.0498  1.2549  1.7271
   52MOL    H8916511   5.583   0.570   0.330  2.3955 -0.0934  0.7712
   52MOL    H9016512   5.531   0.669   0.470  0.7286  0.4956  1.8979
   52MOL    H9116513   5.755   0.587   0.479 -0.8189  0.5666 -1.9148
   52MOL    H9216514   5.711   0.425   0.495 -0.2401  0.2112  0.3882
   52MOL    H9316515   5.748   0.548   0.733 -1.1119 -0.1794  1.3733
   52MOL    H9416516   5.586   0.472   0.733 -0.9739  0.6472  0.9887
   52MOL    H9516517   5.603   0.639   0.702  0.8198 -0.0267 -1.6657
   52MOL    H9616518   5.446   0.416   0.219 -0.3234 -1.2322 -0.7854
   52MOL    H9716519   5.364   0.298   0.309  2.7014 -0.5136 -1.0772
   52MOL    C9816520   5.233   0.408   0.171  0.4908 -0.1809  0.6762
   52MOL    O9916521   5.246   0.539   0.116  0.1333 -0.6488  0.0172
   52MOL   C10016522   5.128   0.618   0.115  0.5284 -0.1712 -0.4552
   52MOL   C10116523   5.104   0.710   7.824 -0.5969  0.2523  0.3500
   52MOL   C10216524   5.090   0.627   7.694  0.0284 -0.6640 -0.4240
   52MOL   C10316525   5.250   0.315   0.048 -0.1150 -0.9415  0.0565
   52MOL   H10416526   5.138   0.386   0.218 -1.2504  1.6851 -1.8475
   52MOL   H10516527   5.045   0.547   0.116 -0.1991  0.6269 -2.5363
   52MOL   H10616528   5.122   0.678   0.206 -0.5844  0.5682 -1.0045
   52MOL   H10716529   5.184   0.784   7.816  0.5217 -0.9273  0.4880
   52MOL   H10816530   5.011   0.765   0.009 -0.3983  1.0843 -1.6803
   52MOL   H10916531   5.053   0.688   7.612 -0.4192 -0.4449 -0.0614
   52MOL   H11016532   5.015   0.549   7.710 -2.1076  1.2214 -0.9703
   52MOL   H11116533   5.183   0.579   7.664  0.2291 -0.0858 -0.7218
   52MOL   H11216534   5.169   0.339   7.808 -0.1378 -1.7195 -0.1898
   52MOL   H11316535   5.334   0.351   7.816 -0.5611  1.0937  0.6076
   52MOL   C11416536   5.249   0.155   0.065 -0.5338 -0.7596  0.1774
   52MOL   O11516537   5.117   0.117   0.110 -0.0813 -0.4201 -0.0203
   52MOL   C11616538   5.121   7.819   0.184  0.0568  0.7177  0.1618
   52MOL   C11716539   5.133   0.001   0.337  0.3313 -0.1581 -0.3290
   52MOL   C11816540   4.998   0.064   0.393 -0.3693 -0.1699  0.3772
   52MOL   C11916541   5.292   0.071   7.764  0.2559  0.0004 -0.1287
   52MOL   H12016542   5.310   0.131   0.152 -0.3836  0.3346  0.3777
   52MOL   H12116543   5.028   7.774   0.150  0.3140  0.0454  0.3456
   52MOL   H12216544   5.190   7.743   0.147 -2.6538 -1.5581 -0.4388
   52MOL   H12316545   5.214   0.069   0.363  0.9539 -1.2417  0.6235
   52MOL   H12416546   5.150   7.735   0.391  0.6708 -0.3871 -0.8373
   52MOL   H12516547   4.907   0.008   0.376  1.3736 -2.8953 -0.3071
   52MOL   H12616548   4.987   0.155   0.333  1.1833 -0.1062  0.1526
   52MOL   H12716549   4.994   0.111   0.491 -0.8997  2.1938 -0.7442
   52MOL   H12816550   5.278   7.796   7.796  0.7247  0.7581  2.6903
   52MOL   H12916551   5.224   0.083   7.679  2.2034  2.3033 -1.4372
   52MOL   C13016552   5.442   0.099   7.718 -0.1414 -0.5443  1.0942
   52MOL   O13116553   5.528   0.051   7.820  0.4015 -0.2371 -0.2245
   52MOL   C13216554   5.636   0.142   0.024  0.2981 -0.0037  0.5575
   52MOL   C13316555   5.707   0.076   0.137 -0.1345  0.1671  0.4472
   52MOL   C13416556   5.628   0.088   0.265  0.0022  0.4474 -0.2769
   52MOL   C13516557   5.461   0.023   7.588 -0.7457  0.5303  0.2374
   52MOL   H13616558   5.450   0.205   7.694 -0.2559 -0.4965  1.2714
   52MOL   H13716559   5.702   0.153   7.766 -1.9825  1.1083 -1.1126
   52MOL   H13816560   5.598   0.241   0.049  1.1575  0.8632 -1.4586
   52MOL   H13916561   5.807   0.116   0.150 -0.6915  2.2755 -1.4693
   52MOL   H14016562   5.730   7.799   0.117  2.1880  0.4621  1.4712
   52MOL   H14116563   5.682   0.048   0.350  0.3951 -2.5911 -1.8820
   52MOL   H14216564   5.534   0.033   0.266  0.7375 -0.8264 -0.7083
   52MOL   H14316565   5.607   0.192   0.289  0.5104  0.0224  2.1180
   52MOL   H14416566   5.453   7.744   7.610  2.1493 -0.2590 -2.2021
   52MOL   H14516567   5.374   0.043   7.526  0.4863  1.3987 -1.2527
   52MOL   C14616568   5.593   0.043   7.508 -0.4512 -0.6559  0.7808
   52MOL   O14716569   5.601   7.760   7.424 -0.4006  0.1372  0.0025
   52MOL   C14816570   5.737   7.729   7.383  0.0744 -0.4418 -0.0664
   52MOL   C14916571   5.730   7.618   7.273 -0.2307 -1.0427  0.6352
   52MOL   C15016572   5.665   7.670   7.151 -0.6014 -0.1747 -0.5202
   52MOL   C15116573   5.589   0.176   7.433  0.3659  0.0127  0.6808
   52MOL   H15216574   5.678   0.038   7.576  0.0267 -0.0965  0.2298
   52MOL   H15316575   5.789   7.813   7.338 -0.1480 -0.6858 -0.7845
   52MOL   H15416576   5.783   7.688   7.473 -0.5960 -0.4203  0.2914
   52MOL   H15516577   5.677   7.526   7.300  0.4570 -1.4322  0.6596
   52MOL   H15616578   5.834   7.588   7.260  0.4229  1.9060 -1.3120
   52MOL   H15716579   5.557   7.675   7.161 -0.7712 -0.8942 -1.8693
   52MOL   H15816580   5.692   7.600   7.071 -1.6324 -0.5195 -0.5791
   52MOL   H15916581   5.706   7.768   7.125 -0.3093 -0.5701 -1.5743
   52MOL   H16016582   5.564   0.162   7.328 -0.8608 -1.5139  1.1601
   52MOL   H16116583   5.504   0.235   7.466  0.8983  1.6400 -0.7275
   52MOL   C16216584   5.705   0.273   7.445 -0.2758 -0.0418 -0.3655
   52MOL   O16316585   5.821   0.218   7.385 -0.3207  0.0689 -0.6092
   52MOL   C16416586   5.943   0.198   7.457 -0.6464 -0.3330  1.0465
   52MOL   C16516587   5.990   0.325   7.530  0.7980  0.3369  0.9524
   52MOL   C16616588   6.125   0.298   7.593  0.3539  0.8999 -0.3031
   52MOL   C16716589   5.690   0.415   7.384  0.2008 -0.0275 -0.0600
   52MOL   H16816590   5.717   0.284   7.553  0.1119  2.7717 -0.6636
   52MOL   H16916591   5.929   0.126   7.537  0.3289  0.3099  1.8051
   52MOL   H17016592   6.024   0.158   7.397  0.0506  1.2642  0.8841
   52MOL   H17116593   5.911   0.366   7.593  0.3931  1.2027 -0.1091
   52MOL   H17216594   6.004   0.391   7.444  0.1528  1.7405  1.9049
   52MOL   H17316595   6.155   0.383   7.655  0.8939  0.3316  0.2089
   52MOL   H17416596   6.205   0.280   7.521 -0.4990  2.5632 -1.7382
   52MOL   H17516597   6.111   0.210   7.655 -0.6173 -0.3910 -2.2741
   52MOL   H17616598   5.782   0.471   7.400 -1.3735  1.7306  3.4274
   52MOL   H17716599   5.667   0.393   7.280 -0.1816 -1.0569  0.2377
   52MOL   C17816600   5.587   0.507   7.456 -0.0053 -0.3186 -0.0151
   52MOL   O17916601   5.639   0.530   7.584 -0.3449  0.1916  0.2090
   52MOL   C18016602   5.542   0.534   7.683 -0.2341 -0.0372  0.1868
   52MOL   C18116603   5.589   0.573   7.822 -0.2419 -0.2831 -0.1500
   52MOL   C18216604   5.637   0.721   7.811  0.0155  0.0774 -0.2850
   52MOL   C18316605   5.568   0.640   7.378  0.4680  0.1273 -0.3750
   52MOL   H18416606   5.492   0.454   7.448  0.4659 -1.0989 -0.4273
   52MOL   H18516607   5.457   0.601   7.666 -0.4546 -0.7073 -1.4218
   52MOL   H18616608   5.500   0.433   7.684  0.6372 -0.4058  0.3089
   52MOL   H18716609   5.670   0.511   0.035 -0.6679 -1.6246 -1.2982
   52MOL   H18816610   5.517   0.570   0.076  0.3344  0.0292  0.3784
   52MOL   H18916611   5.667   0.769   0.076  1.5300 -2.1892  0.4360
   52MOL   H19016612   5.547   0.775   7.781  0.3116  1.0099  0.5061
   52MOL   H19116613   5.718   0.733   7.739  1.0441  1.4534  1.0905
   52MOL   H19216614   5.499   0.695   7.443  1.1232  1.6582 -0.9567
   52MOL   H19316615   5.659   0.701   7.374  1.3976 -1.1939  0.2446
   52MOL   C19416616   5.506   0.637   7.240  0.5389 -0.0496 -0.0189
   52MOL   O19516617   5.376   0.590   7.266 -0.4691  0.2520  0.1834
   52MOL   C19616618   5.324   0.498   7.178 -0.4032 -0.2592  0.4212
   52MOL   C19716619   5.239   0.405   7.261 -0.2748  0.2277  0.5139
   52MOL   C19816620   5.115   0.478   7.327  0.2706  0.0184  0.2594
   52MOL   C19916621   5.507   0.772   7.174 -0.1479 -0.4566  0.5072
   52MOL   H20016622   5.562   0.567   7.178  0.0914 -2.8360  2.5792
   52MOL   H20116623   5.268   0.545   7.097  1.3839 -0.7498 -1.1381
   52MOL   H20216624   5.394   0.439   7.118  0.5241  0.8895  0.3595
   52MOL   H20316625   5.295   0.346   7.332  2.3657  1.9706 -0.0372
   52MOL   H20416626   5.206   0.337   7.182 -1.0518 -1.0470  1.9211
   52MOL   H20516627   5.043   0.536   7.268 -1.5912  0.8876  3.2805
   52MOL   H20616628   5.150   0.550   7.401  0.2930 -0.7050  0.9508
   52MOL   H20716629   5.067   0.409   7.397  1.0656 -1.2879 -0.4716
   52MOL   H20816630   5.446   0.749   7.087 -0.1425 -0.1920  0.4325
   52MOL   H20916631   5.473   0.853   7.240 -0.3685 -2.6288  3.1447
   52MOL   C21016632   5.646   0.821   7.121 -0.3160  0.1037 -0.5232
   52MOL   O21116633   5.698   0.723   7.030  0.0219  0.2924  0.4709
   52MOL   C21216634   5.832   0.686   7.058  0.1868 -0.4562 -0.0787
   52MOL   C21316635   5.890   0.586   6.959 -0.2672 -0.4495  0.1068
   52MOL   C21416636   5.816   0.457   6.958  0.4291 -0.6835 -0.0685
   52MOL   C21516637   5.646   0.962   7.058  0.6585 -0.4461  0.8759
   52MOL   H21616638   5.707   0.817   7.211 -2.1848  1.1494  0.8177
   52MOL   H21716639   5.885   0.781   7.050 -2.4447  1.1987  1.5008
   52MOL   H21816640   5.833   0.645   7.159 -0.5563  2.1001  1.0060
   52MOL   H21916641   5.993   0.558   6.980 -0.3556 -1.4378 -0.7151
   52MOL   H22016642   5.893   0.615   6.854 -0.9887 -0.5784  0.0507
   52MOL   H22116643   5.726   0.480   6.901 -0.2065 -0.7365  0.9134
   52MOL   H22216644   5.782   0.426   7.057  0.3096  0.9805  0.4245
   52MOL   H22316645   5.866   0.368   6.918 -2.5840 -2.3638 -0.2710
   52MOL   H22416646   5.623   1.033   7.137  1.4197  0.5998  0.1904
   52MOL   H22516647   5.741   0.997   7.016 -0.6775  0.0601 -1.8241
   52MOL   C22616648   5.552   0.983   6.934  0.5675 -1.0975 -0.4984
   52MOL   O22716649   5.484   1.109   6.952  0.3868 -0.0598 -0.2543
   52MOL   C22816650   5.350   1.101   6.980  0.1176 -0.0491  0.9175
   52MOL   C22916651   5.305   1.243   7.019  0.6266  0.8427 -0.0363
   52MOL   C23016652   5.335   1.346   6.910 -0.5648  0.2260  0.5226
   52MOL   C23116653   5.606   0.987   6.787 -0.0357 -0.0563 -0.1580
   52MOL   H23216654   5.474   0.909   6.946 -0.0552 -0.1533  1.5102
   52MOL   H23316655   5.302   1.068   6.887  1.2219 -0.0724  0.3400
   52MOL   H23416656   5.334   1.034   7.064  1.0507  1.0792  2.0111
   52MOL   H23516657   5.367   1.266   7.106 -1.2385  0.5333  1.4092
   52MOL   H23616658   5.199   1.248   7.042  0.1420  0.0329 -2.0676
   52MOL   H23716659   5.286   1.440   6.932 -0.3746  0.8253 -1.5084
   52MOL   H23816660   5.287   1.315   6.817 -0.2930  1.0084  0.1172
   52MOL   H23916661   5.441   1.350   6.883 -0.9173 -0.7387 -1.0768
   52MOL   H24016662   5.538   1.040   6.720  0.7729  0.2751 -0.7129
   52MOL   H24116663   5.694   1.051   6.790  0.4883 -0.6838 -2.0556
   52MOL   C24216664   5.642   0.855   6.729 -0.5470 -0.0830  0.2594
   52MOL   O24316665   5.513   0.805   6.697 -0.0600  0.0070  0.4958
   52MOL   C24416666   5.502   0.668   6.683  0.6510  0.5473  0.4559
   52MOL   C24516667   5.374   0.614   6.726  0.9110  0.4519  0.7425
   52MOL   C24616668   5.258   0.660   6.634  0.3725 -0.7577 -0.5995
   52MOL   C24716669   5.722   0.877   6.591 -0.1274  0.4587 -0.5876
   52MOL   H24816670   5.700   0.787   6.791 -1.3202 -1.6403 -0.7020
   52MOL   H24916671   5.525   0.638   6.581 -0.5786  0.5048  0.1766
   52MOL   H25016672   5.571   0.622   6.754  0.3663 -1.8651 -0.7874
   52MOL   H25116673   5.352   0.651   6.827  1.1419 -1.3275  1.4683
   52MOL   H25216674   5.375   0.506   6.740  0.7204  0.4104  0.4363
   52MOL   H25316675   5.250   0.768   6.627  0.6928 -0.6291  0.8722
   52MOL   H25416676   5.165   0.611   6.664 -1.7015  1.7162 -2.7326
   52MOL   H25516677   5.272   0.614   6.536  1.7669 -2.6600  0.4614
   52MOL   H25616678   5.706   0.789   6.529 -1.5091  1.1554 -1.2482
   52MOL   H25716679   5.686   0.965   6.537  0.2280  0.7337 -0.3798
   52MOL   C25816680   5.879   0.882   6.601  0.4943 -0.0194 -0.1194
   52MOL   O25916681   5.933   0.886   6.473  0.1395 -0.6784 -0.0929
   52MOL   C26016682   5.987   0.768   6.414  0.1570  0.7721 -0.0440
   52MOL   C26116683   6.061   0.808   6.281  0.4893  0.2597 -0.7621
   52MOL   C26216684   6.191   0.896   6.300 -0.2853 -0.4934 -0.3350
   52MOL   C26316685   5.943   0.999   6.679  1.2883  0.9223 -0.2665
   52MOL   H26416686   5.902   0.789   6.653 -0.9173 -1.0530 -1.2835
   52MOL   H26516687   6.059   0.719   6.479  0.3238  0.4769 -0.4495
   52MOL   H26616688   5.905   0.700   6.389 -0.4303  1.6611 -0.5807
   52MOL   H26716689   6.001   0.841   6.197 -1.6730  1.0607  1.0395
   52MOL   H26816690   6.102   0.717   6.236  2.1703 -0.7827  2.6734
   52MOL   H26916691   6.237   0.933   6.209  0.5023  0.3857  0.4141
   52MOL   H27016692   6.268   0.838   6.352  0.8710  1.5263  0.2353
   52MOL   H27116693   6.166   0.978   6.367  3.7529  2.0795 -1.8742
   52MOL   H27216694   5.903   1.093   6.642 -1.1580 -0.3097 -0.8358
   52MOL   H27316695   5.904   0.998   6.781 -0.5989 -0.3033 -0.9783
   52MOL   C27416696   6.098   1.000   6.693 -0.2170  0.4890  0.4968
   52MOL   O27516697   6.139   1.110   6.785 -0.1611  0.5139  0.0701
   52MOL   C27616698   6.188   1.225   6.718  0.1403 -0.8033 -0.4396
   52MOL   C27716699   6.238   1.314   6.825  0.0505 -0.2485 -0.2196
   52MOL   C27816700   6.374   1.272   6.886  0.4360  0.6832  0.0064
   52MOL   C27916701   6.156   0.874   6.756 -0.5008  0.2149 -0.1534
   52MOL   H28016702   6.128   1.017   6.590  0.3853 -1.4965  0.3142
   52MOL   H28116703   6.272   1.207   6.651  2.4352 -1.9634  2.6297
   52MOL   H28216704   6.105   1.263   6.658 -0.0206  0.4226  0.5365
   52MOL   H28316705   6.163   1.342   6.899 -1.1233 -2.6264 -0.4542
   52MOL   H28416706   6.261   1.413   6.785 -0.1336 -0.7935 -1.7228
   52MOL   H28516707   6.444   1.258   6.803 -0.8943 -1.5191 -0.7796
   52MOL   H28616708   6.364   1.187   6.952 -0.3099  0.7200 -0.0530
   52MOL   H28716709   6.423   1.350   6.944 -1.5852  2.6529 -0.8021
   52MOL   H28816710   6.121   0.874   6.859 -1.4825 -0.6497 -0.4777
   52MOL   H28916711   6.114   0.782   6.714  0.2239 -1.3176  2.3732
   52MOL   C29016712   6.313   0.861   6.751 -0.2948  0.4026  0.0788
   52MOL   O29116713   6.344   0.724   6.789 -0.4673 -0.1954 -0.0205
   52MOL   C29216714   6.357   0.692   6.928 -0.2123 -0.4522  0.2821
   52MOL   C29316715   6.373   0.540   6.934  0.0389 -0.2350 -0.2157
   52MOL   C29416716   6.393   0.504   7.081  0.0689  0.3803  0.0039
   52MOL   C29516717   6.374   0.885   6.617 -0.8435 -0.1587 -0.1543
   52MOL   H29616718   6.354   0.929   6.826 -0.3977  0.4192  0.1200
   52MOL   H29716719   6.448   0.744   6.957  0.4964 -0.6439 -1.5550
   52MOL   H29816720   6.275   0.723   6.993 -0.6002  0.6348 -0.6913
   52MOL   H29916721   6.461   0.502   6.881 -0.4147 -0.9956 -0.4282
   52MOL   H30016722   6.282   0.490   6.902 -0.4242  0.5924 -0.2041
   52MOL   H30116723   6.298   0.521   7.132  0.7365  0.7832  1.1290
   52MOL   H30216724   6.479   0.552   7.129  0.6672 -0.0852 -0.5978
   52MOL   H30316725   6.417   0.398   7.086 -1.2948  0.0366 -0.4053
   52MOL   H30416726   6.335   0.797   6.566 -1.6575  0.5605 -0.7892
   52MOL   H30516727   6.332   0.966   6.558 -0.4293 -0.2538 -0.5817
   52MOL   C30616728   6.528   0.902   6.610  0.4761  0.0036  0.3342
   52MOL   O30716729   6.552   0.914   6.469 -0.3146  0.1664 -0.0366
   52MOL   C30816730   6.657   0.845   6.412  0.2698  0.2502 -0.3690
   52MOL   C30916731   6.624   0.837   6.263 -0.7735 -0.3287  0.7412
   52MOL   C31016732   6.606   0.982   6.202 -0.0529  0.4731  0.4587
   52MOL   C31116733   6.588   1.016   6.690 -0.3488  0.4693 -0.4384
   52MOL   H31216734   6.558   0.805   6.650 -2.9325 -1.0882  0.3435
   52MOL   H31316735   6.755   0.884   6.438  0.8231 -1.9208  0.9007
   52MOL   H31416736   6.658   0.744   6.453  1.7664  1.5563  2.9709
   52MOL   H31516737   6.529   0.785   6.249 -1.6984  1.2756  0.9310
   52MOL   H31616738   6.714   0.794   6.218 -0.8193 -1.4195  1.6764
   52MOL   H31716739   6.660   1.063   6.251 -1.1631  2.0900 -0.9049
   52MOL   H31816740   6.499   1.003   6.209 -0.9909 -3.5785 -0.5324
   52MOL   H31916741   6.634   0.991   6.097  1.4400 -2.3507  0.5681
   52MOL   H32016742   6.575   0.989   6.795  3.8668 -3.2369 -0.7432
   52MOL   H32116743   6.696   1.023   6.674 -0.0477 -1.2672  0.6871
   52MOL   H32216744   6.544   1.112   6.661 -0.8165  0.4787  0.2869
   53MOL     C116745   0.723   2.705   1.280  0.2803 -0.4570 -0.4647
   53MOL     O216746   0.684   2.807   1.377  0.3490 -0.7132  0.1281
   53MOL     C316747   0.748   2.788   1.501 -0.0647 -0.0788  0.5724
   53MOL     C416748   0.661   2.823   1.620  0.2747  0.4627 -0.9084
   53MOL     C516749   0.718   2.773   1.752 -0.1832 -0.0436  0.2184
   53MOL     C616750   0.708   2.758   1.137 -0.8940  0.4612 -0.7684
   53MOL     H716751   0.664   2.614   1.296 -1.4526  0.4907 -1.3008
   53MOL     H816752   0.788   2.687   1.509 -0.8129 -0.4079  0.1828
   53MOL     H916753   0.831   2.859   1.501  2.5843 -2.9961 -2.7923
   53MOL    H1016754   0.562   2.777   1.612  0.5228 -0.1654 -0.4089
   53MOL    H1116755   0.633   2.928   1.627  4.0651  1.4621  0.5148
   53MOL    H1216756   0.652   2.792   1.837  0.1836  1.6589  0.1491
   53MOL    H1316757   0.808   2.821   1.790 -0.7088 -1.9362  4.1325
   53MOL    H1416758   0.736   2.666   1.747 -2.8038 -0.5357  0.3608
   53MOL    H1516759   0.601   2.768   1.121 -1.4307 -1.7084  1.1586
   53MOL    H1616760   0.761   2.851   1.118 -0.7699  0.7110  0.7223
   53MOL    H1716761   0.830   2.691   1.293  0.2573 -0.5419 -0.3601
   53MOL    C1816762   0.774   2.661   1.034  0.0621 -0.6203 -0.4989
   53MOL    O1916763   0.699   2.538   1.045  0.1485 -0.2294 -0.4732
   53MOL    C2016764   0.764   2.422   1.008  0.3745  0.4266  0.0871
   53MOL    C2116765   0.696   2.296   1.051  0.6472 -0.3762 -0.2557
   53MOL    C2216766   0.784   2.169   1.028 -0.0107  0.2787 -0.5091
   53MOL    C2316767   0.749   2.718   0.889 -0.5783  0.7994 -0.4912
   53MOL    H2416768   0.877   2.649   1.068  0.4440  3.9708  0.3245
   53MOL    H2516769   0.775   2.422   0.900 -0.0606 -1.6774  0.0145
   53MOL    H2616770   0.860   2.423   1.060  0.7829  1.4280 -0.6776
   53MOL    H2716771   0.601   2.277   1.001 -0.1209  1.7655  0.3036
   53MOL    H2816772   0.672   2.296   1.158 -0.9742 -2.8223 -0.5804
   53MOL    H2916773   0.803   2.142   0.924 -2.1368 -2.1353 -0.3342
   53MOL    H3016774   0.741   2.082   1.077 -0.1782 -0.4293 -1.8728
   53MOL    H3116775   0.890   2.186   1.047  0.0711  0.4090 -1.0639
   53MOL    H3216776   0.777   2.637   0.822 -0.1441  1.2928 -0.9176
   53MOL    H3316777   0.643   2.740   0.877 -0.7815  0.0146 -0.1529
   53MOL    C3416778   0.835   2.847   0.853  0.2246 -0.5664 -0.0213
   53MOL    O3516779   0.789   2.974   0.905  0.2834 -0.7388 -0.2453
   53MOL    C3616780   0.698   3.047   0.827  1.3170  0.0130 -0.1460
   53MOL    C3716781   0.634   3.160   0.911  0.3103 -0.0592 -0.1330
   53MOL    C3816782   0.520   3.116   1.002 -0.0413 -0.2898  0.0865
   53MOL    C3916783   0.990   2.827   0.874  0.3886 -0.1639 -0.2038
   53MOL    H4016784   0.823   2.859   0.745 -0.5080  0.2752  0.1523
   53MOL    H4116785   0.752   3.093   0.744 -2.4789  3.4346 -0.9068
   53MOL    H4216786   0.634   2.975   0.775  1.1692 -0.5307  0.7903
   53MOL    H4316787   0.604   3.228   0.831  1.5099  0.7888  0.1173
   53MOL    H4416788   0.707   3.222   0.963 -0.3349 -0.1913  0.9332
   53MOL    H4516789   0.437   3.066   0.953  1.6920 -1.5777 -1.6090
   53MOL    H4616790   0.478   3.199   1.059 -0.4840 -0.0347 -0.6034
   53MOL    H4716791   0.561   3.038   1.066  0.8433  0.6877  0.7512
   53MOL    H4816792   1.006   2.834   0.982  0.7185 -2.3714 -0.0889
   53MOL    H4916793   1.040   2.733   0.851 -0.1714 -0.4916 -0.0958
   53MOL    C5016794   1.088   2.930   0.808 -0.1729 -0.0607 -0.1207
   53MOL    O5116795   1.220   2.885   0.856 -0.0575  0.0229  0.2416
   53MOL    C5216796   1.307   2.991   0.870 -0.2160  1.2764 -0.2406
   53MOL    C5316797   1.426   2.936   0.955  0.9246  0.2667 -0.1450
   53MOL    C5416798   1.408   2.899   1.102 -0.1126  0.0592  1.0820
   53MOL    C5516799   1.080   2.940   0.654 -0.1718  0.2612  0.1818
   53MOL    H5616800   1.058   3.028   0.846 -0.7151 -0.2469 -0.0685
   53MOL    H5716801   1.356   3.014   0.776 -0.3687 -1.7448 -1.1029
   53MOL    H5816802   1.267   3.082   0.913 -0.6113  1.7884 -1.6731
   53MOL    H5916803   1.507   3.008   0.949  1.2804  0.0462  1.6039
   53MOL    H6016804   1.457   2.841   0.911 -0.8170 -0.5201  0.2731
   53MOL    H6116805   1.507   2.892   1.147  0.6096 -1.1281 -0.6477
   53MOL    H6216806   1.363   2.800   1.105  0.6413 -0.3454 -0.4856
   53MOL    H6316807   1.360   2.977   1.161 -1.1095  1.5620 -1.6300
   53MOL    H6416808   1.178   2.919   0.612  0.3384 -0.4616  1.7111
   53MOL    H6516809   1.008   2.868   0.617  0.0234  1.2041 -2.1295
   53MOL    C6616810   1.048   3.077   0.590  0.5398  0.1828  0.0153
   53MOL    O6716811   1.147   3.183   0.616 -0.8580  0.3824 -0.1593
   53MOL    C6816812   1.094   3.319   0.612  0.2575 -0.3951  0.5535
   53MOL    C6916813   1.202   3.421   0.631  0.3830  0.0181 -0.5626
   53MOL    C7016814   1.310   3.413   0.518  0.2763 -0.5195  0.0441
   53MOL    C7116815   1.038   3.063   0.438  0.4742 -0.0031  0.5516
   53MOL    H7216816   0.950   3.112   0.624  0.1949 -1.8133  1.1725
   53MOL    H7316817   1.033   3.339   0.525  0.0239 -2.3562  0.2323
   53MOL    H7416818   1.029   3.323   0.700  0.4806  0.0291  0.6976
   53MOL    H7516819   1.251   3.411   0.727 -1.0535 -0.9962  0.0858
   53MOL    H7616820   1.151   3.517   0.638 -0.4961 -0.4440 -0.5480
   53MOL    H7716821   1.384   3.487   0.550  2.1604 -2.2029 -0.3440
   53MOL    H7816822   1.273   3.440   0.419  2.5004  0.2339 -0.6117
   53MOL    H7916823   1.378   3.329   0.509  0.6477 -0.4980  2.2951
   53MOL    H8016824   0.959   2.990   0.425  0.2222  0.3090  0.3373
   53MOL    H8116825   1.006   3.153   0.385 -0.9215 -1.0837 -0.4778
   53MOL    C8216826   1.152   2.996   0.358  0.0909  0.0261 -0.0601
   53MOL    O8316827   1.109   2.986   0.230  0.0401  0.2197  0.5198
   53MOL    C8416828   1.113   2.855   0.175 -0.5053  0.3336  0.9425
   53MOL    C8516829   1.113   2.868   0.028 -0.6282  0.2824  0.0947
   53MOL    C8616830   1.025   2.981   7.801 -0.0295 -0.6626  0.5994
   53MOL    C8716831   1.283   3.089   0.358  0.0849 -0.1698  0.3262
   53MOL    H8816832   1.169   2.896   0.396 -0.6661  0.1959  0.7669
   53MOL    H8916833   1.185   2.789   0.223  2.0777  2.0586 -0.4120
   53MOL    H9016834   1.016   2.813   0.201  0.6061 -1.4009  2.3924
   53MOL    H9116835   1.086   2.772   7.812  1.1886 -0.5376  0.7456
   53MOL    H9216836   1.214   2.887   7.822 -0.4317 -0.3526  0.3240
   53MOL    H9316837   0.929   2.980   0.025  0.1025 -2.5423  0.8199
   53MOL    H9416838   1.012   2.954   7.696 -0.0226  0.3300  0.3381
   53MOL    H9516839   1.069   3.079   7.820 -4.7309  1.2843  2.3841
   53MOL    H9616840   1.240   3.185   0.331  2.9126  0.6511 -1.5390
   53MOL    H9716841   1.329   3.104   0.455  1.3350 -1.6231 -0.0283
   53MOL    C9816842   1.399   3.054   0.259  0.1200  0.1861 -0.2706
   53MOL    O9916843   1.502   3.155   0.286 -0.1128  0.2575 -0.7381
   53MOL   C10016844   1.497   3.281   0.223 -0.1017 -0.1159  0.2269
   53MOL   C10116845   1.617   3.359   0.279 -0.7244  0.8990  0.0118
   53MOL   C10216846   1.749   3.287   0.254 -0.1480 -0.1728 -0.1087
   53MOL   C10316847   1.462   2.917   0.297  0.0544 -0.3247  0.9280
   53MOL   H10416848   1.362   3.056   0.157 -0.0932  0.2905 -0.1926
   53MOL   H10516849   1.516   3.270   0.116  0.2190 -0.8006  0.3530
   53MOL   H10616850   1.402   3.334   0.230 -0.7433 -1.3302  0.8950
   53MOL   H10716851   1.603   3.370   0.386 -0.9413  0.7397 -0.0015
   53MOL   H10816852   1.628   3.465   0.255  0.3963  0.5830 -0.9094
   53MOL   H10916853   1.841   3.313   0.307 -0.3474  0.3928 -0.0449
   53MOL   H11016854   1.782   3.304   0.151  1.7212  1.2991  0.6936
   53MOL   H11116855   1.738   3.179   0.268 -1.8081 -0.1928 -1.4936
   53MOL   H11216856   1.495   2.907   0.400  3.5704 -0.2611 -0.1054
   53MOL   H11316857   1.383   2.843   0.293  0.2019 -0.5159  1.5868
   53MOL   C11416858   1.585   2.874   0.205  0.5907  0.2161  0.1184
   53MOL   O11516859   1.609   2.740   0.222  0.5327 -0.2052 -0.3102
   53MOL   C11616860   1.709   2.711   0.321  0.0429 -0.1214  0.5425
   53MOL   C11716861   1.725   2.558   0.338 -0.1328 -0.1163  0.6499
   53MOL   C11816862   1.774   2.513   0.476 -0.2343 -0.2883 -0.2451
   53MOL   C11916863   1.552   2.868   0.055 -0.0603  0.1489 -0.0778
   53MOL   H12016864   1.675   2.935   0.219  0.5396  0.5072 -0.8212
   53MOL   H12116865   1.807   2.753   0.300  0.2539 -1.4259 -1.1165
   53MOL   H12216866   1.686   2.763   0.415  0.0914 -0.3682  0.6923
   53MOL   H12316867   1.785   2.513   0.259 -1.3482  1.0473 -0.9668
   53MOL   H12416868   1.629   2.510   0.319 -1.5068  2.6278  0.4133
   53MOL   H12516869   1.698   2.540   0.550  0.3916  0.4720  0.1297
   53MOL   H12616870   1.864   2.570   0.501 -0.3563 -0.8106  1.4067
   53MOL   H12716871   1.806   2.409   0.481  1.0641  0.1741  1.5637
   53MOL   H12816872   1.449   2.833   0.039 -0.1370 -0.4819  1.7492
   53MOL   H12916873   1.550   2.976   0.040  1.8976 -0.0795 -2.3649
   53MOL   C13016874   1.662   2.812   7.783 -0.4761  0.0387  0.0628
   53MOL   O13116875   1.609   2.833   7.651  0.1520  0.0146  0.1664
   53MOL   C13216876   1.545   2.719   7.606  0.1670  0.2323  0.0182
   53MOL   C13316877   1.458   2.750   7.484  0.3541 -0.5995 -0.1838
   53MOL   C13416878   1.384   2.635   7.422 -0.0163 -0.1487  0.2316
   53MOL   C13516879   1.798   2.882   7.789  0.2965  0.2792 -0.3076
   53MOL   H13616880   1.677   2.706   7.802  2.4707  0.3582 -0.2850
   53MOL   H13716881   1.606   2.635   7.571 -1.3594 -0.7131 -0.4155
   53MOL   H13816882   1.486   2.673   7.685  1.5261 -2.3318 -0.4069
   53MOL   H13916883   1.529   2.792   7.413  1.9660 -3.5638 -0.4136
   53MOL   H14016884   1.381   2.817   7.523  1.7027 -0.0238  1.5413
   53MOL   H14116885   1.344   2.562   7.492 -2.8096  0.9575 -0.1696
   53MOL   H14216886   1.443   2.574   7.353 -1.8550 -3.1543  1.2332
   53MOL   H14316887   1.297   2.665   7.364 -1.4577 -0.9868  1.9424
   53MOL   H14416888   1.786   2.988   7.771  2.0808  0.6443  0.5013
   53MOL   H14516889   1.824   2.863   0.065 -0.9310 -1.5864 -0.3016
   53MOL   C14616890   1.917   2.828   7.691  0.0226  0.0692  0.8955
   53MOL   O14716891   2.033   2.911   7.713  0.2243  1.1819  0.1458
   53MOL   C14816892   2.040   3.019   7.615  0.5302  0.9389 -0.2381
   53MOL   C14916893   2.136   3.114   7.686 -0.5326 -0.3320 -0.2350
   53MOL   C15016894   2.081   3.181   7.817  0.3018 -0.0323  0.1186
   53MOL   C15116895   1.965   2.678   7.706 -0.1553  0.7399 -0.1938
   53MOL   H15216896   1.888   2.836   7.587  3.1302 -1.7380 -0.1653
   53MOL   H15316897   2.086   2.984   7.523  0.7157  0.9760 -0.1602
   53MOL   H15416898   1.940   3.063   7.612 -0.2168 -0.6852  0.1616
   53MOL   H15516899   2.179   3.184   7.614  0.7387  0.2812  1.1104
   53MOL   H15616900   2.224   3.054   7.709  0.1172 -0.0044 -1.7351
   53MOL   H15716901   2.109   3.120   0.075 -0.7817  2.3219  2.2464
   53MOL   H15816902   1.972   3.188   7.813  0.3425  1.5790  0.9595
   53MOL   H15916903   2.113   3.284   0.008 -2.6153  0.8184  0.7535
   53MOL   H16016904   1.977   2.665   7.814  0.4044  0.7282 -0.2555
   53MOL   H16116905   1.888   2.607   7.676  1.3545 -1.0313 -0.0142
   53MOL   C16216906   2.094   2.627   7.632  0.4815  0.3720  0.0272
   53MOL   O16316907   2.113   2.493   7.684 -0.0518 -0.0997 -0.4299
   53MOL   C16416908   2.247   2.432   7.668  0.8827 -0.3544  0.2543
   53MOL   C16516909   2.241   2.287   7.721 -0.2011  0.3048  0.5347
   53MOL   C16616910   2.160   2.201   7.627  1.0429  0.3014 -0.1225
   53MOL   C16716911   2.085   2.622   7.475  0.4100 -0.6558 -0.5137
   53MOL   H16816912   2.172   2.700   7.654  2.1435 -1.1149 -0.8242
   53MOL   H16916913   2.281   2.434   7.565  0.1838  1.0154  0.0299
   53MOL   H17016914   2.313   2.495   7.727 -0.7921  1.3077  0.4011
   53MOL   H17116915   2.192   2.285   7.819 -1.9119  0.2047 -0.3066
   53MOL   H17216916   2.347   2.266   7.734  0.0386  1.7413  1.0067
   53MOL   H17316917   2.190   2.098   7.649 -0.6070 -0.3118 -0.7033
   53MOL   H17416918   2.179   2.237   7.526 -0.2401 -0.5043 -0.6738
   53MOL   H17516919   2.054   2.216   7.647  0.7154  0.7025 -2.0438
   53MOL   H17616920   2.105   2.724   7.442  0.4012 -0.1936  0.8721
   53MOL   H17716921   2.164   2.569   7.423 -0.9476 -2.0094 -1.2448
   53MOL   C17816922   1.952   2.572   7.404  0.1432 -0.9304 -0.5199
   53MOL   O17916923   1.936   2.619   7.267 -0.2085 -0.0415  0.2598
   53MOL   C18016924   1.895   2.758   7.256 -0.2871  0.5988  0.0731
   53MOL   C18116925   1.896   2.796   7.106 -0.0055 -0.8544  0.0159
   53MOL   C18216926   1.837   2.694   7.006  0.3061 -0.0999  0.0834
   53MOL   C18316927   1.940   2.420   7.412  0.7571  0.4119  0.6283
   53MOL   H18416928   1.864   2.608   7.458 -0.5435  1.0030 -2.8859
   53MOL   H18516929   1.802   2.780   7.309  0.1714 -1.1156  1.6375
   53MOL   H18616930   1.975   2.820   7.295  1.8616 -0.3332 -2.6742
   53MOL   H18716931   2.001   2.804   7.077 -0.4223 -0.4495 -1.4277
   53MOL   H18816932   1.858   2.898   7.099 -2.6323 -1.9398 -2.7048
   53MOL   H18916933   1.912   2.614   7.005  1.1389  0.6532  1.0137
   53MOL   H19016934   1.834   2.726   6.902  0.0925 -1.6771 -0.4082
   53MOL   H19116935   1.736   2.664   7.035  0.0151  1.1887  0.4302
   53MOL   H19216936   2.016   2.372   7.350 -0.6036 -2.7005  1.2392
   53MOL   H19316937   1.947   2.379   7.513 -1.8313 -0.5407  0.4434
   53MOL   C19416938   1.804   2.362   7.362 -0.6633 -0.3403 -0.4870
   53MOL   O19516939   1.682   2.415   7.422 -0.4879  0.3326  0.0513
   53MOL   C19616940   1.656   2.352   7.547 -0.0213  0.1003  0.2532
   53MOL   C19716941   1.579   2.219   7.525  0.4968 -0.1933  0.4825
   53MOL   C19816942   1.525   2.153   7.650  0.4109 -0.2846 -0.5416
   53MOL   C19916943   1.771   2.369   7.209 -0.4209  0.1894  0.3552
   53MOL   H20016944   1.799   2.254   7.373 -2.5245 -0.2255  0.1263
   53MOL   H20116945   1.748   2.340   7.604  1.0638  0.2752 -1.4114
   53MOL   H20216946   1.586   2.413   7.604 -0.9269 -2.3238  1.7955
   53MOL   H20316947   1.633   2.138   7.477  2.4150  2.3667 -1.8059
   53MOL   H20416948   1.494   2.239   7.460  0.9905 -2.3851 -0.8830
   53MOL   H20516949   1.609   2.141   7.719 -0.7675  1.5546  1.2940
   53MOL   H20616950   1.476   2.063   7.614 -1.8358 -0.0940  1.9005
   53MOL   H20716951   1.461   2.220   7.708  1.2913  1.7476 -1.8580
   53MOL   H20816952   1.743   2.469   7.176 -0.3836 -0.0472 -0.3829
   53MOL   H20916953   1.862   2.343   7.154 -0.3420  0.9874  0.1059
   53MOL   C21016954   1.659   2.275   7.165 -0.3630  0.4504 -0.3213
   53MOL   O21116955   1.597   2.309   7.040 -0.5405 -0.2801  0.0965
   53MOL   C21216956   1.465   2.355   7.051  0.4898 -0.0602  0.7845
   53MOL   C21316957   1.424   2.406   6.918  0.4957 -0.6217 -0.2393
   53MOL   C21416958   1.486   2.550   6.879  0.7195  0.4070 -0.6012
   53MOL   C21516959   1.698   2.124   7.147  0.2479 -0.4123 -0.2211
   53MOL   H21616960   1.591   2.267   7.250  0.9457 -1.1310  0.6226
   53MOL   H21716961   1.394   2.279   7.084 -0.6367  0.5472 -0.2169
   53MOL   H21816962   1.457   2.433   7.126 -2.6621 -1.2930  1.8269
   53MOL   H21916963   1.315   2.415   6.909  0.6303  1.2484 -0.3374
   53MOL   H22016964   1.466   2.344   6.839 -0.2354  2.5514 -3.2736
   53MOL   H22116965   1.595   2.541   6.875  0.6876  1.0130 -4.0184
   53MOL   H22216966   1.460   2.632   6.946 -0.2724 -2.0295  2.1015
   53MOL   H22316967   1.451   2.594   6.785 -1.7658 -1.8310 -0.7777
   53MOL   H22416968   1.794   2.134   7.097  1.6865 -0.7731  2.3893
   53MOL   H22516969   1.727   2.073   7.239 -3.6031 -1.9996  0.2303
   53MOL   C22616970   1.593   2.031   7.079 -0.3672  0.2774 -1.1332
   53MOL   O22716971   1.663   1.920   7.014  0.3140 -0.1979 -0.2789
   53MOL   C22816972   1.581   1.858   6.914  1.0636  0.2661 -0.2105
   53MOL   C22916973   1.661   1.765   6.823  0.0156 -0.0285 -0.5626
   53MOL   C23016974   1.581   1.706   6.707  0.4940  0.4045  0.3023
   53MOL   C23116975   1.476   1.997   7.172  0.3405  0.0090 -0.2328
   53MOL   H23216976   1.549   2.087   6.997  0.3315  1.0790 -0.9728
   53MOL   H23316977   1.506   1.798   6.966  1.6521  0.2372  0.6134
   53MOL   H23416978   1.526   1.929   6.851 -0.6631 -0.9265 -0.0947
   53MOL   H23516979   1.707   1.686   6.882 -0.2922 -0.5494 -1.0114
   53MOL   H23616980   1.740   1.828   6.782 -2.2128  2.3013 -1.4350
   53MOL   H23716981   1.497   1.661   6.761  2.3718 -0.0716  2.8945
   53MOL   H23816982   1.626   1.638   6.635  0.9000 -0.5119  1.4119
   53MOL   H23916983   1.533   1.779   6.641 -0.7706  0.5797  1.3953
   53MOL   H24016984   1.449   2.077   7.241 -1.3715  0.0372 -0.9109
   53MOL   H24116985   1.393   1.984   7.102  0.8238  1.6528 -1.1312
   53MOL   C24216986   1.501   1.864   7.259 -0.3885  0.2792  0.1528
   53MOL   O24316987   1.601   1.893   7.362 -0.0099 -0.2820 -0.0782
   53MOL   C24416988   1.661   1.789   7.431 -1.0222  0.5335 -0.4214
   53MOL   C24516989   1.779   1.823   7.530  0.0900  0.1743 -0.4642
   53MOL   C24616990   1.884   1.891   7.449  0.4510  1.1524  0.1815
   53MOL   C24716991   1.373   1.822   7.330  0.1122 -0.2238  0.5903
   53MOL   H24816992   1.543   1.778   7.207 -2.4707  0.3943 -1.8360
   53MOL   H24916993   1.584   1.729   7.479  1.2521 -0.1275  2.5197
   53MOL   H25016994   1.704   1.731   7.350 -2.3974 -0.5200 -0.4216
   53MOL   H25116995   1.811   1.726   7.569 -0.1228  0.2730 -0.0384
   53MOL   H25216996   1.733   1.878   7.612  0.0096 -0.0227 -0.3753
   53MOL   H25316997   1.924   1.820   7.376  0.3469  1.1611  0.1164
   53MOL   H25416998   1.966   1.909   7.518  0.8987 -1.2304  0.3255
   53MOL   H25516999   1.845   1.988   7.418 -0.7077  0.1007 -1.8132
   53MOL   H25617000   1.393   1.747   7.406 -1.7435 -2.8440 -1.3834
   53MOL   H25717001   1.342   1.909   7.388 -0.2533 -0.0397  0.1201
   53MOL   C25817002   1.256   1.773   7.237  0.0262  0.5926 -0.2095
   53MOL   O25917003   1.297   1.651   7.174  0.7107 -0.2049 -0.1860
   53MOL   C26017004   1.255   1.643   7.032 -0.4727  0.2449  0.2234
   53MOL   C26117005   1.309   1.514   6.966 -0.4852 -0.5528  0.5496
   53MOL   C26217006   1.250   1.498   6.829  0.1326 -0.2831 -0.0019
   53MOL   C26317007   1.129   1.748   7.324  0.1016  0.7046  0.3461
   53MOL   H26417008   1.235   1.849   7.162  0.0955  1.5198  0.7062
   53MOL   H26517009   1.146   1.646   7.024 -0.4116 -0.0610 -0.8715
   53MOL   H26617010   1.289   1.730   6.976  1.6431 -0.9137 -0.3197
   53MOL   H26717011   1.291   1.432   7.035 -0.8801 -0.4870  0.5277
   53MOL   H26817012   1.416   1.531   6.974  0.0280 -3.2011 -0.1997
   53MOL   H26917013   1.285   1.405   6.784 -0.6235 -0.1702 -0.8358
   53MOL   H27017014   1.268   1.577   6.756 -1.6866  0.3175  0.1791
   53MOL   H27117015   1.142   1.499   6.843 -0.0801 -0.0692 -1.6073
   53MOL   H27217016   1.056   1.700   7.259 -0.8197  3.1880 -0.5237
   53MOL   H27317017   1.151   1.677   7.404  2.1200  2.4028  1.3410
   53MOL   C27417018   1.043   1.869   7.363 -0.1444 -0.0818  0.2139
   53MOL   O27517019   1.111   1.937   7.464 -0.5062 -0.1413 -0.2006
   53MOL   C27617020   1.042   2.022   7.553  0.1705 -0.0216  0.0601
   53MOL   C27717021   1.139   2.115   7.621 -0.6280 -0.9086  0.3677
   53MOL   C27817022   1.200   2.224   7.524 -0.5930  0.0127  0.0940
   53MOL   C27917023   1.016   1.945   7.230  0.0369  0.0149  0.0214
   53MOL   H28017024   0.955   1.813   7.393 -1.2025  0.3899 -1.9613
   53MOL   H28117025   0.953   2.073   7.516 -0.3765 -0.9165  0.1118
   53MOL   H28217026   0.990   1.962   7.628 -0.5842  0.4414 -0.0893
   53MOL   H28317027   1.228   2.064   7.658 -0.1406  0.4972  1.2127
   53MOL   H28417028   1.088   2.171   7.700 -1.0282 -0.0561 -0.4764
   53MOL   H28517029   1.265   2.179   7.449  0.0917 -1.3634  1.4753
   53MOL   H28617030   1.260   2.300   7.575  1.2404  0.0289 -1.9956
   53MOL   H28717031   1.122   2.283   7.477 -0.1627  1.6605  1.3799
   53MOL   H28817032   1.097   2.015   7.213  0.0741 -0.0433 -0.0413
   53MOL   H28917033   1.012   1.873   7.148  1.2636  1.0187 -0.9271
   53MOL   C29017034   0.881   2.025   7.224 -0.1329 -0.0376  0.2458
   53MOL   O29117035   0.899   2.125   7.119  0.6764  0.4123 -0.1427
   53MOL   C29217036   0.941   2.255   7.156  0.2610 -0.3159  0.9474
   53MOL   C29317037   0.977   2.336   7.028 -0.4083  0.6800  0.0899
   53MOL   C29417038   1.013   2.479   7.058  0.1004 -0.2324  0.3311
   53MOL   C29517039   0.762   1.938   7.184  0.1502 -0.5689  0.3128
   53MOL   H29617040   0.875   2.085   7.315 -2.6085  0.4385 -0.2193
   53MOL   H29717041   0.870   2.302   7.224 -0.5888 -0.1984  0.0008
   53MOL   H29817042   1.033   2.238   7.211  0.3828 -3.8876 -0.1866
   53MOL   H29917043   0.892   2.330   6.960 -1.7847  0.2345  1.8113
   53MOL   H30017044   1.063   2.286   6.981  0.8966  2.1208  0.8891
   53MOL   H30117045   1.099   2.486   7.126  0.1244  1.0042  0.1674
   53MOL   H30217046   0.931   2.528   7.110 -1.1674 -1.2754 -0.6737
   53MOL   H30317047   1.045   2.537   6.972 -1.1718  1.0650  0.7188
   53MOL   H30417048   0.787   1.886   7.091  1.5961  1.3102 -0.3853
   53MOL   H30517049   0.755   1.860   7.259  1.8553  0.5323  1.6368
   53MOL   C30617050   0.640   2.029   7.179  0.1224 -0.4217 -0.9994
   53MOL   O30717051   0.529   1.942   7.147  0.1562  0.0932 -0.1683
   53MOL   C30817052   0.504   1.952   7.005  0.5116  0.2231  0.6025
   53MOL   C30917053   0.359   1.915   6.976 -0.5947  0.7237 -0.3015
   53MOL   C31017054   0.266   2.030   7.018 -0.4758  0.0315  0.2762
   53MOL   C31117055   0.598   2.088   7.312 -1.1259 -0.2147 -0.7411
   53MOL   H31217056   0.644   2.114   7.111 -0.7301  0.7564  0.3831
   53MOL   H31317057   0.542   2.038   6.952  1.0737 -0.1810  0.3440
   53MOL   H31417058   0.567   1.869   6.972 -0.9190 -0.4579 -0.5117
   53MOL   H31517059   0.334   1.826   7.034  1.1129  1.1145  1.0926
   53MOL   H31617060   0.340   1.899   6.870 -0.6487  0.2095 -0.2156
   53MOL   H31717061   0.302   2.125   6.980  1.3806  0.0867  2.1051
   53MOL   H31817062   0.248   2.042   7.125 -2.1086 -2.9230  0.3918
   53MOL   H31917063   0.168   2.007   6.976  0.3733 -0.4051 -1.4672
   53MOL   H32017064   0.584   2.022   7.398  1.4036 -0.0296 -0.1348
   53MOL   H32117065   0.672   2.166   7.328 -0.4980 -0.4911 -2.2589
   53MOL   H32217066   0.514   2.156   7.300 -0.1252  1.5628  1.8245
   54MOL     C117067   5.245   3.291   0.183 -0.2120  0.6494  0.2945
   54MOL     O217068   5.376   3.301   0.130 -0.1735 -0.2825  0.0427
   54MOL     C317069   5.411   3.419   0.050  0.3913 -0.0658 -0.1019
   54MOL     C417070   5.555   3.409   7.824  0.5719 -0.0441  0.0705
   54MOL     C517071   5.592   3.279   7.735  0.0747  0.0910  0.6696
   54MOL     C617072   5.224   3.180   0.295  0.4081 -0.1821 -0.4813
   54MOL     H717073   5.168   3.284   0.106  0.3039  3.8008 -0.5807
   54MOL     H817074   5.334   3.421   7.801  0.2285 -0.7134  0.0430
   54MOL     H917075   5.391   3.512   0.104 -1.0568 -0.1160 -0.5349
   54MOL    H1017076   5.615   3.394   0.086 -0.5522 -2.2446  0.4917
   54MOL    H1117077   5.589   3.503   7.780  0.5649  0.0800  0.3306
   54MOL    H1217078   5.620   3.192   7.796 -2.0116 -1.2675 -0.2460
   54MOL    H1317079   5.675   3.304   7.670 -0.8761 -0.7167 -0.8837
   54MOL    H1417080   5.510   3.252   7.669  0.3994 -0.8603  0.6404
   54MOL    H1517081   5.213   3.084   0.244  0.8875 -0.4797 -0.0317
   54MOL    H1617082   5.315   3.169   0.354  0.3665  0.5828 -0.2647
   54MOL    H1717083   5.227   3.384   0.237  3.0383  1.1592  0.6016
   54MOL    C1817084   5.107   3.202   0.386 -0.2549 -0.5377 -0.1440
   54MOL    O1917085   4.987   3.208   0.306  0.3518 -0.2713  0.1525
   54MOL    C2017086   4.891   3.302   0.339 -0.6715 -0.4480  0.1679
   54MOL    C2117087   4.773   3.302   0.228  0.6694  0.3712 -0.6984
   54MOL    C2217088   4.665   3.207   0.287 -0.6535 -0.6714 -0.3009
   54MOL    C2317089   5.097   3.085   0.482 -0.4691 -0.2455 -0.1653
   54MOL    H2417090   5.111   3.292   0.447 -0.8393 -0.8530  0.3709
   54MOL    H2517091   4.865   3.296   0.444  2.3512 -4.1033  0.8010
   54MOL    H2617092   4.933   3.400   0.316 -0.4924  0.1476  2.9112
   54MOL    H2717093   4.793   3.295   0.121  1.2496  2.1585 -0.7162
   54MOL    H2817094   4.724   3.399   0.220  1.4358  0.7687 -0.6108
   54MOL    H2917095   4.716   3.113   0.308  0.3129 -0.2357 -0.6546
   54MOL    H3017096   4.589   3.180   0.213 -0.0118 -2.0422 -0.4810
   54MOL    H3117097   4.620   3.241   0.380 -0.1375 -3.7765  1.1561
   54MOL    H3217098   4.999   3.084   0.529  0.2752 -0.1117  1.4218
   54MOL    H3317099   5.094   2.991   0.426  0.7696 -0.4215  0.0490
   54MOL    C3417100   5.204   3.085   0.590 -0.3143 -0.1948  0.3972
   54MOL    O3517101   5.136   3.112   0.713  0.2105  0.1773  0.7667
   54MOL    C3617102   5.096   3.250   0.731  0.0498  0.6271 -0.4200
   54MOL    C3717103   5.083   3.290   0.884 -0.8267  0.0032 -0.4255
   54MOL    C3817104   4.956   3.237   0.962 -0.3595 -0.2549 -0.6135
   54MOL    C3917105   5.272   2.947   0.594 -0.1017 -0.4238  0.0010
   54MOL    H4017106   5.279   3.162   0.573  1.8087 -2.3150  0.0116
   54MOL    H4117107   5.164   3.326   0.693  2.1401 -0.6774  0.6643
   54MOL    H4217108   4.994   3.256   0.693 -1.6503 -2.6455  3.2940
   54MOL    H4317109   5.080   3.399   0.892 -0.2346  0.0960 -1.4162
   54MOL    H4417110   5.168   3.253   0.940 -0.5256  0.3405 -0.6521
   54MOL    H4517111   4.867   3.257   0.903 -1.8004  0.4478  1.7266
   54MOL    H4617112   4.949   3.296   1.053 -2.7625 -0.3772 -0.6959
   54MOL    H4717113   4.975   3.130   0.970  4.2601  0.2954 -2.7153
   54MOL    H4817114   5.200   2.881   0.643  0.3650  0.1496  1.4918
   54MOL    H4917115   5.294   2.910   0.494 -1.8122 -0.8807 -0.2166
   54MOL    C5017116   5.406   2.945   0.676 -0.5071 -0.4833  0.5015
   54MOL    O5117117   5.455   2.813   0.670 -0.0118 -0.4123 -0.4977
   54MOL    C5217118   5.532   2.777   0.783 -0.0597  0.0077 -0.8124
   54MOL    C5317119   5.603   2.645   0.757 -0.3239 -0.4309  0.4745
   54MOL    C5417120   5.505   2.534   0.709 -0.3885  0.4087  0.4285
   54MOL    C5517121   5.517   3.040   0.627 -0.3768  0.4935 -0.6210
   54MOL    H5617122   5.391   2.971   0.781  0.3789 -0.2715  0.5798
   54MOL    H5717123   5.607   2.855   0.795 -0.8485  0.4326  1.6074
   54MOL    H5817124   5.474   2.766   0.875  1.4814 -1.5889  0.0035
   54MOL    H5917125   5.668   2.624   0.841  2.1191  2.2039 -0.6700
   54MOL    H6017126   5.675   2.680   0.683 -0.4620 -0.0420  0.5175
   54MOL    H6117127   5.420   2.530   0.777 -0.4477  2.3867  0.5157
   54MOL    H6217128   5.553   2.436   0.707  1.0134  1.0362  2.0134
   54MOL    H6317129   5.466   2.546   0.608  0.2717  2.1171  0.3527
   54MOL    H6417130   5.609   2.981   0.630 -0.3371  0.5990  0.5451
   54MOL    H6517131   5.502   3.069   0.523 -0.0424 -0.6436 -0.9987
   54MOL    C6617132   5.542   3.165   0.722  0.0291  0.2509 -0.0667
   54MOL    O6717133   5.566   3.111   0.851  0.4185 -0.5096 -0.3645
   54MOL    C6817134   5.527   3.192   0.956  0.2045  0.0088 -0.8320
   54MOL    C6917135   5.576   3.128   1.080 -0.1276  0.0363  0.6002
   54MOL    C7017136   5.567   3.210   1.213  0.1293  0.3362 -0.1471
   54MOL    C7117137   5.665   3.247   0.686  0.2852  0.0920  0.0125
   54MOL    H7217138   5.448   3.220   0.727  0.6609  1.3651 -0.0838
   54MOL    H7317139   5.567   3.292   0.941  1.0274  0.1946  2.1192
   54MOL    H7417140   5.418   3.195   0.959  0.1813 -0.2653 -1.4782
   54MOL    H7517141   5.684   3.112   1.073  0.0131  0.4447  1.7235
   54MOL    H7617142   5.520   3.035   1.095 -2.5654  1.6663  1.9081
   54MOL    H7717143   5.617   3.305   1.195 -1.3275  1.1093 -0.1875
   54MOL    H7817144   5.612   3.153   1.295  0.1542  1.5155  0.6677
   54MOL    H7917145   5.465   3.231   1.244  0.6766  1.2276  1.1114
   54MOL    H8017146   5.688   3.318   0.766  1.8860  1.3545 -1.5241
   54MOL    H8117147   5.752   3.180   0.690  0.8711  0.7181 -1.8985
   54MOL    C8217148   5.656   3.323   0.554  0.0866  0.4620  0.1155
   54MOL    O8317149   5.561   3.430   0.564 -0.1838  0.4132 -0.3748
   54MOL    C8417150   5.497   3.460   0.442 -0.2837  0.4328  0.5518
   54MOL    C8517151   5.370   3.540   0.470  0.2827 -0.3367  0.2901
   54MOL    C8617152   5.409   3.674   0.529  0.3423 -0.4637  0.0723
   54MOL    C8717153   5.792   3.381   0.517  0.0314  0.2091  0.8237
   54MOL    H8817154   5.623   3.257   0.473 -1.8885  1.9646 -0.3282
   54MOL    H8917155   5.573   3.517   0.389  2.6429 -3.6025  0.2519
   54MOL    H9017156   5.465   3.388   0.366 -0.1594  0.5247  0.4113
   54MOL    H9117157   5.294   3.485   0.526  0.6956 -0.7006  0.4997
   54MOL    H9217158   5.317   3.549   0.375 -0.6224 -0.7483  0.7500
   54MOL    H9317159   5.317   3.727   0.554  0.3328  0.9553 -2.8506
   54MOL    H9417160   5.451   3.732   0.447 -1.3530  0.0473 -0.4476
   54MOL    H9517161   5.471   3.672   0.619  2.2924  0.5823 -1.2235
   54MOL    H9617162   5.780   3.475   0.464  0.4016 -0.0995  0.1807
   54MOL    H9717163   5.846   3.418   0.604 -0.3071 -1.8259  1.9379
   54MOL    C9817164   5.884   3.291   0.431  0.5472  0.5471  0.0502
   54MOL    O9917165   5.804   3.245   0.321  0.5750 -0.1235 -0.2213
   54MOL   C10017166   5.852   3.120   0.278  0.1466 -0.4212 -0.6752
   54MOL   C10117167   5.744   3.058   0.197  0.8168  0.8084  0.5863
   54MOL   C10217168   5.604   3.047   0.250  0.3624  0.5932  0.8238
   54MOL   C10317169   6.001   3.372   0.371  0.5393  0.1633 -0.1684
   54MOL   H10417170   5.915   3.213   0.500  0.3874 -1.0984 -1.6989
   54MOL   H10517171   5.948   3.124   0.226  1.6922  0.0515  2.0920
   54MOL   H10617172   5.874   3.054   0.363  0.7684  0.3789 -0.2096
   54MOL   H10717173   5.783   2.960   0.169  0.3551  0.2071  2.0008
   54MOL   H10817174   5.741   3.107   0.099 -0.0314 -1.5379 -0.6093
   54MOL   H10917175   5.553   2.985   0.176 -0.0006 -0.3002  1.8216
   54MOL   H11017176   5.553   3.141   0.273  0.4267  1.4810 -2.3727
   54MOL   H11117177   5.602   2.987   0.340  2.9595 -0.6522  0.1111
   54MOL   H11217178   6.061   3.312   0.302  2.7680  0.6381  1.3175
   54MOL   H11317179   5.945   3.442   0.309  0.3099 -1.0642 -1.3808
   54MOL   C11417180   6.103   3.439   0.463  0.4092 -0.3425  0.0754
   54MOL   O11517181   6.213   3.347   0.487  0.0054  0.8024 -0.1597
   54MOL   C11617182   6.271   3.345   0.612  1.0242 -1.3530 -0.3658
   54MOL   C11717183   6.359   3.221   0.602 -0.9221  0.4354  0.0739
   54MOL   C11817184   6.475   3.233   0.508 -0.3317 -0.3424 -0.0781
   54MOL   C11917185   6.151   3.569   0.391  0.0976  0.2616  0.4325
   54MOL   H12017186   6.061   3.462   0.561  1.5774 -0.9215  0.7187
   54MOL   H12117187   6.333   3.435   0.615 -0.2323 -0.5155  0.7681
   54MOL   H12217188   6.201   3.343   0.696  1.3515  0.1064 -0.0353
   54MOL   H12317189   6.294   3.137   0.577  1.2907 -1.3533  0.1759
   54MOL   H12417190   6.401   3.186   0.697  3.7204 -1.2011 -2.4325
   54MOL   H12517191   6.441   3.209   0.407 -0.4436  1.3221 -0.4405
   54MOL   H12617192   6.549   3.153   0.516 -1.0435 -0.9091  0.9026
   54MOL   H12717193   6.525   3.329   0.501 -0.3808 -0.2470  0.8335
   54MOL   H12817194   6.234   3.608   0.450  0.1430 -0.9599  1.1959
   54MOL   H12917195   6.197   3.532   0.300 -2.1985 -1.2183 -0.1677
   54MOL   C13017196   6.047   3.680   0.378  0.2747  0.0382  0.3934
   54MOL   O13117197   6.022   3.714   0.514 -0.4397  0.1430 -0.1640
   54MOL   C13217198   5.899   3.786   0.532  0.0188  0.2475 -0.1812
   54MOL   C13317199   5.848   3.804   0.681  0.3399 -0.0864  0.5783
   54MOL   C13417200   5.815   3.673   0.748  0.4660  0.6451  0.1566
   54MOL   C13517201   6.107   3.798   0.296  0.0963 -0.2626 -0.5284
   54MOL   H13617202   5.955   3.650   0.327  0.6856  1.6836 -1.3835
   54MOL   H13717203   5.905   3.886   0.489  0.1836 -0.0372 -0.8180
   54MOL   H13817204   5.816   3.737   0.481 -0.0989  0.9994 -0.7281
   54MOL   H13917205   5.766   3.875   0.692 -1.5175 -1.5292 -3.0239
   54MOL   H14017206   5.924   3.865   0.729 -2.5345  3.1578  1.1737
   54MOL   H14117207   5.903   3.610   0.756  0.5551  1.0491  2.7266
   54MOL   H14217208   5.745   3.622   0.681 -2.3451  3.8916  0.4893
   54MOL   H14317209   5.762   3.686   0.843 -0.5666 -0.0065 -0.3162
   54MOL   H14417210   6.028   3.873   0.290 -1.0108 -1.2640  1.1920
   54MOL   H14517211   6.181   3.857   0.350 -1.1300  0.9110 -0.0808
   54MOL   C14617212   6.147   3.750   0.154  0.4112 -0.0405  0.1852
   54MOL   O14717213   6.036   3.706   0.079 -0.3276  0.3031 -0.0631
   54MOL   C14817214   6.052   3.687   7.770  0.0868  0.7593  0.4914
   54MOL   C14917215   5.937   3.598   7.731  0.1387 -0.4924  0.2488
   54MOL   C15017216   5.935   3.462   7.798 -0.4497 -0.5741  0.2953
   54MOL   C15117217   6.219   3.871   0.087 -0.7164  0.2996 -0.1204
   54MOL   H15217218   6.228   3.678   0.148  0.5279 -0.2491  3.5409
   54MOL   H15317219   6.065   3.786   7.724 -1.7460 -0.3534 -2.5905
   54MOL   H15417220   6.151   3.644   7.754 -0.4733 -1.1069  1.9340
   54MOL   H15517221   5.948   3.576   7.624  0.3944 -1.4836  0.4752
   54MOL   H15617222   5.847   3.658   7.744  1.1756  0.8451  1.4814
   54MOL   H15717223   5.857   3.392   7.767  0.0883 -0.6345 -0.9666
   54MOL   H15817224   5.920   3.472   0.078 -0.3481  0.8208  0.1910
   54MOL   H15917225   6.038   3.429   7.791  0.3281  1.7230  0.4196
   54MOL   H16017226   6.258   3.833   7.820 -2.2869 -3.2829  0.6115
   54MOL   H16117227   6.153   3.956   0.074  0.7783  1.3402 -1.1453
   54MOL   C16217228   6.351   3.906   0.166 -0.2823  0.4319 -0.0480
   54MOL   O16317229   6.432   3.794   0.187  0.2167 -0.1821 -0.1670
   54MOL   C16417230   6.466   3.760   0.320 -0.2460 -0.4209 -0.2576
   54MOL   C16517231   6.547   3.630   0.335 -0.3361 -0.0904  0.3229
   54MOL   C16617232   6.688   3.653   0.296  0.0607 -0.3495 -0.4301
   54MOL   C16717233   6.439   4.012   0.094  0.5659 -0.1280 -0.0453
   54MOL   H16817234   6.337   3.952   0.264 -1.0328 -2.2304  1.1187
   54MOL   H16917235   6.519   3.844   0.367 -2.0792 -0.8789  2.8059
   54MOL   H17017236   6.381   3.764   0.388  0.1016  0.2931  0.1530
   54MOL   H17117237   6.515   3.555   0.263 -1.1640 -0.2130  0.8133
   54MOL   H17217238   6.534   3.586   0.434 -1.2263 -2.2605 -0.7107
   54MOL   H17317239   6.752   3.567   0.277 -0.9848 -1.7604  2.1921
   54MOL   H17417240   6.744   3.703   0.375  0.9593 -1.7035 -0.1855
   54MOL   H17517241   6.688   3.717   0.208  0.7137 -0.2988 -0.3964
   54MOL   H17617242   6.534   4.025   0.146  0.5745 -2.0735  0.4632
   54MOL   H17717243   6.452   3.980   7.819  0.3514 -0.8436  0.1413
   54MOL   C17817244   6.369   4.150   0.088  0.3048 -0.4309  0.6076
   54MOL   O17917245   6.300   4.183   0.208 -0.2619  0.2521 -0.1868
   54MOL   C18017246   6.204   4.287   0.200 -0.1391  0.2261 -0.2977
   54MOL   C18117247   6.110   4.281   0.318 -1.3815 -0.1876 -0.6344
   54MOL   C18217248   6.020   4.401   0.316 -0.8118 -0.2892 -0.1185
   54MOL   C18317249   6.468   4.266   0.058 -0.9806 -0.5107  0.0137
   54MOL   H18417250   6.296   4.156   0.007 -0.3363  1.7496  1.2916
   54MOL   H18517251   6.248   4.387   0.197 -0.3070  0.2494 -2.8817
   54MOL   H18617252   6.147   4.278   0.108  2.2733  1.3487 -1.9634
   54MOL   H18717253   6.160   4.277   0.415 -1.0500 -0.2599 -0.8052
   54MOL   H18817254   6.041   4.200   0.295 -1.8692 -0.1767  0.7661
   54MOL   H18917255   6.076   4.494   0.328 -3.6437  1.3725  0.7317
   54MOL   H19017256   5.942   4.389   0.390 -0.5795 -1.4055 -0.0544
   54MOL   H19117257   5.964   4.412   0.223 -2.5075 -1.6083  0.7364
   54MOL   H19217258   6.410   4.358   0.061 -1.9501 -1.0844 -0.7887
   54MOL   H19317259   6.534   4.271   0.145 -0.1095 -1.1806 -0.5991
   54MOL   C19417260   6.543   4.260   7.750 -0.7570 -0.6739 -0.5691
   54MOL   O19517261   6.458   4.275   7.639 -0.0381 -0.1479 -0.1635
   54MOL   C19617262   6.444   4.162   7.554  0.2329  1.0195 -0.3675
   54MOL   C19717263   6.317   4.176   7.473 -0.0532 -0.5082  0.3038
   54MOL   C19817264   6.192   4.219   7.551 -0.2282  0.2797 -0.1977
   54MOL   C19917265   6.660   4.359   7.736 -0.2466  0.0522  0.1922
   54MOL   H20017266   6.591   4.162   7.748 -0.6389 -0.6111 -1.1410
   54MOL   H20117267   6.524   4.144   7.482 -0.0452  1.3143 -0.7474
   54MOL   H20217268   6.444   4.063   7.600  0.5128  0.2741 -1.9323
   54MOL   H20317269   6.304   4.080   7.423 -0.4555  0.1297 -0.8140
   54MOL   H20417270   6.323   4.247   7.392 -0.1485 -1.2765 -0.3830
   54MOL   H20517271   6.200   4.304   7.619 -0.7034 -0.9337  1.3865
   54MOL   H20617272   6.173   4.139   7.622 -0.7682  0.8744  0.3385
   54MOL   H20717273   6.102   4.215   7.489  1.0040  1.8576 -2.1547
   54MOL   H20817274   6.613   4.458   7.744 -0.6281 -0.2173  1.2935
   54MOL   H20917275   6.736   4.343   7.812 -1.9407 -0.3520  1.8209
   54MOL   C21017276   6.725   4.355   7.593 -0.7479  0.3523  0.0151
   54MOL   O21117277   6.809   4.467   7.599  0.0262  0.8407 -0.2892
   54MOL   C21217278   6.775   4.582   7.518 -0.1578 -0.4106 -0.8694
   54MOL   C21317279   6.881   4.693   7.531  0.3852  0.4741 -0.1918
   54MOL   C21417280   6.870   4.810   7.426  0.0972 -0.0205  0.1636
   54MOL   C21517281   6.801   4.220   7.575  0.3964 -0.5415 -0.4037
   54MOL   H21617282   6.643   4.367   7.523 -0.3062  1.1096 -0.3784
   54MOL   H21717283   6.767   4.550   7.414 -0.4606 -0.6007 -0.7883
   54MOL   H21817284   6.681   4.628   7.547  0.8836  0.3593  1.3735
   54MOL   H21917285   6.982   4.653   7.520  0.1087 -0.6797  1.2930
   54MOL   H22017286   6.882   4.715   7.638  1.5944 -1.8368  0.2996
   54MOL   H22117287   6.907   4.783   7.327 -0.5844 -0.7055  0.0883
   54MOL   H22217288   6.912   4.902   7.467  0.8119  0.3986 -1.4969
   54MOL   H22317289   6.763   4.825   7.411  0.0503  0.1469  0.6598
   54MOL   H22417290   6.861   4.199   7.664 -0.3703  0.8812  0.4650
   54MOL   H22517291   6.730   4.137   7.566 -1.4840  0.5130  3.5200
   54MOL   C22617292   6.889   4.220   7.449  0.1563  0.8607  0.6098
   54MOL   O22717293   6.808   4.248   7.335  0.2741 -0.0173 -0.2409
   54MOL   C22817294   6.732   4.133   7.286 -0.4886  0.5934  0.5931
   54MOL   C22917295   6.638   4.172   7.165 -0.3923 -0.1550 -0.2035
   54MOL   C23017296   6.541   4.058   7.140  0.6642 -0.1412  0.0127
   54MOL   C23117297   7.022   4.312   7.461 -0.4738  0.2745 -0.1726
   54MOL   H23217298   6.936   4.123   7.431 -2.1013 -0.4747  1.6063
   54MOL   H23317299   6.801   4.052   7.262 -0.8117  0.4570  0.1305
   54MOL   H23417300   6.670   4.088   7.364 -0.5610 -1.0893 -0.4331
   54MOL   H23517301   6.690   4.200   7.074 -1.1907  0.0872 -0.5906
   54MOL   H23617302   6.585   4.264   7.187 -2.0325 -0.9518 -0.7476
   54MOL   H23717303   6.461   4.090   7.073 -0.3980 -1.2297  0.7475
   54MOL   H23817304   6.496   4.029   7.235 -0.5764  1.0208 -0.1966
   54MOL   H23917305   6.594   3.977   7.091  0.4955  1.0548 -2.1751
   54MOL   H24017306   7.057   4.320   7.358 -2.4298 -0.9865 -0.9682
   54MOL   H24117307   6.996   4.414   7.491  0.1288  0.0390  1.1669
   54MOL   C24217308   7.125   4.246   7.554  0.2533  0.8293  0.0379
   54MOL   O24317309   7.167   4.128   7.488  0.5148 -0.1432 -0.0745
   54MOL   C24417310   7.184   4.031   7.593  0.1215  0.0961 -0.4511
   54MOL   C24517311   7.265   3.906   7.548 -0.2287 -0.5476  0.2910
   54MOL   C24617312   7.414   3.927   7.521  0.4738 -0.3483 -0.1919
   54MOL   C24717313   7.253   4.324   7.566  0.1124 -0.8346 -0.4929
   54MOL   H24817314   7.071   4.233   7.648 -0.0130  3.2389  0.2528
   54MOL   H24917315   7.234   4.065   7.684  1.3582 -3.5939  0.3335
   54MOL   H25017316   7.084   3.994   7.619  0.2829 -0.5245 -0.6988
   54MOL   H25117317   7.215   3.855   7.466 -2.1695 -1.3062  1.8913
   54MOL   H25217318   7.266   3.823   7.619 -0.5997 -1.2139 -0.4711
   54MOL   H25317319   7.421   3.980   7.426 -0.4757 -0.3437 -0.2649
   54MOL   H25417320   7.464   3.831   7.506 -1.1074 -1.1553 -0.4230
   54MOL   H25517321   7.456   3.980   7.606  0.7135  0.2256 -0.6638
   54MOL   H25617322   7.330   4.260   7.609 -0.2459 -1.9779 -1.5245
   54MOL   H25717323   7.273   4.346   7.461 -3.8415  0.4582 -1.0521
   54MOL   C25817324   7.231   4.443   7.653  0.3519  0.4067 -0.0980
   54MOL   O25917325   7.187   4.390   7.781 -0.3464 -0.0927  0.6292
   54MOL   C26017326   7.100   4.484   0.023 -0.1720 -0.9242 -0.7894
   54MOL   C26117327   7.007   4.420   0.130  0.3773 -0.7396 -0.7551
   54MOL   C26217328   7.081   4.339   0.241  0.1700  0.0304  0.1986
   54MOL   C26317329   7.350   4.538   7.677  0.7776 -0.0266  0.4148
   54MOL   H26417330   7.159   4.506   7.603 -0.5808  0.4498  1.2756
   54MOL   H26517331   7.152   4.570   0.066  0.5479 -1.2763 -0.9566
   54MOL   H26617332   7.021   4.521   7.785  0.0716 -0.3695 -0.7725
   54MOL   H26717333   6.931   4.361   0.080 -0.3865 -0.4070 -0.0014
   54MOL   H26817334   6.944   4.497   0.176 -0.2917 -0.3882 -2.2300
   54MOL   H26917335   7.001   4.295   0.301  0.3034  0.1223  0.4440
   54MOL   H27017336   7.153   4.400   0.296 -1.0129  3.1071 -1.5679
   54MOL   H27117337   7.136   4.253   0.203  2.0189  0.6964  1.2997
   54MOL   H27217338   7.318   4.605   7.756 -2.1469 -0.5045 -0.3084
   54MOL   H27317339   7.419   4.466   7.723 -2.2021 -1.5372  2.6681
   54MOL   C27417340   7.398   4.604   7.547  0.6574 -0.1705  0.0315
   54MOL   O27517341   7.370   4.746   7.555 -0.0160 -0.5512 -0.0713
   54MOL   C27617342   7.240   4.794   7.536  0.5080  0.0351 -0.0927
   54MOL   C27717343   7.227   4.943   7.563 -0.4167 -0.3043 -0.2344
   54MOL   C27817344   7.334   5.030   7.493  0.0560 -0.5357  0.6210
   54MOL   C27917345   7.545   4.578   7.523 -0.3403 -0.3275 -1.2401
   54MOL   H28017346   7.337   4.589   7.459 -0.2937  0.5595  0.5649
   54MOL   H28117347   7.206   4.772   7.435  1.5783  3.0604 -1.1664
   54MOL   H28217348   7.177   4.739   7.606 -0.3919  2.0029  0.6929
   54MOL   H28317349   7.233   4.964   7.669 -1.5565  1.6570 -0.5268
   54MOL   H28417350   7.129   4.976   7.529  1.0973  4.2876 -0.4500
   54MOL   H28517351   7.434   5.010   7.531  0.5852  0.0904 -0.4048
   54MOL   H28617352   7.319   5.137   7.509  0.6410 -0.3162 -0.2896
   54MOL   H28717353   7.347   5.013   7.386  3.0102 -0.7906  0.9835
   54MOL   H28817354   7.598   4.661   7.476  2.6376 -1.8364 -0.6863
   54MOL   H28917355   7.592   4.571   7.622  0.3856 -0.8687 -1.6128
   54MOL   C29017356   7.579   4.453   7.445 -0.1908  0.6987  0.1915
   54MOL   O29117357   7.532   4.480   7.309 -0.2091 -0.5032 -0.5253
   54MOL   C29217358   7.489   4.368   7.236 -0.3933  0.9254 -0.4187
   54MOL   C29317359   7.401   4.415   7.119  0.4325 -0.2087 -0.6588
   54MOL   C29417360   7.275   4.489   7.167  0.3510  0.0387 -0.0954
   54MOL   C29517361   7.732   4.422   7.437  0.2870 -0.1834 -0.2099
   54MOL   H29617362   7.527   4.372   7.496  2.2792 -0.4249  0.9735
   54MOL   H29717363   7.586   4.338   7.197  0.3388  2.2528  0.3204
   54MOL   H29817364   7.441   4.293   7.299  0.2016 -0.5291 -1.6686
   54MOL   H29917365   7.368   4.336   7.052 -0.9469 -0.1766 -0.0384
   54MOL   H30017366   7.464   4.481   7.059  0.0855  1.4299  0.7667
   54MOL   H30117367   7.225   4.430   7.243 -1.0714  0.9823 -0.2810
   54MOL   H30217368   7.208   4.507   7.083  0.8009 -0.9316 -0.6777
   54MOL   H30317369   7.302   4.574   7.229 -0.5048  0.1521  0.1224
   54MOL   H30417370   7.737   4.334   7.374  1.1507  0.5451 -1.1887
   54MOL   H30517371   7.786   4.503   7.388  0.1195  0.3130  0.4188
   54MOL   C30617372   7.796   4.405   7.579  0.0517  0.3143 -1.0210
   54MOL   O30717373   7.729   4.307   7.652 -0.8781  0.9500  0.1036
   54MOL   C30817374   7.729   4.321   7.794 -1.0038  0.4503 -0.1746
   54MOL   C30917375   7.678   4.181   0.022  0.4909  0.3710 -0.2616
   54MOL   C31017376   7.750   4.056   7.797  0.5411 -0.1279 -0.4457
   54MOL   C31117377   0.122   4.381   7.573 -0.4806 -0.4837 -0.4780
   54MOL   H31217378   7.780   4.497   7.636 -0.2117 -0.6865  0.5462
   54MOL   H31317379   7.827   4.345   0.007 -1.3118 -0.9921  1.4714
   54MOL   H31417380   7.659   4.400   7.821 -1.5673 -0.7872  2.1325
   54MOL   H31517381   7.574   4.180   7.817 -0.1366  1.2843  1.6126
   54MOL   H31617382   7.670   4.186   0.131  0.1809 -1.4843 -0.1851
   54MOL   H31717383   7.712   3.965   0.016  2.4335 -0.7864 -0.1377
   54MOL   H31817384   0.029   4.060   7.817  0.3284  0.9047  0.5808
   54MOL   H31917385   7.736   4.046   7.690  1.9123  3.3439 -1.0131
   54MOL   H32017386   0.167   4.393   7.672  0.3231 -1.1438 -0.7545
   54MOL   H32117387   0.129   4.280   7.534 -1.4139 -1.4182  1.7110
   54MOL   H32217388   0.158   4.448   7.494  0.4687  0.2219  0.5297
   55MOL     C117389   0.070   1.829   4.992 -0.0991 -0.2804 -0.5363
   55MOL     O217390   0.050   1.689   4.996 -0.0540 -0.3140  0.0179
   55MOL     C317391   7.741   1.653   5.033  0.4164 -0.1636  0.0093
   55MOL     C417392   7.723   1.500   5.045 -0.1055 -0.0959 -0.7207
   55MOL     C517393   7.814   1.428   5.144 -0.1641  0.0658 -0.0430
   55MOL     C617394   0.218   1.862   4.946 -0.2070  0.2963  0.2209
   55MOL     H717395   0.051   1.879   5.087 -0.5849 -1.3891 -0.0449
   55MOL     H817396   7.717   1.700   5.128 -1.4561  0.8502 -0.9457
   55MOL     H917397   7.669   1.693   4.962  1.3122  1.0942 -0.2270
   55MOL    H1017398   7.764   1.471   4.948 -0.6979  0.2695 -1.0784
   55MOL    H1117399   7.617   1.478   5.054 -0.0656 -0.4370 -1.0599
   55MOL    H1217400   0.090   1.459   5.132 -0.3544  0.4421 -0.7392
   55MOL    H1317401   7.803   1.320   5.155 -3.1132  0.4925  1.9622
   55MOL    H1417402   7.791   1.471   5.242 -2.9451  0.3643 -0.7946
   55MOL    H1517403   0.282   1.816   5.020 -1.4362 -0.9480  0.5405
   55MOL    H1617404   0.246   1.798   4.862 -1.2984 -0.4126  0.3783
   55MOL    H1717405   7.817   1.860   4.925 -2.6048 -0.5758  2.2782
   55MOL    C1817406   0.265   2.008   4.937 -0.1479 -0.8296  0.1270
   55MOL    O1917407   0.254   2.071   5.070  0.0975 -0.0987 -0.0852
   55MOL    C2017408   0.298   2.211   5.077 -0.9381  0.1713 -0.3260
   55MOL    C2117409   0.241   2.267   5.210 -0.2962 -0.4617  0.2530
   55MOL    C2217410   0.294   2.196   5.340  0.0723  0.6967 -0.1915
   55MOL    C2317411   0.419   2.007   4.893  1.1149 -0.3409  0.2685
   55MOL    H2417412   0.192   2.053   4.869 -0.1770 -0.1519  0.5906
   55MOL    H2517413   0.404   2.226   5.059 -0.5401 -0.3419  1.4384
   55MOL    H2617414   0.245   2.267   5.000 -1.8402  1.5281  1.2208
   55MOL    H2717415   0.133   2.255   5.211 -0.1790 -1.5265  0.7753
   55MOL    H2817416   0.250   2.375   5.212  0.2697 -0.5168  0.8366
   55MOL    H2917417   0.252   2.231   5.434  0.5923  1.2767 -0.1750
   55MOL    H3017418   0.403   2.206   5.339 -0.0267  1.8895 -3.4296
   55MOL    H3117419   0.271   2.089   5.335  4.2890 -0.2710 -1.1702
   55MOL    H3217420   0.478   2.095   4.920  1.8674 -0.6564 -0.3400
   55MOL    H3317421   0.473   1.924   4.938 -0.7200 -0.8893  1.5157
   55MOL    C3417422   0.423   1.974   4.738 -0.7472  0.3342 -0.2209
   55MOL    O3517423   0.305   2.033   4.667 -0.4652 -0.1386 -0.4116
   55MOL    C3617424   0.286   1.972   4.543  0.7003 -0.4295 -0.0587
   55MOL    C3717425   0.156   2.027   4.484  0.6346  0.0214 -0.1322
   55MOL    C3817426   0.043   2.059   4.584  0.9349 -0.1071 -0.3730
   55MOL    C3917427   0.554   2.021   4.673 -0.4303 -0.6236 -0.4648
   55MOL    H4017428   0.418   1.866   4.719  0.7471  0.4436 -1.3428
   55MOL    H4117429   0.365   2.013   4.480  1.3030 -2.2715 -0.5416
   55MOL    H4217430   0.292   1.863   4.540  2.6082 -0.2929 -2.8086
   55MOL    H4317431   0.118   1.964   4.404  1.2856  0.5711 -0.8877
   55MOL    H4417432   0.179   2.127   4.446  0.3659  0.6637  1.3751
   55MOL    H4517433   0.024   1.979   4.655  0.4685  2.4680  2.5017
   55MOL    H4617434   7.780   2.091   4.533  1.3310  0.6341 -0.6219
   55MOL    H4717435   0.074   2.142   4.648 -0.6829  1.1509 -1.1671
   55MOL    H4817436   0.548   1.987   4.569  0.2421 -0.2024 -0.6464
   55MOL    H4917437   0.555   2.130   4.668 -1.9659 -0.6442 -1.8286
   55MOL    C5017438   0.682   1.938   4.713 -0.5304 -0.8010 -0.3675
   55MOL    O5117439   0.647   1.805   4.677 -0.0462 -0.2829 -0.2383
   55MOL    C5217440   0.712   1.703   4.745  0.0795 -0.1399  0.6556
   55MOL    C5317441   0.645   1.575   4.687 -0.1374 -0.5905 -0.0750
   55MOL    C5417442   0.675   1.449   4.770 -0.5291 -0.0737  0.0441
   55MOL    C5517443   0.805   1.987   4.637  0.1320 -0.3303 -0.6542
   55MOL    H5617444   0.708   1.938   4.819 -0.7543 -0.9963 -0.3133
   55MOL    H5717445   0.819   1.690   4.729 -0.0151 -2.3643  1.5509
   55MOL    H5817446   0.701   1.722   4.852 -0.2618  0.6158  0.4891
   55MOL    H5917447   0.694   1.567   4.590  0.9250 -0.5191  0.4560
   55MOL    H6017448   0.537   1.584   4.678 -0.3371 -1.8349  0.9110
   55MOL    H6117449   0.607   1.450   4.856 -1.8962  2.5810 -1.0102
   55MOL    H6217450   0.774   1.436   4.813  0.3570 -1.7142 -2.4006
   55MOL    H6317451   0.664   1.362   4.706 -2.3711  1.0647 -1.2265
   55MOL    H6417452   0.890   1.929   4.672 -0.5649 -0.8671  0.1739
   55MOL    H6517453   0.795   1.951   4.534 -2.1820 -0.6494 -0.3598
   55MOL    C6617454   0.842   2.135   4.645 -0.0575  0.7690  0.6188
   55MOL    O6717455   0.760   2.199   4.547 -0.2170 -0.2737  0.0353
   55MOL    C6817456   0.796   2.330   4.522 -0.0058  0.5700 -0.3340
   55MOL    C6917457   0.728   2.390   4.400 -0.1378  0.3869 -0.4613
   55MOL    C7017458   0.712   2.297   4.277 -0.0021 -0.1781 -0.1653
   55MOL    C7117459   0.847   2.200   4.791  0.0244  0.2093  0.0817
   55MOL    H7217460   0.941   2.138   4.601 -0.0032  0.4644  0.7202
   55MOL    H7317461   0.771   2.394   4.606 -1.5383 -0.7841  0.2874
   55MOL    H7417462   0.904   2.334   4.516 -0.0259  1.0388 -0.4119
   55MOL    H7517463   0.799   2.468   4.372  1.8975 -1.3092 -0.1039
   55MOL    H7617464   0.632   2.439   4.413 -0.1925  0.1016  0.2409
   55MOL    H7717465   0.661   2.345   4.194  1.7147 -1.5648 -2.0548
   55MOL    H7817466   0.661   2.202   4.294 -2.8765  0.8821 -2.5300
   55MOL    H7917467   0.814   2.267   4.253  0.7611  1.6600  0.6041
   55MOL    H8017468   0.856   2.309   4.791  3.2348  0.0026 -1.0844
   55MOL    H8117469   0.752   2.184   4.843 -0.4561 -0.4050 -0.9783
   55MOL    C8217470   0.953   2.147   4.891  0.4997  0.1266 -0.1894
   55MOL    O8317471   1.073   2.202   4.837  0.7173 -0.2646 -1.0290
   55MOL    C8417472   1.180   2.115   4.846 -0.3720 -0.0290 -0.3487
   55MOL    C8517473   1.315   2.196   4.824  0.0572 -0.3833 -0.2619
   55MOL    C8617474   1.322   2.292   4.940 -0.5076  0.6343  0.3888
   55MOL    C8717475   0.929   2.212   5.027 -1.0445  0.2215  0.9145
   55MOL    H8817476   0.951   2.039   4.902  0.2768  0.0870 -0.6057
   55MOL    H8917477   1.182   2.070   4.945 -0.1064 -0.9173 -0.7558
   55MOL    H9017478   1.172   2.034   4.774 -0.3111 -0.3671  0.0211
   55MOL    H9117479   1.323   2.241   4.726  1.1308  1.1298  0.5036
   55MOL    H9217480   1.404   2.136   4.843  1.5532  1.8470 -0.1074
   55MOL    H9317481   1.273   2.252   5.029  0.4083 -1.7316 -0.1289
   55MOL    H9417482   1.289   2.395   4.925  1.7648  1.4455  0.7797
   55MOL    H9517483   1.425   2.308   4.972 -0.8193  1.1404  1.1404
   55MOL    H9617484   1.022   2.205   5.083 -0.2563 -0.6412 -0.4712
   55MOL    H9717485   0.904   2.318   5.027 -2.3017 -0.0581  1.8764
   55MOL    C9817486   0.815   2.148   5.107  0.2390  0.2892 -0.1020
   55MOL    O9917487   0.839   2.012   5.126  0.0349  0.1092 -0.4144
   55MOL   C10017488   0.730   1.921   5.119  0.4252 -0.3383  0.7212
   55MOL   C10117489   0.778   1.785   5.155  0.0840 -0.2908 -0.0898
   55MOL   C10217490   0.668   1.679   5.150  0.3819  0.4037  0.3079
   55MOL   C10317491   0.793   2.198   5.248 -0.2782  0.4411  0.9410
   55MOL   H10417492   0.721   2.170   5.055 -0.9603  0.4715  2.0918
   55MOL   H10517493   0.656   1.952   5.193 -1.0719  1.4933 -1.4848
   55MOL   H10617494   0.689   1.918   5.018 -0.5747  0.1975  1.1106
   55MOL   H10717495   0.837   1.784   5.247  2.7321  1.3030 -1.6888
   55MOL   H10817496   0.860   1.759   5.089 -0.9385 -0.5795 -1.2554
   55MOL   H10917497   0.599   1.692   5.234  0.4020  2.5578  0.0094
   55MOL   H11017498   0.717   1.585   5.172  0.3704  0.0555 -1.0912
   55MOL   H11117499   0.618   1.681   5.053  0.8566  1.4622  0.0852
   55MOL   H11217500   0.723   2.131   5.299 -0.2710  0.2406  0.6854
   55MOL   H11317501   0.891   2.192   5.296 -0.4066  1.9592  1.4046
   55MOL   C11417502   0.744   2.344   5.251 -0.1739 -0.3303  0.1952
   55MOL   O11517503   0.606   2.360   5.198 -0.8578  0.3582  0.3739
   55MOL   C11617504   0.597   2.460   5.096  0.1039 -0.3695 -0.1335
   55MOL   C11717505   0.543   2.586   5.158 -0.0174 -0.3017  0.3402
   55MOL   C11817506   0.485   2.691   5.050 -0.9744  0.9561 -1.0016
   55MOL   C11917507   0.735   2.388   5.403  0.3305 -0.0174  0.2623
   55MOL   H12017508   0.812   2.417   5.207  0.2689 -0.7920  0.1192
   55MOL   H12117509   0.698   2.484   5.063  0.7141 -3.1924 -0.4280
   55MOL   H12217510   0.537   2.421   5.015 -0.7714  3.2356 -1.3250
   55MOL   H12317511   0.621   2.641   5.212 -0.2635 -1.5838  2.0524
   55MOL   H12417512   0.475   2.544   5.232  0.1107  1.6647  1.6145
   55MOL   H12517513   0.567   2.730   4.989 -1.5921  1.3592 -1.5721
   55MOL   H12617514   0.430   2.777   5.086 -1.4338  0.2305  0.0391
   55MOL   H12717515   0.428   2.644   4.970  1.0577 -0.1951 -1.8220
   55MOL   H12817516   0.670   2.476   5.408 -0.8797 -0.8686 -0.2542
   55MOL   H12917517   0.697   2.317   5.477  0.0837 -1.5449 -1.3210
   55MOL   C13017518   0.877   2.438   5.458 -0.2528 -0.5670  0.0792
   55MOL   O13117519   0.910   2.539   5.367 -0.3875  0.1722  0.4519
   55MOL   C13217520   1.039   2.522   5.319  0.5086  0.1672 -0.3138
   55MOL   C13317521   1.064   2.645   5.237  0.6247  0.4552 -0.2492
   55MOL   C13417522   1.001   2.640   5.096  0.2549 -0.2231  0.1575
   55MOL   C13517523   0.879   2.492   5.611  0.3835  0.1665 -0.0896
   55MOL   H13617524   0.930   2.343   5.452 -0.1916 -0.4865 -0.7963
   55MOL   H13717525   1.119   2.532   5.391  1.3744 -0.8753 -1.1026
   55MOL   H13817526   1.055   2.427   5.267  1.4443 -0.4474  1.0868
   55MOL   H13917527   1.169   2.674   5.238  1.0609 -1.0559 -0.6085
   55MOL   H14017528   1.005   2.726   5.281  1.2927  1.5723 -1.3790
   55MOL   H14117529   1.031   2.733   5.047  0.0380 -0.5992 -0.7008
   55MOL   H14217530   0.893   2.639   5.086  0.4436 -1.1756 -2.0860
   55MOL   H14317531   1.027   2.556   5.032 -0.2198  0.2831 -0.7090
   55MOL   H14417532   0.943   2.581   5.608 -1.4468  1.5247 -0.0816
   55MOL   H14517533   0.780   2.522   5.646  0.1947  0.3953 -0.8207
   55MOL   C14617534   0.940   2.394   5.710 -0.0950  0.0728 -0.1639
   55MOL   O14717535   0.953   2.455   5.839  0.4851 -0.3345  0.1358
   55MOL   C14817536   1.062   2.418   5.915 -0.5379 -0.4182  0.4241
   55MOL   C14917537   1.069   2.486   6.055 -0.2832  0.2631  0.0234
   55MOL   C15017538   1.199   2.458   6.146  0.3195 -0.9856 -0.2727
   55MOL   C15117539   0.858   2.261   5.731 -0.0478 -0.2327  0.4429
   55MOL   H15217540   1.031   2.360   5.661  2.0473  4.0557  0.8611
   55MOL   H15317541   1.048   2.310   5.928 -3.0418 -0.0681  0.8320
   55MOL   H15417542   1.146   2.448   5.853 -0.9547  2.0186  1.0041
   55MOL   H15517543   0.985   2.461   6.120 -2.6674  2.2842 -2.1563
   55MOL   H15617544   1.063   2.593   6.035  0.5196 -0.1695 -2.6696
   55MOL   H15717545   1.212   2.525   6.232  1.0936 -0.8629 -0.4847
   55MOL   H15817546   1.288   2.470   6.085 -0.5179  0.1412 -1.3003
   55MOL   H15917547   1.203   2.354   6.179  0.8807 -0.7697  0.3528
   55MOL   H16017548   0.830   2.219   5.634 -0.7206 -1.3656  1.1138
   55MOL   H16117549   0.923   2.198   5.792  1.8029  2.8395  1.7195
   55MOL   C16217550   0.728   2.267   5.810 -0.1027 -0.2415  0.3708
   55MOL   O16317551   0.648   2.342   5.730 -0.2264  0.0378 -0.8007
   55MOL   C16417552   0.567   2.435   5.795 -0.1702 -0.0960 -0.3115
   55MOL   C16517553   0.494   2.515   5.685  0.1062  0.2034 -0.0356
   55MOL   C16617554   0.408   2.428   5.593 -1.1844  0.2035 -0.4552
   55MOL   C16717555   0.662   2.133   5.849  0.4443 -0.1896  0.2531
   55MOL   H16817556   0.746   2.321   5.904 -0.9602  0.5315  0.1034
   55MOL   H16917557   0.495   2.401   5.870 -1.6470  1.1622 -1.1095
   55MOL   H17017558   0.632   2.508   5.844 -2.9840  1.9431  0.5558
   55MOL   H17117559   0.550   2.587   5.625  0.6250 -1.2459 -1.3219
   55MOL   H17217560   0.434   2.584   5.744 -0.0974 -0.6436  0.7504
   55MOL   H17317561   0.471   2.356   5.540 -0.6791  1.4096 -1.5196
   55MOL   H17417562   0.358   2.483   5.513  2.5106  3.5216 -0.6134
   55MOL   H17517563   0.329   2.375   5.646 -2.3131 -0.3760 -2.6369
   55MOL   H17617564   0.568   2.162   5.896 -0.3756  1.3462 -2.2056
   55MOL   H17717565   0.643   2.102   5.746 -1.1901  1.5932 -0.0169
   55MOL   C17817566   0.724   2.027   5.935 -0.3321 -0.2749 -0.1169
   55MOL   O17917567   0.731   2.057   6.073 -0.0834 -0.4498  0.1841
   55MOL   C18017568   0.854   2.041   6.140 -0.0228  0.5138 -0.7447
   55MOL   C18117569   0.846   2.078   6.289  0.0696 -0.2701 -0.1668
   55MOL   C18217570   0.836   2.223   6.315  0.1154 -0.2721 -0.5022
   55MOL   C18317571   0.666   1.884   5.919 -0.5225  0.0556  0.3993
   55MOL   H18417572   0.828   2.005   5.909 -0.6111 -2.6545  0.6416
   55MOL   H18517573   0.886   1.937   6.150  0.2398  0.9199  3.9129
   55MOL   H18617574   0.934   2.090   6.086  0.2791  1.6174  0.6705
   55MOL   H18717575   0.931   2.038   6.344  1.1953  0.4324 -1.3611
   55MOL   H18817576   0.749   2.039   6.320  1.4334 -3.3932  0.3622
   55MOL   H18917577   0.806   2.242   6.418  0.0571  1.4171 -0.8150
   55MOL   H19017578   0.749   2.266   6.266  0.2422  1.4776  0.7468
   55MOL   H19117579   0.930   2.275   6.296 -0.2451  0.1673 -1.1266
   55MOL   H19217580   0.729   1.828   5.988 -0.0477 -1.1332 -0.9578
   55MOL   H19317581   0.566   1.905   5.958 -0.6473  1.3114 -0.5651
   55MOL   C19417582   0.655   1.817   5.783 -0.3299  0.6098 -0.5869
   55MOL   O19517583   0.791   1.806   5.733 -0.3001 -0.1652  0.7405
   55MOL   C19617584   0.798   1.794   5.589 -0.4022  0.6238 -0.2918
   55MOL   C19717585   0.937   1.785   5.541 -0.0661  0.1433  0.1196
   55MOL   C19817586   1.010   1.912   5.577 -0.1782 -0.2511 -0.2888
   55MOL   C19917587   0.583   1.682   5.786 -0.0882 -0.5853 -0.2526
   55MOL   H20017588   0.593   1.873   5.713 -0.8370  0.9509  0.1285
   55MOL   H20117589   0.741   1.704   5.566  2.2275 -0.3288 -3.4926
   55MOL   H20217590   0.732   1.868   5.544  0.3156  2.4026  1.5124
   55MOL   H20317591   0.948   1.786   5.432 -0.9787  0.5724  0.0286
   55MOL   H20417592   0.985   1.697   5.582 -0.0343 -0.9809 -2.2444
   55MOL   H20517593   0.987   1.924   5.682  0.4330 -1.5541  0.0044
   55MOL   H20617594   0.959   1.992   5.523  2.7408  0.3593 -2.3077
   55MOL   H20717595   1.117   1.915   5.556  0.2000 -0.4666  1.5462
   55MOL   H20817596   0.598   1.625   5.694 -0.7195  0.6616 -1.1477
   55MOL   H20917597   0.646   1.624   5.853  0.1639 -0.0089  0.0091
   55MOL   C21017598   0.434   1.692   5.830 -0.1017  0.0612 -0.3782
   55MOL   O21117599   0.383   1.752   5.716  0.0793  0.3685  0.1614
   55MOL   C21217600   0.251   1.804   5.733  0.2280  0.7081  0.5058
   55MOL   C21317601   0.217   1.857   5.596  0.3948 -0.0194 -0.3270
   55MOL   C21417602   0.203   1.752   5.487 -0.1136 -0.6509 -0.8399
   55MOL   C21517603   0.364   1.557   5.841 -0.1091  0.0152  0.1759
   55MOL   H21617604   0.430   1.748   5.924 -0.5921  1.7250 -1.3664
   55MOL   H21717605   0.176   1.736   5.774  0.0446  2.5248  3.2790
   55MOL   H21817606   0.271   1.881   5.807  0.5245  1.3782 -0.2561
   55MOL   H21917607   0.292   1.933   5.574 -0.7344  1.2982  0.2387
   55MOL   H22017608   0.120   1.907   5.598  0.6091  0.3846  2.0802
   55MOL   H22117609   0.284   1.680   5.481 -0.8131 -1.4883 -0.2160
   55MOL   H22217610   0.205   1.806   5.392  1.0831  1.0271  0.1041
   55MOL   H22317611   0.108   1.700   5.502 -1.4501  2.0838  0.7203
   55MOL   H22417612   0.273   1.582   5.895  0.2394 -3.2568  2.4316
   55MOL   H22517613   0.325   1.533   5.743  1.0482  2.1760 -0.8631
   55MOL   C22617614   0.430   1.442   5.917  0.1225  0.5745  0.1423
   55MOL   O22717615   0.552   1.391   5.859  0.2233 -0.0192  0.4644
   55MOL   C22817616   0.536   1.306   5.742 -0.0105  0.2768 -0.2496
   55MOL   C22917617   0.679   1.279   5.705 -0.5097  0.4941 -0.5523
   55MOL   C23017618   0.690   1.185   5.580  0.1178 -0.8235 -0.7360
   55MOL   C23117619   0.452   1.474   6.065  0.5389  0.1784  0.3925
   55MOL   H23217620   0.359   1.359   5.914 -0.1260  0.8356 -3.2231
   55MOL   H23317621   0.483   1.216   5.773  0.5862  0.0433  0.0923
   55MOL   H23417622   0.486   1.361   5.662  2.5121  0.8771 -1.4651
   55MOL   H23517623   0.729   1.232   5.790  0.5866  0.8127 -1.0268
   55MOL   H23617624   0.742   1.365   5.684  1.1202 -0.7239 -0.7209
   55MOL   H23717625   0.619   1.104   5.597  0.8988 -0.8384  2.8162
   55MOL   H23817626   0.785   1.131   5.577  0.6338  0.0933 -0.9320
   55MOL   H23917627   0.671   1.238   5.487 -0.1941  1.1973  0.4503
   55MOL   H24017628   0.509   1.566   6.078  0.5006  0.3363 -0.5078
   55MOL   H24117629   0.352   1.480   6.107 -0.6137 -0.9449 -2.0634
   55MOL   C24217630   0.536   1.369   6.146  0.3640 -0.2444 -0.5198
   55MOL   O24317631   0.680   1.370   6.123 -0.0735  0.9231  0.4836
   55MOL   C24417632   0.724   1.238   6.086  0.8635 -0.2924 -1.0703
   55MOL   C24517633   0.872   1.252   6.058  0.5642 -0.2271  0.1893
   55MOL   C24617634   0.956   1.298   6.176  0.1428 -0.5791 -0.2118
   55MOL   C24717635   0.513   1.381   6.300 -0.6787 -0.2486  0.4088
   55MOL   H24817636   0.490   1.281   6.103  1.3200 -1.1268  0.2228
   55MOL   H24917637   0.710   1.156   6.157  1.0894  1.7885  1.4624
   55MOL   H25017638   0.659   1.209   6.003 -1.5257 -0.2514  0.7402
   55MOL   H25117639   0.882   1.333   5.985  1.3353  0.0276  0.5709
   55MOL   H25217640   0.918   1.164   6.013 -1.6599 -0.3602 -1.8788
   55MOL   H25317641   0.911   1.390   6.215  1.8496 -0.4664  1.5835
   55MOL   H25417642   1.060   1.323   6.157  0.2178 -0.5382  0.2374
   55MOL   H25517643   0.952   1.226   6.258  3.2867  0.3050  0.7835
   55MOL   H25617644   0.560   1.472   6.336 -1.9792  1.0649 -1.1178
   55MOL   H25717645   0.409   1.404   6.323  0.0707  2.6991  0.9856
   55MOL   C25817646   0.573   1.269   6.379 -0.1626 -0.1128 -0.1657
   55MOL   O25917647   0.572   1.314   6.512 -0.6625  0.2196 -0.0243
   55MOL   C26017648   0.703   1.332   6.567  0.0364 -0.4472 -0.1245
   55MOL   C26117649   0.707   1.447   6.666 -0.2901  0.5721 -0.3514
   55MOL   C26217650   0.684   1.593   6.621 -0.6944  0.3064  0.0590
   55MOL   C26317651   0.478   1.146   6.374 -0.0231  0.2397  0.5291
   55MOL   H26417652   0.671   1.238   6.342  0.2027  0.8691 -0.0415
   55MOL   H26517653   0.726   1.239   6.619 -2.6385 -0.3748  1.2353
   55MOL   H26617654   0.779   1.350   6.491 -0.0116  1.5112  0.2587
   55MOL   H26717655   0.800   1.429   6.720 -0.1468 -0.6995 -1.0101
   55MOL   H26817656   0.627   1.420   6.735 -1.5740 -0.8158 -2.3232
   55MOL   H26917657   0.635   1.650   6.700 -1.4226  0.8695 -0.7912
   55MOL   H27017658   0.612   1.597   6.539 -1.2034  1.8227  0.5575
   55MOL   H27117659   0.767   1.659   6.596 -1.9698  2.1339  0.5244
   55MOL   H27217660   0.396   1.171   6.441  0.7324 -0.1246  1.5978
   55MOL   H27317661   0.440   1.129   6.273  0.8988  2.1405 -0.1779
   55MOL   C27417662   0.543   1.014   6.417 -0.0184 -0.6510  0.0146
   55MOL   O27517663   0.435   0.934   6.468  0.2104  0.3016  0.5379
   55MOL   C27617664   0.401   0.952   6.601  0.0520  0.1981 -0.2688
   55MOL   C27717665   0.424   0.829   6.692  0.8684  0.1045  0.4320
   55MOL   C27817666   0.348   0.703   6.644  0.0764  0.4665  0.4738
   55MOL   C27917667   0.619   0.936   6.312 -0.2019  0.1123 -0.0265
   55MOL   H28017668   0.603   1.034   6.506 -0.9585  0.2720  0.4545
   55MOL   H28117669   0.450   1.031   6.658 -2.0134  0.7741  0.7772
   55MOL   H28217670   0.293   0.969   6.606  0.1180  0.3947  0.5948
   55MOL   H28317671   0.387   0.843   6.793 -0.5464  0.0203 -0.0658
   55MOL   H28417672   0.531   0.812   6.706  0.7788  0.2262  1.2652
   55MOL   H28517673   0.345   0.629   6.725 -2.6816  0.1606  0.1330
   55MOL   H28617674   0.389   0.654   6.556 -0.2241 -1.2699  1.2589
   55MOL   H28717675   0.246   0.728   6.616  0.7420  1.4304 -1.1050
   55MOL   H28817676   0.538   0.924   6.240  1.1150  0.5797 -1.6075
   55MOL   H28917677   0.702   0.990   6.267  3.0742 -2.7842  2.3346
   55MOL   C29017678   0.682   0.794   6.348  0.4683 -0.1498  0.2785
   55MOL   O29117679   0.744   0.732   6.228 -0.1611  0.2598  0.1268
   55MOL   C29217680   0.653   0.677   6.142  0.4777  0.2884 -0.0776
   55MOL   C29317681   0.715   0.572   6.053  0.2676  0.1905 -0.1403
   55MOL   C29417682   0.792   0.463   6.129 -0.3163  0.7728 -0.6770
   55MOL   C29517683   0.791   0.811   6.458 -0.5504 -0.9565 -0.7629
   55MOL   H29617684   0.604   0.731   6.390 -0.0262 -1.4817 -2.4915
   55MOL   H29717685   0.581   0.616   6.197 -1.2504 -0.0684 -2.6547
   55MOL   H29817686   0.593   0.749   6.087  0.8579 -0.3496 -1.3725
   55MOL   H29917687   0.786   0.620   5.985  1.5209 -2.6192 -0.8600
   55MOL   H30017688   0.642   0.519   5.993  0.8504 -0.3407 -0.3781
   55MOL   H30117689   0.866   0.505   6.197 -0.0028  0.6347 -0.9366
   55MOL   H30217690   0.841   0.392   6.062  0.9114  0.3828  0.6084
   55MOL   H30317691   0.729   0.412   6.202 -2.6912  1.3612 -2.2557
   55MOL   H30417692   0.862   0.888   6.428 -1.5927  0.5253  0.5044
   55MOL   H30517693   0.741   0.845   6.549  2.1387 -0.9162  0.7395
   55MOL   C30617694   0.859   0.672   6.487  0.6598 -0.1631 -0.4097
   55MOL   O30717695   0.952   0.686   6.587  0.5161  0.0778  0.0986
   55MOL   C30817696   1.082   0.737   6.554 -0.5008  0.1498 -0.3141
   55MOL   C30917697   1.179   0.698   6.668  0.6748  0.0087 -0.0434
   55MOL   C31017698   1.157   0.787   6.797 -0.0222  0.4295  1.0251
   55MOL   C31117699   0.760   0.578   6.550 -0.0931  0.4430 -0.7647
   55MOL   H31217700   0.912   0.629   6.402 -0.4363 -2.0707 -0.1766
   55MOL   H31317701   1.122   0.687   6.466  0.3325  1.1838 -0.5382
   55MOL   H31417702   1.090   0.844   6.532  1.0456  0.4219  1.4710
   55MOL   H31517703   1.272   0.710   6.613 -0.8652 -1.0216 -2.9589
   55MOL   H31617704   1.175   0.591   6.689  3.1831 -0.2075 -0.4881
   55MOL   H31717705   1.154   0.893   6.770  1.4653 -0.3496 -2.5099
   55MOL   H31817706   1.249   0.788   6.856  0.3679  1.8994  0.4232
   55MOL   H31917707   1.073   0.742   6.849  0.1670 -2.2602 -0.8605
   55MOL   H32017708   0.807   0.496   6.605  1.3748  1.6409 -0.1946
   55MOL   H32117709   0.691   0.622   6.623 -0.0476 -0.7178 -0.0037
   55MOL   H32217710   0.699   0.532   6.473  2.2208 -1.3912 -1.5523
   56MOL     C117711   5.342   6.240   5.340  0.8020  0.5637  0.0407
   56MOL     O217712   5.236   6.211   5.247 -0.2298  0.1000  0.5987
   56MOL     C317713   5.196   6.074   5.254 -0.2291 -0.3058  0.3878
   56MOL     C417714   5.290   5.977   5.168  0.3858 -0.1218  0.3430
   56MOL     C517715   5.292   6.023   5.018 -0.1564 -0.1572 -0.5893
   56MOL     C617716   5.388   6.379   5.301 -0.1854 -0.1028  0.0103
   56MOL     H717717   5.415   6.159   5.331  1.4856  1.3336 -1.4575
   56MOL     H817718   5.204   6.034   5.355  0.6715  2.2779  1.3572
   56MOL     H917719   5.091   6.071   5.226  0.1152 -0.1810 -0.9750
   56MOL    H1017720   5.250   5.877   5.152  0.6405 -0.0503 -0.7463
   56MOL    H1117721   5.385   5.978   5.221  0.4656 -2.2669  0.2670
   56MOL    H1217722   5.315   6.129   5.013 -0.0118 -0.1171  0.7972
   56MOL    H1317723   5.198   6.014   4.963 -1.4125 -0.0193  1.4723
   56MOL    H1417724   5.367   5.976   4.955  1.1449  2.0993 -0.7559
   56MOL    H1517725   5.411   6.383   5.195 -1.6903  0.8469 -0.2974
   56MOL    H1617726   5.307   6.445   5.333  0.7412  1.9401 -1.7631
   56MOL    H1717727   5.301   6.232   5.441 -0.0087 -1.1444 -0.4115
   56MOL    C1817728   5.522   6.424   5.381 -0.2998 -0.1811  0.3117
   56MOL    O1917729   5.492   6.428   5.516 -0.1952  0.0198 -0.6775
   56MOL    C2017730   5.536   6.532   5.605  0.2561 -0.1243  0.6411
   56MOL    C2117731   5.492   6.502   5.740 -0.4789 -0.2913 -0.5227
   56MOL    C2217732   5.340   6.487   5.757  0.1877 -0.5764  0.4920
   56MOL    C2317733   5.646   6.331   5.356 -0.3532 -0.6795 -0.2662
   56MOL    H2417734   5.553   6.527   5.360 -1.5163  0.0240 -0.5508
   56MOL    H2517735   5.645   6.536   5.594  0.0417  1.3405 -0.9867
   56MOL    H2617736   5.511   6.630   5.564 -2.5965 -1.0485  0.0670
   56MOL    H2717737   5.539   6.576   5.806  0.2423  0.2199 -1.6011
   56MOL    H2817738   5.540   6.414   5.782  4.0842  1.4969 -1.7714
   56MOL    H2917739   5.322   6.420   5.842  0.0961 -0.7280  0.3538
   56MOL    H3017740   5.292   6.449   5.667  1.2281 -1.1496  0.1842
   56MOL    H3117741   5.293   6.586   5.760  1.8162  0.2392 -0.5479
   56MOL    H3217742   5.725   6.364   5.423 -0.8551 -1.5897  0.7721
   56MOL    H3317743   5.620   6.229   5.383  1.0728 -1.0719 -0.3458
   56MOL    C3417744   5.707   6.326   5.210 -0.3147  0.1432  0.0950
   56MOL    O3517745   5.768   6.453   5.195  0.0726  0.0137  0.0821
   56MOL    C3617746   5.773   6.509   5.060  0.9831  0.7118  0.1657
   56MOL    C3717747   5.854   6.646   5.063 -0.3413 -0.1399 -0.2333
   56MOL    C3817748   5.883   6.735   4.942 -0.1818  0.0905 -0.0568
   56MOL    C3917749   5.808   6.210   5.223  0.2293  1.1491  0.0936
   56MOL    H4017750   5.633   6.313   5.131  0.1045 -3.6581  0.2600
   56MOL    H4117751   5.813   6.439   4.987 -1.7080  0.6836 -1.3323
   56MOL    H4217752   5.673   6.514   5.017  1.0231  0.5451  0.0548
   56MOL    H4317753   5.954   6.629   5.103 -0.3803 -1.5095 -0.6667
   56MOL    H4417754   5.801   6.708   5.135  0.6493 -0.5948  0.8982
   56MOL    H4517755   5.911   6.680   4.852  3.1698  2.5763 -0.6059
   56MOL    H4617756   5.959   6.813   4.950 -1.5025  1.3979 -0.1157
   56MOL    H4717757   5.789   6.778   4.908 -0.5306 -1.4176 -1.0904
   56MOL    H4817758   5.874   6.222   5.309  1.7585 -1.3511 -0.6861
   56MOL    H4917759   5.751   6.119   5.238 -2.1404  2.9253  2.1346
   56MOL    C5017760   5.905   6.191   5.104 -0.6706  0.2870 -1.1296
   56MOL    O5117761   5.987   6.078   5.142  0.0987 -0.5669  0.2333
   56MOL    C5217762   6.131   6.111   5.143 -0.0895 -0.1671 -0.6871
   56MOL    C5317763   6.220   5.989   5.160  0.5469  0.6142 -0.0798
   56MOL    C5417764   6.369   6.001   5.156  0.4686  0.4880  0.6275
   56MOL    C5517765   5.833   6.137   4.981 -0.7027 -0.0335 -0.2062
   56MOL    H5617766   5.970   6.276   5.081  1.1849 -0.7879  0.0253
   56MOL    H5717767   6.150   6.164   5.049  0.3710 -2.5636 -1.9914
   56MOL    H5817768   6.145   6.180   5.226 -1.4151 -3.3666  2.3061
   56MOL    H5917769   6.187   5.926   5.078  3.7740 -0.3550 -0.6770
   56MOL    H6017770   6.196   5.928   5.248 -0.1144  1.1064  0.0876
   56MOL    H6117771   6.401   6.036   5.058 -1.2992 -0.1772 -0.1919
   56MOL    H6217772   6.422   5.906   5.163  1.1576  0.9215  1.4842
   56MOL    H6317773   6.410   6.066   5.234  0.9211 -1.2453  1.8834
   56MOL    H6417774   5.774   6.050   5.008 -1.2129 -0.1173 -1.5305
   56MOL    H6517775   5.750   6.203   4.955 -1.6058 -1.1224 -0.1220
   56MOL    C6617776   5.924   6.122   4.856 -0.0916  0.0369  0.0556
   56MOL    O6717777   5.848   6.063   4.754 -0.5726 -0.7009 -0.4047
   56MOL    C6817778   5.840   5.920   4.744  0.4030 -0.0672 -0.0945
   56MOL    C6917779   5.766   5.900   4.610  0.9603 -0.0660  0.5878
   56MOL    C7017780   5.868   5.882   4.494 -0.3334  0.2357  0.3672
   56MOL    C7117781   5.981   6.254   4.803 -0.0234  0.3500  0.5318
   56MOL    H7217782   6.014   6.063   4.876  0.4187  0.7190 -0.1753
   56MOL    H7317783   5.931   5.860   4.748  0.1581 -0.3309  1.8382
   56MOL    H7417784   5.779   5.894   4.831  0.9815  0.8380  0.5956
   56MOL    H7517785   5.691   5.979   4.606 -0.9695 -1.9098 -0.3401
   56MOL    H7617786   5.706   5.810   4.623 -2.1053  1.7907 -0.2442
   56MOL    H7717787   5.947   5.810   4.517 -1.5989 -0.4224  2.9229
   56MOL    H7817788   5.902   5.983   4.472 -1.0318  0.6309  1.0871
   56MOL    H7917789   5.828   5.857   4.396 -0.5470  1.1928  0.2084
   56MOL    H8017790   5.900   6.315   4.763  0.0035 -0.4198 -0.7449
   56MOL    H8117791   6.034   6.317   4.874  1.0227  0.2850 -0.1804
   56MOL    C8217792   6.079   6.239   4.680  0.0711  0.3011  0.7354
   56MOL    O8317793   6.109   6.372   4.636 -0.7034 -0.2921  0.3062
   56MOL    C8417794   6.046   6.401   4.516 -0.6788  0.0546  0.2409
   56MOL    C8517795   6.090   6.543   4.491  0.1142  0.3242  0.2823
   56MOL    C8617796   6.243   6.557   4.481 -0.0949 -0.5137  0.7330
   56MOL    C8717797   6.211   6.177   4.707 -0.1461 -0.5288 -0.2007
   56MOL    H8817798   6.028   6.186   4.599  1.9879  0.3686 -0.5457
   56MOL    H8917799   6.081   6.336   4.435 -1.2235  1.1733 -0.9231
   56MOL    H9017800   5.937   6.406   4.513 -0.7819 -2.1687 -0.5457
   56MOL    H9117801   6.062   6.595   4.583 -1.7119  0.8857 -0.5604
   56MOL    H9217802   6.042   6.585   4.402 -1.0660  1.0203  1.2305
   56MOL    H9317803   6.280   6.537   4.581 -0.7011  2.4443  1.5822
   56MOL    H9417804   6.270   6.657   4.446  0.0737 -0.3828  1.2396
   56MOL    H9517805   6.288   6.485   4.412  2.2969  2.0769 -0.5080
   56MOL    H9617806   6.257   6.248   4.775 -0.9085  0.3106 -0.5419
   56MOL    H9717807   6.191   6.085   4.763 -0.0723 -0.6950 -0.4437
   56MOL    C9817808   6.300   6.153   4.590 -0.3194 -0.0877  0.7362
   56MOL    O9917809   6.423   6.099   4.633 -0.2061 -0.1734 -0.1351
   56MOL   C10017810   6.517   6.203   4.654 -0.8498 -0.3964  0.1914
   56MOL   C10117811   6.651   6.138   4.678  0.0730  1.2731  0.1292
   56MOL   C10217812   6.758   6.222   4.610 -0.5026  0.2891 -0.3692
   56MOL   C10317813   6.241   6.055   4.490 -0.3086 -0.0437  0.2628
   56MOL   H10417814   6.310   6.248   4.536 -1.1837  0.6544  1.8429
   56MOL   H10517815   6.515   6.278   4.575 -0.7890  1.5906  2.0255
   56MOL   H10617816   6.485   6.253   4.746 -1.9250 -1.9699  0.6876
   56MOL   H10717817   6.646   6.032   4.652 -0.2765  1.4157 -0.3870
   56MOL   H10817818   6.658   6.142   4.787 -2.0753  2.0315  0.2596
   56MOL   H10917819   6.854   6.172   4.627 -0.3064  0.4118 -1.0996
   56MOL   H11017820   6.736   6.325   4.639 -1.5642  0.4067 -1.5386
   56MOL   H11117821   6.728   6.210   4.506 -1.9665 -1.7701  0.2512
   56MOL   H11217822   6.188   5.975   4.541 -0.4250  0.8007  1.4818
   56MOL   H11317823   6.163   6.104   4.432  1.1738  0.7605 -1.1001
   56MOL   C11417824   6.324   6.007   4.373  0.1195 -0.3006 -0.0819
   56MOL   O11517825   6.242   5.949   4.275  0.4372 -0.4807 -0.4588
   56MOL   C11617826   6.196   5.821   4.306  0.7282 -0.4472 -0.0665
   56MOL   C11717827   6.092   5.782   4.202  0.6699  0.1651  0.0509
   56MOL   C11817828   6.030   5.649   4.232  0.2396  0.1659 -0.2797
   56MOL   C11917829   6.425   6.107   4.307 -0.2677 -0.4433  0.7479
   56MOL   H12017830   6.387   5.927   4.410  0.3800  1.2743  3.0206
   56MOL   H12117831   6.280   5.751   4.312  1.5931  0.3771 -2.2643
   56MOL   H12217832   6.154   5.816   4.407 -1.7192  1.9304 -0.9023
   56MOL   H12317833   6.139   5.774   4.104 -1.6532 -0.2201 -1.0550
   56MOL   H12417834   6.009   5.852   4.204 -0.6111 -1.3164 -0.5920
   56MOL   H12517835   6.107   5.572   4.228 -0.6161 -0.7444  0.5614
   56MOL   H12617836   5.958   5.619   4.156 -0.7907 -0.0031  0.7584
   56MOL   H12717837   5.968   5.644   4.322 -1.7635 -0.0983 -1.6336
   56MOL   H12817838   6.364   6.189   4.269 -0.2772 -0.5843  0.4627
   56MOL   H12917839   6.493   6.139   4.387 -0.9649 -3.3460  2.5830
   56MOL   C13017840   6.497   6.046   4.184  0.7010  0.1425 -0.5237
   56MOL   O13117841   6.575   6.145   4.121 -0.3478  0.3269  0.4240
   56MOL   C13217842   6.503   6.226   4.021 -0.1740 -0.4917  0.0994
   56MOL   C13317843   6.560   6.374   4.017 -0.1180  0.2578 -0.0033
   56MOL   C13417844   6.562   6.434   4.156  0.5735  0.3128  0.3367
   56MOL   C13517845   6.596   5.929   4.234 -0.0003 -0.3897  0.2959
   56MOL   H13617846   6.432   5.994   4.113 -0.7583 -1.2402  1.7574
   56MOL   H13717847   6.520   6.184   3.922 -2.1458 -0.5914 -0.2139
   56MOL   H13817848   6.398   6.242   4.047 -0.0912 -2.0443  1.4158
   56MOL   H13917849   6.510   6.431   3.939  1.1492  1.1340 -0.1778
   56MOL   H14017850   6.657   6.366   3.969 -0.6664  1.3110 -1.3247
   56MOL   H14117851   6.612   6.531   4.145  0.4795  0.1777 -1.3859
   56MOL   H14217852   6.621   6.380   4.230  2.9633  0.7641 -1.1752
   56MOL   H14317853   6.465   6.456   4.200  0.3580  0.5004 -0.2376
   56MOL   H14417854   6.649   5.959   4.325  0.4749  1.4012 -0.5575
   56MOL   H14517855   6.538   5.842   4.267 -2.5395  0.4229 -1.8619
   56MOL   C14617856   6.682   5.865   4.126 -0.3245 -0.1762  0.2513
   56MOL   O14717857   6.731   5.745   4.194  0.4969  0.1367 -0.2589
   56MOL   C14817858   6.873   5.743   4.205  0.4517 -0.4993  0.4730
   56MOL   C14917859   6.925   5.606   4.242 -0.1744 -0.1217 -0.1051
   56MOL   C15017860   6.892   5.566   4.388 -0.0555  0.4383 -0.3419
   56MOL   C15117861   6.611   5.822   3.992 -0.1417 -0.0901  0.1242
   56MOL   H15217862   6.762   5.934   4.098 -1.1753  0.0522 -1.7187
   56MOL   H15317863   6.916   5.770   4.109 -1.5248  0.5978 -0.1558
   56MOL   H15417864   6.899   5.820   4.278  1.1440  2.1177 -2.4018
   56MOL   H15517865   7.033   5.594   4.234 -0.4965 -1.7870 -2.6169
   56MOL   H15617866   6.886   5.533   4.170  1.4961 -0.7460 -0.4166
   56MOL   H15717867   6.944   5.622   4.466  0.6967  0.7724 -1.0779
   56MOL   H15817868   6.919   5.461   4.402  0.9508  0.5663 -1.2503
   56MOL   H15917869   6.786   5.563   4.411  0.0915  1.2629  0.4571
   56MOL   H16017870   6.560   5.727   4.011 -1.6717  0.3836 -1.4434
   56MOL   H16117871   6.534   5.887   3.950 -1.1309 -0.2919  1.5657
   56MOL   C16217872   6.704   5.805   3.868  0.2579 -1.0375 -0.6762
   56MOL   O16317873   6.648   5.709   3.777 -0.6449  0.3286 -0.3130
   56MOL   C16417874   6.649   5.568   3.812 -0.1073  0.0588  0.1451
   56MOL   C16517875   6.583   5.488   3.705  0.0279  0.5146  0.4195
   56MOL   C16617876   6.668   5.495   3.571  0.4940 -0.2856  0.7585
   56MOL   C16717877   6.737   5.942   3.799  0.2488 -0.4480 -0.2164
   56MOL   H16817878   6.804   5.774   3.897  1.0720  0.6748 -1.5573
   56MOL   H16917879   6.752   5.542   3.837 -0.1251  0.2699  0.4388
   56MOL   H17017880   6.586   5.553   3.900 -1.1294 -1.6788 -0.8664
   56MOL   H17117881   6.483   5.531   3.702 -0.3156 -0.2277  1.1379
   56MOL   H17217882   6.565   5.386   3.738 -2.0677  0.4835 -0.7264
   56MOL   H17317883   6.601   5.462   3.492 -1.0577  0.5865  1.6859
   56MOL   H17417884   6.751   5.424   3.570  0.9110  0.2083  0.3642
   56MOL   H17517885   6.696   5.597   3.545  0.6610 -0.0886  1.7049
   56MOL   H17617886   6.639   5.988   3.785  0.0547 -0.8680 -0.2706
   56MOL   H17717887   6.779   6.006   3.876 -1.0784  0.1635  0.0267
   56MOL   C17817888   6.817   5.953   3.672 -0.3362 -0.5896  0.3650
   56MOL   O17917889   6.764   6.070   3.609 -0.0503 -0.0198 -0.2391
   56MOL   C18017890   6.765   6.063   3.472 -0.1173 -0.4418 -0.6205
   56MOL   C18117891   6.760   6.205   3.410  1.0757  0.0570 -0.3733
   56MOL   C18217892   6.623   6.266   3.416 -0.4848 -0.3347 -0.3193
   56MOL   C18317893   6.972   5.968   3.694  0.3090 -0.1171  0.3426
   56MOL   H18417894   6.803   5.862   3.613 -1.1906 -0.6452  0.6537
   56MOL   H18517895   6.862   6.022   3.444  1.1636  1.7751  0.4710
   56MOL   H18617896   6.684   6.002   3.431 -1.1049  0.8062 -0.5580
   56MOL   H18717897   6.803   6.197   3.310  1.9008 -2.7476  0.1600
   56MOL   H18817898   6.831   6.260   3.473  0.8568  2.0904 -1.8251
   56MOL   H18917899   6.633   6.374   3.402 -0.1023  0.3829  4.5680
   56MOL   H19017900   6.576   6.266   3.514  0.0177  3.0098 -0.0072
   56MOL   H19117901   6.543   6.245   3.345 -2.8112  1.0221  1.8246
   56MOL   H19217902   7.027   5.974   3.600 -0.0040 -1.2690  0.0778
   56MOL   H19317903   6.984   6.067   3.739  0.8967  1.4835 -3.1256
   56MOL   C19417904   7.044   5.877   3.788 -0.1866  0.9080 -0.1038
   56MOL   O19517905   7.052   5.749   3.726  0.4442  0.5011 -0.5792
   56MOL   C19617906   7.072   5.648   3.825 -0.6251 -0.0157  0.0449
   56MOL   C19717907   7.055   5.514   3.751  0.1008 -0.2113 -0.3877
   56MOL   C19817908   7.105   5.390   3.826  0.2083 -0.6640 -0.3699
   56MOL   C19917909   7.186   5.934   3.830  0.5037  0.1700 -0.7758
   56MOL   H20017910   6.996   5.870   3.886  0.4499  0.2252  0.1613
   56MOL   H20117911   7.174   5.658   3.863 -0.2185 -0.1628 -0.9794
   56MOL   H20217912   7.000   5.665   3.904  0.3749 -0.9459  1.1659
   56MOL   H20317913   7.127   5.517   3.669 -0.3725  0.4275 -0.7875
   56MOL   H20417914   6.950   5.514   3.723  0.2171  0.9858 -0.8744
   56MOL   H20517915   7.084   5.302   3.765 -1.5538 -0.6680  0.1939
   56MOL   H20617916   7.053   5.376   3.920 -2.4231 -0.3205 -1.7111
   56MOL   H20717917   7.212   5.394   3.845  0.0372 -2.1349  1.0359
   56MOL   H20817918   7.163   6.012   3.903 -2.3687 -1.4417  0.1293
   56MOL   H20917919   7.229   5.867   3.905 -0.6948 -0.1522 -0.3698
   56MOL   C21017920   7.288   5.992   3.722  0.8439  0.2737  0.6360
   56MOL   O21117921   7.248   6.129   3.713 -0.1296 -0.1079 -0.2160
   56MOL   C21217922   7.303   6.216   3.602 -0.4704  0.0077  0.4488
   56MOL   C21317923   7.273   6.183   3.455  0.4674  0.1075  0.1713
   56MOL   C21417924   7.130   6.216   3.404  0.2770  0.0562 -0.5052
   56MOL   C21517925   7.434   5.981   3.770  0.8849  0.8471  0.8422
   56MOL   H21617926   7.260   5.943   3.629  0.3506  0.3559  0.7405
   56MOL   H21717927   7.276   6.320   3.624  0.3026  0.7284 -1.8123
   56MOL   H21817928   7.411   6.221   3.616 -0.6979  1.1509  2.0137
   56MOL   H21917929   7.291   6.077   3.433  2.7059  0.4705  0.2155
   56MOL   H22017930   7.343   6.234   3.389  3.2019 -0.6932  2.3679
   56MOL   H22117931   7.093   6.312   3.441 -0.5432 -0.2074 -0.6314
   56MOL   H22217932   7.059   6.150   3.455 -0.1845 -0.2493 -1.5360
   56MOL   H22317933   7.124   6.210   3.296 -2.5354  1.6291 -0.4927
   56MOL   H22417934   7.498   6.050   3.715  0.0485 -0.8113 -2.3433
   56MOL   H22517935   7.439   6.004   3.877  2.1601 -0.8605  1.1490
   56MOL   C22617936   7.495   5.836   3.754 -0.0456 -0.5495 -0.2591
   56MOL   O22717937   7.440   5.744   3.850 -0.7251  0.0530  0.3787
   56MOL   C22817938   7.496   5.755   3.983  0.1488  0.4845 -0.0301
   56MOL   C22917939   7.435   5.632   4.059  0.2251 -0.2719  0.7370
   56MOL   C23017940   7.447   5.495   3.987 -0.1950 -1.1165  0.8071
   56MOL   C23117941   7.473   5.785   3.607  0.1048  0.6269  0.1144
   56MOL   H23217942   7.602   5.847   3.773 -0.6818  1.3719  2.5173
   56MOL   H23317943   7.605   5.748   3.977  0.1678  0.9901 -0.2915
   56MOL   H23417944   7.465   5.844   4.039  0.3364  1.4117 -1.3894
   56MOL   H23517945   7.328   5.649   4.070  0.7526  2.8215  1.4690
   56MOL   H23617946   7.485   5.634   4.156 -0.0191 -2.2729  0.9130
   56MOL   H23717947   7.404   5.496   3.887 -0.7136 -1.4067  1.0257
   56MOL   H23817948   7.397   5.417   4.043 -0.6541 -1.7323 -0.4291
   56MOL   H23917949   7.553   5.474   3.971 -0.5978 -1.6567 -1.3536
   56MOL   H24017950   7.533   5.696   3.589 -1.7864 -0.6003 -0.2875
   56MOL   H24117951   7.369   5.755   3.596  0.4575 -0.0808 -1.3770
   56MOL   C24217952   7.511   5.890   3.497  0.4441 -0.3140  0.5283
   56MOL   O24317953   7.640   5.948   3.517  0.9054 -0.0520 -0.1282
   56MOL   C24417954   7.666   6.074   3.447 -0.6533 -0.1388 -0.2501
   56MOL   C24517955   7.799   6.132   3.500  0.3546  0.5360 -0.0705
   56MOL   C24617956   7.802   6.166   3.650  0.1988  0.8207  0.0297
   56MOL   C24717957   7.502   5.834   3.349  0.6033  0.0481  0.6391
   56MOL   H24817958   7.434   5.967   3.506  2.2156  2.0064 -2.9852
   56MOL   H24917959   7.675   6.062   3.339  1.4420 -1.4748  0.0429
   56MOL   H25017960   7.583   6.144   3.450  1.1673  2.0316  1.1482
   56MOL   H25117961   7.825   6.222   3.445  0.0648  0.0967 -0.9363
   56MOL   H25217962   0.057   6.068   3.482  1.0006  1.4966 -0.3980
   56MOL   H25317963   0.078   6.168   3.682  0.4838  0.4939 -0.8460
   56MOL   H25417964   7.759   6.077   3.696  2.6776  0.1268  1.0437
   56MOL   H25517965   7.752   6.262   3.667 -1.3605 -0.3594  2.3113
   56MOL   H25617966   7.509   5.906   3.267  0.3103 -1.7520 -0.9875
   56MOL   H25717967   7.585   5.766   3.335  0.4679 -1.1528  4.9540
   56MOL   C25817968   7.377   5.745   3.317 -0.0297 -0.1204  0.3452
   56MOL   O25917969   7.265   5.836   3.319  0.1396  0.6826 -0.0676
   56MOL   C26017970   7.152   5.792   3.389 -0.1492  0.0841 -0.0353
   56MOL   C26117971   7.071   5.690   3.315  0.1928  0.1410  0.4863
   56MOL   C26217972   6.943   5.653   3.400 -0.0586  0.3808  0.2487
   56MOL   C26317973   7.398   5.670   3.184  1.0421 -0.0195  0.2844
   56MOL   H26417974   7.356   5.674   3.397 -3.0210  0.5461  0.2021
   56MOL   H26517975   7.173   5.748   3.487  1.1585 -1.0348 -0.8016
   56MOL   H26617976   7.095   5.882   3.411  0.1805 -0.0614  1.5194
   56MOL   H26717977   7.134   5.601   3.316  0.9481  0.6803  1.8360
   56MOL   H26817978   7.039   5.721   3.215 -1.0055 -0.7284  0.6005
   56MOL   H26917979   6.956   5.661   3.508 -0.5778 -2.8350  0.6171
   56MOL   H27017980   6.924   5.546   3.388  4.6323 -0.3575 -2.1425
   56MOL   H27117981   6.850   5.705   3.379 -1.4056 -1.4368  1.5321
   56MOL   H27217982   7.299   5.646   3.146  1.5953  0.1243 -1.2849
   56MOL   H27317983   7.450   5.730   3.110  1.0855 -1.2634 -0.7042
   56MOL   C27417984   7.468   5.537   3.205  0.4559  0.7530  0.6354
   56MOL   O27517985   7.384   5.442   3.277 -0.1170 -0.1889 -0.2611
   56MOL   C27617986   7.437   5.397   3.398  0.0676  0.2696  0.0765
   56MOL   C27717987   7.337   5.305   3.471  0.7604 -0.0786 -0.2357
   56MOL   C27817988   7.332   5.160   3.423  0.0611  0.0945  0.4919
   56MOL   C27917989   7.501   5.465   3.075 -0.0594  0.1260  0.0665
   56MOL   H28017990   7.565   5.558   3.251  0.5682  1.4856  0.0691
   56MOL   H28117991   7.531   5.351   3.368 -1.1479 -0.5248 -2.5928
   56MOL   H28217992   7.457   5.483   3.463 -0.3391 -0.1058  0.7062
   56MOL   H28317993   7.235   5.337   3.452  1.3236  1.1365 -1.3050
   56MOL   H28417994   7.360   5.308   3.578  1.8259  0.6941 -0.4754
   56MOL   H28517995   7.348   5.135   3.318  1.9067 -0.2689  0.8543
   56MOL   H28617996   7.239   5.107   3.443  0.3666 -0.4833  0.3861
   56MOL   H28717997   7.414   5.102   3.464  0.2845 -0.0917 -0.2084
   56MOL   H28817998   7.415   5.483   3.011 -1.2538 -1.6009  1.1316
   56MOL   H28917999   7.588   5.514   3.031 -0.1791 -0.1203 -0.4378
   56MOL   C29018000   7.541   5.313   3.092  0.9019 -0.4537  0.2882
   56MOL   O29118001   7.529   5.251   2.965 -0.2071 -0.0526  0.3015
   56MOL   C29218002   7.400   5.199   2.935  0.3335 -0.3029 -0.5481
   56MOL   C29318003   7.387   5.052   2.990  0.0225  0.2475 -0.1111
   56MOL   C29418004   7.242   5.009   2.978 -0.0374  0.4682 -0.0700
   56MOL   C29518005   7.697   5.301   3.138  0.3029  0.5133 -0.1429
   56MOL   H29618006   7.477   5.260   3.162  2.3240 -0.7512  1.4006
   56MOL   H29718007   7.334   5.273   2.981  1.9942  1.0349 -0.2942
   56MOL   H29818008   7.369   5.203   2.830 -0.1350  0.5907 -0.3905
   56MOL   H29918009   7.424   5.038   3.092  0.0657 -1.2476 -0.3200
   56MOL   H30018010   7.446   4.991   2.922 -1.4225  1.3164 -2.3561
   56MOL   H30118011   7.244   4.903   3.006  3.0841 -0.0035 -1.8425
   56MOL   H30218012   7.188   5.029   2.886 -1.8785  0.0844  0.8898
   56MOL   H30318013   7.187   5.054   3.061  0.3217  1.5774 -0.4244
   56MOL   H30418014   7.758   5.360   3.070 -0.5833  0.6269 -0.8594
   56MOL   H30518015   7.717   5.348   3.234  1.1309  0.6300 -0.3707
   56MOL   C30618016   7.752   5.157   3.160 -0.1542 -0.4810 -0.5581
   56MOL   O30718017   0.060   5.157   3.195  0.3499  0.3147  0.2913
   56MOL   C30818018   0.145   5.154   3.085 -0.4540 -0.0573  0.4136
   56MOL   C30918019   0.278   5.200   3.141 -0.6331  0.4751 -0.3987
   56MOL   C31018020   0.376   5.216   3.024 -0.2273 -0.6788 -0.1065
   56MOL   C31118021   7.684   5.073   3.276 -0.3742 -0.6979  0.0310
   56MOL   H31218022   7.744   5.108   3.063 -1.6803  0.6818 -1.0382
   56MOL   H31318023   0.148   5.052   3.048  1.1616 -0.4270  1.5084
   56MOL   H31418024   0.104   5.224   3.012  0.7032  1.6663  1.3844
   56MOL   H31518025   0.310   5.133   3.221  0.7152 -0.5273 -1.7572
   56MOL   H31618026   0.272   5.292   3.199 -1.6390  0.6039 -0.6918
   56MOL   H31718027   0.341   5.301   2.966  2.0587 -0.0849 -0.6523
   56MOL   H31818028   0.384   5.131   2.957  0.5213 -1.3998  0.8828
   56MOL   H31918029   0.475   5.240   3.063  0.5976 -1.9422 -1.3926
   56MOL   H32018030   7.721   4.971   3.288  0.7344 -0.2147  0.7896
   56MOL   H32118031   7.715   5.107   3.375  0.9818 -2.6754  0.3135
   56MOL   H32218032   7.576   5.063   3.267 -0.1997 -3.5670  0.7728
   57MOL     C118033   3.158   3.370   0.546  0.0797 -0.0726 -0.6791
   57MOL     O218034   3.045   3.391   0.637 -0.3901  0.3566  0.1218
   57MOL     C318035   2.961   3.275   0.648  0.2455  0.3299  0.1203
   57MOL     C418036   2.845   3.308   0.730 -0.1024  0.5261 -0.3866
   57MOL     C518037   2.878   3.353   0.877 -0.1511  0.1118 -0.1702
   57MOL     C618038   3.111   3.369   0.395  0.3683  0.3274 -0.6632
   57MOL     H718039   3.218   3.285   0.579 -0.4088 -0.7826 -1.5851
   57MOL     H818040   2.934   3.231   0.552  2.4578 -0.1456 -0.3176
   57MOL     H918041   3.020   3.197   0.696  0.2148  0.4019  0.2772
   57MOL    H1018042   2.786   3.218   0.717  1.8408 -0.3659 -3.7197
   57MOL    H1118043   2.784   3.386   0.685 -0.2589  0.4504 -0.3054
   57MOL    H1218044   2.790   3.405   0.916  0.4907  0.6273  0.6158
   57MOL    H1318045   2.969   3.413   0.887  0.0532 -0.2146 -0.0774
   57MOL    H1418046   2.891   3.267   0.943  2.2060  0.3522 -0.2928
   57MOL    H1518047   3.054   3.278   0.375  0.6908  0.3585 -1.7580
   57MOL    H1618048   3.043   3.453   0.381 -1.8458 -0.4516  4.2412
   57MOL    H1718049   3.224   3.455   0.564  0.2454 -0.3303 -0.0776
   57MOL    C1818050   3.233   3.363   0.300  0.2055  0.1518  0.4153
   57MOL    O1918051   3.329   3.458   0.338 -0.0229  0.1971 -0.0777
   57MOL    C2018052   3.296   3.594   0.306  0.8242  0.3421  0.5494
   57MOL    C2118053   3.390   3.692   0.387  0.6047 -0.6427  0.5366
   57MOL    C2218054   3.351   3.706   0.537 -0.0614 -0.0367  0.1393
   57MOL    C2318055   3.285   3.216   0.280  0.3809 -0.0676 -0.3074
   57MOL    H2418056   3.194   3.398   0.204  0.6627  2.0531  0.9001
   57MOL    H2518057   3.326   3.595   0.201 -0.8486 -3.4852 -0.0260
   57MOL    H2618058   3.189   3.615   0.310  0.6979  1.1758 -4.3527
   57MOL    H2718059   3.387   3.788   0.336 -0.1373 -0.9557 -0.0293
   57MOL    H2818060   3.488   3.645   0.384  0.0239 -1.9036  0.6430
   57MOL    H2918061   3.412   3.785   0.582 -1.4558  0.9442  0.3588
   57MOL    H3018062   3.366   3.615   0.595 -0.5899  0.0221  0.3789
   57MOL    H3118063   3.243   3.723   0.545 -0.0684  0.5487 -1.0461
   57MOL    H3218064   3.324   3.177   0.374  0.8930 -2.4063 -1.4648
   57MOL    H3318065   3.201   3.150   0.258  0.5923 -0.7443  0.8602
   57MOL    C3418066   3.402   3.200   0.181  0.0741  0.2498  0.1974
   57MOL    O3518067   3.478   3.083   0.215 -0.2302 -0.6883  0.3164
   57MOL    C3618068   3.590   3.107   0.305 -0.1982 -0.5884  0.0002
   57MOL    C3718069   3.666   2.975   0.335 -0.2795 -0.4999  0.0586
   57MOL    C3818070   3.581   2.861   0.393 -0.9968 -0.1391 -0.2823
   57MOL    C3918071   3.353   3.185   0.028  0.3059 -0.2308  0.2195
   57MOL    H4018072   3.467   3.286   0.197  0.9474 -0.1865 -0.8988
   57MOL    H4118073   3.660   3.158   0.239 -1.1020 -0.2086 -0.6842
   57MOL    H4218074   3.553   3.164   0.391 -0.2464  1.8589 -1.5738
   57MOL    H4318075   3.755   2.986   0.397  0.1804  2.2107 -1.0047
   57MOL    H4418076   3.703   2.926   0.245  1.3412 -0.2031  0.5607
   57MOL    H4518077   3.640   2.773   0.416  0.7373 -0.1829 -4.4110
   57MOL    H4618078   3.508   2.823   0.321 -0.2835  1.0220 -1.6551
   57MOL    H4718079   3.534   2.887   0.488 -1.2325 -1.3439 -0.0665
   57MOL    H4818080   3.335   3.081   7.827  0.8571 -0.3209  0.1801
   57MOL    H4918081   3.258   3.236   0.011  0.8381  0.5555 -0.4684
   57MOL    C5018082   3.436   3.238   7.742  0.2699 -0.3821  1.6329
   57MOL    O5118083   3.445   3.375   7.758  0.5164  0.5084  0.3715
   57MOL    C5218084   3.362   3.454   7.678  0.7421 -0.1325 -0.1466
   57MOL    C5318085   3.414   3.602   7.676 -0.9968 -0.8033 -0.0958
   57MOL    C5418086   3.320   3.690   7.589  0.0572  1.2839  0.1771
   57MOL    C5518087   3.584   3.193   7.732  0.6473  0.6420  0.1111
   57MOL    H5618088   3.399   3.217   7.642  0.7941 -0.8060  1.5277
   57MOL    H5718089   3.367   3.422   7.574 -1.3545 -1.3529  0.1127
   57MOL    H5818090   3.257   3.460   7.705  0.6227 -0.9725 -0.3987
   57MOL    H5918091   3.519   3.604   7.644 -0.1318  0.8288  2.6348
   57MOL    H6018092   3.410   3.636   7.780  1.1841 -2.1149  0.4616
   57MOL    H6118093   3.355   3.792   7.600  0.5498  1.2662 -1.1755
   57MOL    H6218094   3.219   3.685   7.632  1.3563 -0.0514  3.3007
   57MOL    H6318095   3.322   3.657   7.486 -1.6777  1.5719  0.0225
   57MOL    H6418096   3.633   3.222   7.825  2.9224 -1.9981 -0.2010
   57MOL    H6518097   3.590   3.084   7.739 -2.5973  0.4588  0.8052
   57MOL    C6618098   3.651   3.240   7.608  0.3691 -0.0226 -0.0210
   57MOL    O6718099   3.792   3.204   7.625  0.2091 -0.3638  0.9412
   57MOL    C6818100   3.888   3.281   7.548  0.3713 -0.5241  0.5826
   57MOL    C6918101   4.022   3.285   7.625 -0.0928 -0.2888 -0.0809
   57MOL    C7018102   4.059   3.138   7.641  0.5313  0.7148  0.1071
   57MOL    C7118103   3.599   3.185   7.476  0.0617 -0.2194  0.0661
   57MOL    H7218104   3.645   3.348   7.597 -1.2582 -0.1319 -0.3647
   57MOL    H7318105   3.899   3.247   7.445  0.7219  1.3927 -0.0262
   57MOL    H7418106   3.852   3.383   7.543 -0.1166 -0.7451 -0.5418
   57MOL    H7518107   4.010   3.330   7.724 -1.3191  0.8982 -0.7479
   57MOL    H7618108   4.099   3.338   7.569 -1.1732  1.0682 -0.3022
   57MOL    H7718109   4.167   3.125   7.651  0.4336  1.2559  2.2945
   57MOL    H7818110   4.035   3.077   7.554  1.2212 -0.2450  0.5737
   57MOL    H7918111   4.010   3.103   7.732  2.0323  0.5044  0.8565
   57MOL    H8018112   3.494   3.210   7.462 -0.2010 -1.1450  0.3088
   57MOL    H8118113   3.639   3.249   7.397  2.1415 -0.6013  0.7676
   57MOL    C8218114   3.622   3.036   7.457 -0.0049 -0.6064  0.1175
   57MOL    O8318115   3.528   2.973   7.534 -0.0905  0.1412 -0.1823
   57MOL    C8418116   3.583   2.852   7.589 -0.9366  0.0191 -0.1706
   57MOL    C8518117   3.478   2.799   7.691 -0.1067  0.1841  0.4059
   57MOL    C8618118   3.547   2.741   7.813 -0.1467 -0.5898  0.0054
   57MOL    C8718119   3.615   2.988   7.313 -0.0197 -0.4811 -1.0978
   57MOL    H8818120   3.722   3.018   7.496  0.3093 -0.0047 -0.4064
   57MOL    H8918121   3.620   2.774   7.523 -3.4500 -1.9028  0.6459
   57MOL    H9018122   3.665   2.883   7.653 -2.2391  0.0147  1.5461
   57MOL    H9118123   3.397   2.740   7.646  0.4342  0.4240 -0.8890
   57MOL    H9218124   3.416   2.883   7.723  1.2160  1.4967 -0.4673
   57MOL    H9318125   3.479   2.723   0.068 -0.4312  3.0734  0.6216
   57MOL    H9418126   3.618   2.811   0.030  0.8239 -1.3606 -0.2954
   57MOL    H9518127   3.604   2.652   7.783  0.2391 -0.5297  0.5424
   57MOL    H9618128   3.515   2.952   7.290  0.0912 -0.6670 -1.2936
   57MOL    H9718129   3.616   3.074   7.246 -0.9908  0.6187  0.2743
   57MOL    C9818130   3.724   2.888   7.267  0.5920  0.3373  0.2221
   57MOL    O9918131   3.701   2.832   7.133  0.1073  0.1600 -0.1401
   57MOL   C10018132   3.675   2.693   7.135  0.0429  0.2765  0.4607
   57MOL   C10118133   3.619   2.638   7.004 -0.4277  0.4613  0.4394
   57MOL   C10218134   3.601   2.484   7.002  0.4126  0.4012  0.1268
   57MOL   C10318135   3.868   2.943   7.271 -0.6673 -0.2941  1.0028
   57MOL   H10418136   3.724   2.801   7.333 -1.3114 -0.8694 -1.3001
   57MOL   H10518137   3.770   2.640   7.139  2.4073  4.1921 -1.3558
   57MOL   H10618138   3.614   2.656   7.217  1.7846 -0.6984  1.3583
   57MOL   H10718139   3.680   2.674   6.921 -2.1579  0.6313 -0.7793
   57MOL   H10818140   3.523   2.685   6.986 -1.0224 -0.2313  1.7458
   57MOL   H10918141   3.697   2.440   7.029  0.6569 -2.2016 -4.4997
   57MOL   H11018142   3.586   2.474   6.895  0.6360  0.5801  0.0774
   57MOL   H11118143   3.512   2.438   7.046  1.8313 -3.0895 -0.4947
   57MOL   H11218144   3.891   2.977   7.170 -0.8553 -0.9299  0.7411
   57MOL   H11318145   3.865   3.040   7.319 -0.4629  1.0792 -1.6752
   57MOL   C11418146   3.986   2.857   7.329  0.2365 -0.8419  0.2675
   57MOL   O11518147   4.096   2.944   7.340  0.3202  0.7251  0.1593
   57MOL   C11618148   4.176   2.951   7.216 -0.1259 -0.5809 -0.1569
   57MOL   C11718149   4.280   3.066   7.208  0.6255 -0.0185 -0.2324
   57MOL   C11818150   4.388   3.063   7.325  0.3819  0.4207  0.4562
   57MOL   C11918151   3.957   2.797   7.468 -0.4085 -0.2607  0.0853
   57MOL   H12018152   4.002   2.782   7.252 -0.8624 -0.0974 -0.7076
   57MOL   H12118153   4.211   2.851   7.193  0.3161 -0.1403 -1.4803
   57MOL   H12218154   4.103   2.959   7.135  1.7793 -0.3279 -1.8952
   57MOL   H12318155   4.217   3.155   7.216 -0.5476 -0.9554  1.3057
   57MOL   H12418156   4.334   3.072   7.114  2.4893 -2.5540  0.6049
   57MOL   H12518157   4.328   3.092   7.412 -0.5607 -0.8405  0.2475
   57MOL   H12618158   4.450   3.147   7.294  0.2469  0.8071  1.2317
   57MOL   H12718159   4.453   2.976   7.332  1.1182  0.7828 -1.3742
   57MOL   H12818160   3.927   2.874   7.538  0.4643 -0.4980  0.7229
   57MOL   H12918161   3.870   2.731   7.464  0.4646 -1.3838 -0.9273
   57MOL   C13018162   4.068   2.711   7.538  0.9317  0.5073 -0.2514
   57MOL   O13118163   4.024   2.648   7.661 -0.3417 -0.6076  0.1010
   57MOL   C13218164   3.977   2.746   7.764 -0.0929  0.2463 -0.2260
   57MOL   C13318165   4.016   2.702   0.078 -0.0078  0.2952  0.3009
   57MOL   C13418166   3.952   2.567   0.105  0.2691 -0.2014 -0.0318
   57MOL   C13518167   4.130   2.607   7.445  0.5531 -0.0888  0.1740
   57MOL   H13618168   4.145   2.787   7.551  0.2897  1.9275 -4.0376
   57MOL   H13718169   4.020   2.843   7.742  0.6991  0.1991  1.0654
   57MOL   H13818170   3.870   2.767   7.758  0.1066  0.9924 -1.2302
   57MOL   H13918171   3.974   2.777   0.144 -0.4676 -0.1354  0.4980
   57MOL   H14018172   4.124   2.697   0.096  0.1751 -1.5922 -1.0607
   57MOL   H14118173   4.019   2.492   0.147  2.0685  3.1919  3.4838
   57MOL   H14218174   3.918   2.523   0.011 -0.7324  0.2838  0.1026
   57MOL   H14318175   3.862   2.584   0.164 -0.1617 -0.7161 -0.5436
   57MOL   H14418176   4.186   2.658   7.367  2.7928 -1.7446  0.6513
   57MOL   H14518177   4.206   2.557   7.505  1.2180 -0.8659 -1.2715
   57MOL   C14618178   4.029   2.496   7.393 -0.0203 -0.4678 -0.5313
   57MOL   O14718179   4.093   2.414   7.291 -0.0687 -0.1611 -0.3811
   57MOL   C14818180   4.072   2.467   7.159 -0.3969  0.3620 -0.5318
   57MOL   C14918181   4.194   2.429   7.073  0.6150  0.3003  0.6018
   57MOL   C15018182   4.328   2.482   7.130 -0.0223 -0.2021 -0.1816
   57MOL   C15118183   3.992   2.393   7.500  0.5426 -0.3428  0.2253
   57MOL   H15218184   3.938   2.547   7.360 -0.8562 -0.9013  1.0298
   57MOL   H15318185   3.980   2.437   7.109 -1.0433  0.2328  0.7084
   57MOL   H15418186   4.070   2.576   7.164  3.8381  0.4539  1.6911
   57MOL   H15518187   4.185   2.457   6.968 -2.1057 -0.4519  0.5830
   57MOL   H15618188   4.208   2.322   7.062 -1.9953  0.1714 -2.1686
   57MOL   H15718189   4.420   2.459   7.076  1.8689  1.5819  2.1849
   57MOL   H15818190   4.335   2.438   7.229 -4.3553  2.2362  1.3426
   57MOL   H15918191   4.320   2.590   7.142  0.2716 -0.2880  0.8656
   57MOL   H16018192   4.084   2.341   7.527  0.7550 -0.4682 -0.7197
   57MOL   H16118193   3.954   2.439   7.591  0.0489 -1.7427  0.7523
   57MOL   C16218194   3.882   2.288   7.463 -1.0159  0.4730 -0.1170
   57MOL   O16318195   3.898   2.168   7.539  0.1421 -0.2481  0.3771
   57MOL   C16418196   3.969   2.059   7.469  0.0852 -0.1479 -0.1620
   57MOL   C16518197   3.967   1.937   7.555  0.0059 -0.2177 -0.1796
   57MOL   C16618198   3.826   1.890   7.594 -0.0522 -0.0632  0.0416
   57MOL   C16718199   3.741   2.333   7.496 -0.0451  0.4469 -0.6052
   57MOL   H16818200   3.887   2.262   7.357  1.3337 -3.4761  0.8270
   57MOL   H16918201   3.910   2.029   7.382  0.1375 -0.7435  0.0024
   57MOL   H17018202   4.068   2.083   7.432 -0.0543 -1.2106 -1.2799
   57MOL   H17118203   4.042   1.948   7.634  1.4919 -0.6232 -1.5006
   57MOL   H17218204   4.011   1.846   7.513 -0.7705 -0.5598 -0.2562
   57MOL   H17318205   3.767   1.969   7.641 -0.7238  0.6057 -1.8941
   57MOL   H17418206   3.831   1.813   7.670 -1.1132 -0.5619 -0.3834
   57MOL   H17518207   3.771   1.846   7.511  1.0165  2.1315 -1.8912
   57MOL   H17618208   3.734   2.338   7.604  0.7518  0.2087 -0.5406
   57MOL   H17718209   3.721   2.435   7.464 -0.5812  0.0139 -1.6956
   57MOL   C17818210   3.628   2.240   7.444  0.4668 -0.2666 -0.3847
   57MOL   O17918211   3.517   2.302   7.504 -0.4851  0.0392  0.3936
   57MOL   C18018212   3.461   2.231   7.602 -0.4383  0.5687  0.4279
   57MOL   C18118213   3.353   2.308   7.665  0.6673 -0.7222  0.0081
   57MOL   C18218214   3.233   2.328   7.571  0.5183  0.5257  0.4294
   57MOL   C18318215   3.604   2.228   7.298 -0.0870 -0.0144  0.5206
   57MOL   H18418216   3.653   2.142   7.483 -2.0782 -0.6703  0.2605
   57MOL   H18518217   3.426   2.135   7.565  1.0193 -0.1248  0.7973
   57MOL   H18618218   3.530   2.205   7.683 -2.3405 -1.2134  1.5451
   57MOL   H18718219   3.393   2.404   7.697 -3.1716  0.3612  1.8440
   57MOL   H18818220   3.325   2.251   7.754  1.6759 -0.1797  0.6909
   57MOL   H18918221   3.189   2.229   7.562  0.2542  0.5862  1.0039
   57MOL   H19018222   3.271   2.351   7.472  1.6934  0.6916  0.8994
   57MOL   H19118223   3.162   2.406   7.596  0.3134  0.2927  0.5778
   57MOL   H19218224   3.595   2.329   7.257  2.6533  0.6265  1.3809
   57MOL   H19318225   3.695   2.179   7.264 -1.3982 -1.1804 -1.3617
   57MOL   C19418226   3.480   2.157   7.259 -0.9168  0.0077 -0.5106
   57MOL   O19518227   3.477   2.179   7.117 -0.1417  0.3219 -0.1450
   57MOL   C19618228   3.350   2.214   7.074  0.5057  0.2382 -0.1225
   57MOL   C19718229   3.325   2.167   6.934 -0.3264 -0.1292  0.3524
   57MOL   C19818230   3.291   2.017   6.908  0.2973  0.1574  0.4395
   57MOL   C19918231   3.491   2.003   7.287  0.4491  0.0937 -0.2084
   57MOL   H20018232   3.397   2.199   7.316 -0.2812 -1.6280  1.6704
   57MOL   H20118233   3.279   2.164   7.140  0.3268  0.3881 -0.2022
   57MOL   H20218234   3.336   2.321   7.085  2.8547  0.9603 -3.3706
   57MOL   H20318235   3.418   2.196   6.883  0.8633 -2.0157  1.3892
   57MOL   H20418236   3.241   2.221   6.891  0.3483 -0.6964 -1.7545
   57MOL   H20518237   3.272   2.010   6.800 -1.1317  1.4501  0.5932
   57MOL   H20618238   3.199   1.995   6.962  0.1767 -1.4065 -0.3478
   57MOL   H20718239   3.381   1.959   6.928 -0.2810 -1.2667 -0.9791
   57MOL   H20818240   3.568   1.967   7.218  0.6003  0.5311 -0.2666
   57MOL   H20918241   3.541   1.979   7.382 -1.8754 -1.0446  0.7544
   57MOL   C21018242   3.359   1.920   7.286 -0.3745  0.0162  0.0416
   57MOL   O21118243   3.385   1.783   7.284 -0.3947 -0.0786  0.0602
   57MOL   C21218244   3.351   1.711   7.171  0.5229  0.7400  0.7328
   57MOL   C21318245   3.397   1.562   7.192  0.5424  0.2730 -0.6772
   57MOL   C21418246   3.323   1.484   7.311  0.0193 -0.1632  0.2757
   57MOL   C21518247   3.276   1.948   7.419  0.2857  0.7715 -0.0929
   57MOL   H21618248   3.303   1.953   7.199 -1.4478  1.0835  1.1080
   57MOL   H21718249   3.243   1.712   7.156  0.4636 -0.4403  1.0740
   57MOL   H21818250   3.404   1.747   7.083 -1.1511 -2.5771 -1.7240
   57MOL   H21918251   3.503   1.583   7.211  0.6465  0.7953 -1.7691
   57MOL   H22018252   3.375   1.505   7.102 -2.1874 -1.0424  0.7781
   57MOL   H22118253   3.357   1.510   7.411 -0.1001 -1.1074  0.5710
   57MOL   H22218254   3.349   1.378   7.314  1.2649  0.1818  2.7385
   57MOL   H22318255   3.214   1.495   7.320 -0.2954 -2.3384 -0.4664
   57MOL   H22418256   3.328   1.915   7.509 -1.3342 -1.0077  0.2108
   57MOL   H22518257   3.258   2.052   7.443  0.6083  0.8367 -0.1251
   57MOL   C22618258   3.141   1.872   7.428 -0.4446 -0.4097 -0.2363
   57MOL   O22718259   3.135   1.839   7.567 -0.0041  0.3798 -0.1022
   57MOL   C22818260   3.080   1.710   7.584  0.2820 -0.6617  0.5076
   57MOL   C22918261   3.095   1.679   7.736  0.1426  0.0738  0.4251
   57MOL   C23018262   2.979   1.738   7.817 -0.3589  0.0029 -0.2881
   57MOL   C23118263   3.019   1.961   7.383 -0.3371 -0.8517 -0.4349
   57MOL   H23218264   3.145   1.779   7.371  1.1392  0.2759 -1.2709
   57MOL   H23318265   2.984   1.718   7.534  1.6540 -1.0646 -2.2730
   57MOL   H23418266   3.144   1.639   7.530 -0.7221 -0.7389 -0.5922
   57MOL   H23518267   3.193   1.712   7.770  0.4298  0.0871 -0.3919
   57MOL   H23618268   3.100   1.572   7.756 -2.5717 -0.0041  0.7895
   57MOL   H23718269   2.966   1.846   7.802 -0.7068  0.1063  0.7344
   57MOL   H23818270   3.000   1.719   0.094  3.6374 -0.4953 -1.1047
   57MOL   H23918271   2.884   1.691   7.793  0.7581 -1.7056 -1.4530
   57MOL   H24018272   2.929   1.920   7.429 -1.9007  2.2492 -0.5868
   57MOL   H24118273   3.033   2.058   7.429 -0.5199  0.3247 -2.7736
   57MOL   C24218274   2.989   1.976   7.231  0.5554  0.2594 -0.1789
   57MOL   O24318275   2.906   1.865   7.210  0.0294 -0.2837 -0.5302
   57MOL   C24418276   2.924   1.815   7.081 -0.1851  0.0949 -0.2171
   57MOL   C24518277   2.852   1.680   7.074 -0.0741 -0.4649 -0.3255
   57MOL   C24618278   2.949   1.565   7.103  0.3959 -0.4298  0.7923
   57MOL   C24718279   2.902   2.102   7.211  0.2175 -0.1774  0.6345
   57MOL   H24818280   3.080   1.981   7.171 -0.8765 -1.3660 -2.5888
   57MOL   H24918281   2.880   1.883   7.008  1.7773  0.9340 -0.6511
   57MOL   H25018282   3.029   1.796   7.058 -0.4579 -1.3730 -0.2717
   57MOL   H25118283   2.804   1.674   6.976 -2.0339 -1.7199  0.6556
   57MOL   H25218284   2.770   1.678   7.146 -0.2987  0.6345 -0.5418
   57MOL   H25318285   3.016   1.589   7.185 -0.1383 -1.9112  1.6862
   57MOL   H25418286   3.003   1.546   7.011  0.4635 -1.8525  1.1239
   57MOL   H25518287   2.890   1.475   7.123 -0.9667  0.3928  0.5877
   57MOL   H25618288   2.864   2.085   7.110  0.3000 -1.7093  0.8483
   57MOL   H25718289   2.816   2.103   7.278  0.3334  0.0591  0.7817
   57MOL   C25818290   2.972   2.238   7.211  0.4886  0.0771 -0.0319
   57MOL   O25918291   2.944   2.312   7.100  0.2947  0.4967 -0.6222
   57MOL   C26018292   3.038   2.410   7.061 -0.3707  0.1701  0.7709
   57MOL   C26118293   2.995   2.473   6.927  0.2232  0.1899 -0.3367
   57MOL   C26218294   3.000   2.377   6.803  0.8327 -0.0925  0.0260
   57MOL   C26318295   2.949   2.327   7.336 -0.0280  0.2098  0.6278
   57MOL   H26418296   3.077   2.213   7.195  0.7003  0.4061  0.8193
   57MOL   H26518297   3.035   2.492   7.133 -2.5958 -0.6536  1.6496
   57MOL   H26618298   3.139   2.371   7.050 -1.2165 -1.9804  0.3909
   57MOL   H26718299   3.059   2.559   6.907  0.6246  0.0585  0.3671
   57MOL   H26818300   2.894   2.508   6.947  0.4323  1.2081 -1.0088
   57MOL   H26918301   2.974   2.430   6.711 -2.2358 -0.0147  0.8901
   57MOL   H27018302   2.945   2.283   6.814  1.6711 -0.8386 -1.8113
   57MOL   H27118303   3.105   2.346   6.802  1.1316  0.8717 -1.7060
   57MOL   H27218304   2.999   2.275   7.418  1.3622  1.5751  0.6587
   57MOL   H27318305   3.013   2.415   7.335  0.3479 -0.0097  2.4747
   57MOL   C27418306   2.814   2.378   7.374 -0.2141  0.2960 -0.0821
   57MOL   O27518307   2.725   2.268   7.414  0.4151  0.2813  0.1776
   57MOL   C27618308   2.594   2.286   7.376  0.7898 -0.5244 -0.7657
   57MOL   C27718309   2.505   2.198   7.472 -0.5539 -0.3099  0.1025
   57MOL   C27818310   2.552   2.049   7.481 -0.0540  0.2768 -0.5008
   57MOL   C27918311   2.817   2.489   7.486  0.2607  0.1114  0.0100
   57MOL   H28018312   2.765   2.432   7.292  1.1736  2.0162  0.1956
   57MOL   H28118313   2.570   2.392   7.385  2.3300 -0.2814  0.8934
   57MOL   H28218314   2.577   2.264   7.271  0.9767  1.4314 -1.2249
   57MOL   H28318315   2.399   2.215   7.451  0.1209  2.8526 -1.0993
   57MOL   H28418316   2.521   2.242   7.571 -1.7079 -0.5514  0.4033
   57MOL   H28518317   2.635   2.024   7.547 -0.9593 -0.6593  0.3135
   57MOL   H28618318   2.551   2.009   7.379 -0.4370 -1.1865  0.0623
   57MOL   H28718319   2.478   1.982   7.525 -1.3237  3.0938  1.8498
   57MOL   H28818320   2.880   2.573   7.457 -1.1853  2.1541  2.5564
   57MOL   H28918321   2.722   2.543   7.479  0.4847  0.9011  2.5179
   57MOL   C29018322   2.857   2.448   7.625 -0.0142 -0.1255  0.1645
   57MOL   O29118323   2.905   2.562   7.692 -0.0549  0.0671 -0.1198
   57MOL   C29218324   2.971   2.541   7.816 -0.0540  0.2358  0.2256
   57MOL   C29318325   3.004   2.687   0.028 -0.0127 -0.1352 -0.4692
   57MOL   C29418326   3.121   2.735   7.769  0.4231 -0.5361  0.4413
   57MOL   C29518327   2.737   2.393   7.708 -0.0126  0.0908  0.6898
   57MOL   H29618328   2.932   2.370   7.614  0.2678  0.3854 -1.5228
   57MOL   H29718329   2.910   2.497   0.067  2.9621 -1.5076  1.6360
   57MOL   H29818330   3.058   2.478   7.802 -1.1498 -1.2261 -0.0671
   57MOL   H29918331   3.030   2.697   0.133  1.4118  1.5685 -0.9491
   57MOL   H30018332   2.919   2.751   0.009  0.3395  0.8139  1.0658
   57MOL   H30118333   3.094   2.712   7.666  0.5596  1.5208 -0.0867
   57MOL   H30218334   3.217   2.687   7.788 -0.2501 -1.4377  1.5581
   57MOL   H30318335   3.121   2.844   7.774  2.3313 -0.4896 -0.2623
   57MOL   H30418336   2.709   2.457   7.791  2.4500 -0.5969  2.1028
   57MOL   H30518337   2.644   2.403   7.653  0.7733 -0.7077 -0.8286
   57MOL   C30618338   2.755   2.249   7.748  0.1705  0.0535  0.1266
   57MOL   O30718339   2.874   2.251   0.004  0.2018  1.0257  0.1456
   57MOL   C30818340   2.949   2.127   0.022 -1.1845  0.7258 -0.4032
   57MOL   C30918341   3.085   2.153   0.087  0.1790 -0.2378  0.0288
   57MOL   C31018342   3.197   2.050   0.068  0.6364 -0.3657 -0.1605
   57MOL   C31118343   2.635   2.204   7.827  0.0867 -0.1521 -0.0561
   57MOL   H31218344   2.768   2.181   7.663 -0.7629 -2.1462  1.7050
   57MOL   H31318345   2.894   2.055   0.084 -1.8470 -0.1911 -2.0305
   57MOL   H31418346   2.963   2.093   7.747  2.4101  1.4483 -0.1954
   57MOL   H31518347   3.065   2.148   0.194 -2.8281  0.6984 -0.4438
   57MOL   H31618348   3.122   2.252   0.058  0.0192  0.4658  2.1241
   57MOL   H31718349   3.287   2.096   0.110 -0.7131  1.7176  0.5379
   57MOL   H31818350   3.221   2.034   7.791  0.6189  2.3891 -0.6272
   57MOL   H31918351   3.180   1.952   0.111  4.6703 -1.9474 -1.9576
   57MOL   H32018352   2.541   2.182   7.776 -0.5166 -0.5001  1.1869
   57MOL   H32118353   2.656   2.103   0.035  0.0140  0.5565  2.0850
   57MOL   H32218354   2.613   2.269   0.085 -1.6072 -1.0882  0.2521
   58MOL     C118355   3.926   6.139   4.913  0.6374 -0.4070  0.0705
   58MOL     O218356   3.833   6.082   5.004  0.0950 -0.0244  0.3317
   58MOL     C318357   3.840   6.148   5.129  0.2467  0.5865  0.0913
   58MOL     C418358   3.747   6.079   5.227 -0.1930 -0.0542 -0.2613
   58MOL     C518359   3.817   5.967   5.298  0.0531 -0.0992  0.3465
   58MOL     C618360   3.914   6.084   4.770 -0.6289 -0.4672 -0.0837
   58MOL     H718361   4.026   6.124   4.953  1.4120  2.0211 -0.8334
   58MOL     H818362   3.943   6.154   5.165  0.8273 -2.7544 -0.8387
   58MOL     H918363   3.805   6.251   5.120 -4.0474 -0.6282  1.9517
   58MOL    H1018364   3.659   6.047   5.171 -1.2544  1.4335  0.5149
   58MOL    H1118365   3.705   6.148   5.301 -1.0569 -0.9051  0.0508
   58MOL    H1218366   3.753   5.908   5.365  0.2169 -0.3612  0.2727
   58MOL    H1318367   3.901   6.000   5.359  1.0913 -1.2943 -0.4105
   58MOL    H1418368   3.868   5.899   5.230  0.9636 -2.7490  3.5143
   58MOL    H1518369   3.898   5.976   4.768  0.1631 -0.6170  0.9944
   58MOL    H1618370   3.818   6.113   4.727 -1.7627  0.0739  2.7156
   58MOL    H1718371   3.924   6.248   4.916 -2.0062 -0.3601 -1.8654
   58MOL    C1818372   4.028   6.135   4.675  0.6336 -0.2868  0.4790
   58MOL    O1918373   4.149   6.099   4.715  0.3228  0.1393 -0.3330
   58MOL    C2018374   4.231   6.198   4.777  0.5366 -0.2259 -0.8028
   58MOL    C2118375   4.363   6.143   4.824 -0.0752  0.0537 -0.2597
   58MOL    C2218376   4.453   6.103   4.708  0.0093 -0.2010 -0.0473
   58MOL    C2318377   3.988   6.077   4.534 -0.4903 -0.5038  0.5594
   58MOL    H2418378   4.032   6.243   4.659 -0.1532 -0.3326 -0.0652
   58MOL    H2518379   4.255   6.279   4.708  0.6293  0.5553  0.1422
   58MOL    H2618380   4.173   6.251   4.852  1.3581 -2.0152  1.1560
   58MOL    H2718381   4.346   6.049   4.877 -0.2471 -0.7627 -1.7337
   58MOL    H2818382   4.418   6.219   4.880 -0.7697  1.0667 -0.9150
   58MOL    H2918383   4.541   6.055   4.750  1.3489  0.0886 -2.4487
   58MOL    H3018384   4.475   6.183   4.637 -0.8327 -0.3608 -0.4908
   58MOL    H3118385   4.412   6.022   4.648 -1.6643  0.7144 -0.1529
   58MOL    H3218386   3.956   5.976   4.558  1.3484 -1.2874 -0.1555
   58MOL    H3318387   3.893   6.122   4.505 -1.0214 -1.9122  0.0272
   58MOL    C3418388   4.106   6.090   4.431  0.4221  0.1517  0.0618
   58MOL    O3518389   4.090   6.019   4.307  0.2164 -0.1325  0.2584
   58MOL    C3618390   4.103   5.877   4.333 -0.5995 -0.2148 -0.8390
   58MOL    C3718391   4.104   5.806   4.199  0.2911  0.7979 -0.0615
   58MOL    C3818392   4.239   5.807   4.138  0.0177 -0.6367  0.3860
   58MOL    C3918393   4.111   6.232   4.383 -0.3311 -0.1676 -0.4089
   58MOL    H4018394   4.190   6.043   4.482 -0.2010 -0.8680  0.1617
   58MOL    H4118395   4.190   5.846   4.391 -0.7579  1.3117  0.2574
   58MOL    H4218396   4.006   5.845   4.371 -0.5704  1.7241  0.9950
   58MOL    H4318397   4.040   5.851   4.124 -2.5845  2.1799  3.0748
   58MOL    H4418398   4.070   5.704   4.215 -1.2407  1.5890  2.0320
   58MOL    H4518399   4.274   5.907   4.114  0.5570 -0.9675 -0.1947
   58MOL    H4618400   4.240   5.748   4.047 -0.9229 -0.6278  0.3605
   58MOL    H4718401   4.323   5.772   4.198 -0.4922  0.2847  1.6781
   58MOL    H4818402   4.029   6.262   4.318 -0.4318 -0.1003 -0.2514
   58MOL    H4918403   4.095   6.303   4.464 -0.8015 -0.0764 -0.5819
   58MOL    C5018404   4.233   6.268   4.298 -0.4393  0.2858  0.2653
   58MOL    O5118405   4.207   6.377   4.218 -0.1854 -0.2151 -0.2917
   58MOL    C5218406   4.204   6.355   4.079 -0.3955 -0.1224 -0.5413
   58MOL    C5318407   4.133   6.472   4.007  0.8964 -0.1405  0.1784
   58MOL    C5418408   4.096   6.450   3.856  0.4595 -0.9245 -0.2263
   58MOL    C5518409   4.353   6.303   4.397 -0.0571  0.8041 -0.1948
   58MOL    H5618410   4.248   6.179   4.237 -0.8215  1.4954 -1.6377
   58MOL    H5718411   4.300   6.324   4.037 -0.7156  1.8450 -2.8249
   58MOL    H5818412   4.152   6.259   4.069  2.2605 -1.5778 -0.6568
   58MOL    H5918413   4.198   6.559   4.006 -1.1276  1.3941  0.4143
   58MOL    H6018414   4.043   6.502   4.058  0.4805 -2.4711  0.8897
   58MOL    H6118415   4.005   6.503   3.826 -0.0881 -2.8398 -2.0457
   58MOL    H6218416   4.068   6.346   3.840  0.6667 -0.9195 -0.6038
   58MOL    H6318417   4.175   6.485   3.790  0.5671  0.4098  0.5844
   58MOL    H6418418   4.337   6.409   4.421  0.7275  1.6709 -3.2495
   58MOL    H6518419   4.342   6.243   4.487  0.3866 -2.5175 -2.2846
   58MOL    C6618420   4.494   6.286   4.344 -0.5066 -0.6574  0.0909
   58MOL    O6718421   4.587   6.315   4.449  0.3166 -0.1000  0.1252
   58MOL    C6818422   4.614   6.462   4.471 -0.5798 -0.3751  0.1592
   58MOL    C6918423   4.664   6.456   4.618 -0.0242 -0.6902 -0.3829
   58MOL    C7018424   4.786   6.367   4.636 -0.4761 -0.6915 -0.4289
   58MOL    C7118425   4.529   6.148   4.291  0.0738  0.6827 -0.1946
   58MOL    H7218426   4.524   6.352   4.262  1.1587 -1.0978  0.3321
   58MOL    H7318427   4.698   6.491   4.407  0.2309  0.0804  1.4116
   58MOL    H7418428   4.525   6.522   4.454  0.1005  0.8894  1.0066
   58MOL    H7518429   4.588   6.414   4.684  0.4765 -0.9224  0.0504
   58MOL    H7618430   4.669   6.553   4.667 -2.7901 -0.5204 -0.4017
   58MOL    H7718431   4.873   6.401   4.581  0.3348 -1.3426  0.4525
   58MOL    H7818432   4.757   6.265   4.612  0.6004 -1.1528  0.2140
   58MOL    H7918433   4.816   6.354   4.740 -0.7678  1.4489 -0.0431
   58MOL    H8018434   4.490   6.078   4.365 -0.3587  0.0159 -1.0497
   58MOL    H8118435   4.461   6.127   4.208  0.9728 -1.0814 -0.4886
   58MOL    C8218436   4.683   6.116   4.275 -0.2686 -0.2894  0.4750
   58MOL    O8318437   4.706   5.989   4.208  0.1639 -0.2679  0.1065
   58MOL    C8418438   4.655   5.872   4.271  0.0734  0.1016  0.6617
   58MOL    C8518439   4.700   5.748   4.198  0.0105  0.1646 -0.0082
   58MOL    C8618440   4.709   5.746   4.048 -0.1216  0.2875  0.1301
   58MOL    C8718441   4.746   6.215   4.168  0.1963  0.3249  0.0548
   58MOL    H8818442   4.735   6.119   4.370  1.0681  0.1543 -0.2620
   58MOL    H8918443   4.689   5.873   4.375  2.5244 -0.7110 -0.1044
   58MOL    H9018444   4.546   5.863   4.269  0.0480  0.7287 -1.8989
   58MOL    H9118445   4.652   5.652   4.212 -2.0366  0.7899 -2.4603
   58MOL    H9218446   4.805   5.741   4.228 -0.0317 -0.7460 -0.0565
   58MOL    H9318447   4.606   5.758   4.013  0.5452  0.9995 -1.6569
   58MOL    H9418448   4.767   5.662   4.008  0.4221  1.5197 -1.7370
   58MOL    H9518449   4.762   5.835   4.016  3.2713 -2.1362 -1.2804
   58MOL    H9618450   4.705   6.201   4.068 -0.3413 -1.2364  0.4596
   58MOL    H9718451   4.708   6.313   4.196 -1.8879 -0.6382  0.7947
   58MOL    C9818452   4.893   6.205   4.167  0.3969 -0.5192  0.3183
   58MOL    O9918453   4.954   6.277   4.055 -0.3113  0.0697 -0.0081
   58MOL   C10018454   4.956   6.207   3.931 -1.4708 -0.4198  0.7489
   58MOL   C10118455   5.092   6.230   3.861  0.3209  0.1396 -0.6445
   58MOL   C10218456   5.217   6.167   3.922 -0.1533  0.3283  0.1890
   58MOL   C10318457   4.960   6.280   4.285  0.1402  0.3378 -0.3244
   58MOL   H10418458   4.928   6.102   4.162 -1.0850 -1.0864  1.3789
   58MOL   H10518459   4.928   6.102   3.935  0.6187 -0.9974  0.8386
   58MOL   H10618460   4.885   6.262   3.869  0.7103 -0.3168 -1.7337
   58MOL   H10718461   5.098   6.339   3.866 -1.7801  0.1941  1.0502
   58MOL   H10818462   5.098   6.205   3.755 -1.1089 -0.3770 -0.6062
   58MOL   H10918463   5.308   6.191   3.866 -0.9499  0.5617 -1.0273
   58MOL   H11018464   5.204   6.059   3.913 -0.6171  0.4130 -0.2325
   58MOL   H11118465   5.242   6.193   4.025 -2.4234 -0.2558  0.9019
   58MOL   H11218466   4.944   6.388   4.283 -1.4682  0.0877 -1.4338
   58MOL   H11318467   4.896   6.260   4.371  2.6471 -0.0992  1.4954
   58MOL   C11418468   5.111   6.248   4.312 -0.4098  0.2272  0.3394
   58MOL   O11518469   5.193   6.370   4.310  0.1673 -0.0701 -0.1395
   58MOL   C11618470   5.203   6.445   4.188 -0.2874 -0.3876  0.0823
   58MOL   C11718471   5.322   6.536   4.174 -0.6575 -0.4129  0.0178
   58MOL   C11818472   5.316   6.633   4.055  0.1406  0.2001 -0.2840
   58MOL   C11918473   5.142   6.166   4.435 -0.5684 -1.0164 -0.2866
   58MOL   H12018474   5.141   6.197   4.220  1.6384 -0.3926  1.3290
   58MOL   H12118475   5.187   6.379   4.103  0.3128 -0.4520  0.0177
   58MOL   H12218476   5.115   6.510   4.197  0.5493  0.7176  0.3745
   58MOL   H12318477   5.410   6.473   4.158 -0.4715 -0.2002  0.1966
   58MOL   H12418478   5.336   6.598   4.263  0.5271  0.9634 -1.0887
   58MOL   H12518479   5.405   6.695   4.058 -0.2012  0.6814  0.0432
   58MOL   H12618480   5.231   6.700   4.069 -1.0408 -0.9904 -1.6116
   58MOL   H12718481   5.314   6.576   3.962 -2.3738  1.5362 -1.1079
   58MOL   H12818482   5.251   6.163   4.439 -0.5044  1.4422  0.7448
   58MOL   H12918483   5.122   6.214   4.531  2.5461 -1.2046  0.5229
   58MOL   C13018484   5.090   6.020   4.434  0.3299 -0.2823 -0.1000
   58MOL   O13118485   5.161   5.940   4.335 -0.2120 -0.0413 -0.5018
   58MOL   C13218486   5.077   5.853   4.260  0.6891  0.1526 -0.2359
   58MOL   C13318487   5.165   5.822   4.142  0.0509 -0.4052  0.1948
   58MOL   C13418488   5.101   5.722   4.048 -0.0997  0.0837 -0.2370
   58MOL   C13518489   5.123   5.953   4.572 -0.1673  0.4791  0.2127
   58MOL   H13618490   4.983   6.028   4.419  0.7773  1.5330 -2.5995
   58MOL   H13718491   5.070   5.750   4.298  1.7284  0.1245 -0.1208
   58MOL   H13818492   4.984   5.894   4.222 -0.2021 -1.2859  0.3268
   58MOL   H13918493   5.260   5.778   4.171  0.2325 -1.1428 -1.4406
   58MOL   H14018494   5.191   5.911   4.085  0.2261  0.7990  2.1035
   58MOL   H14118495   5.121   5.621   4.084  0.0078  0.0526 -0.3796
   58MOL   H14218496   5.155   5.722   3.953  0.4186 -0.2427  0.0529
   58MOL   H14318497   4.994   5.727   4.029 -0.6237 -3.2926  1.4303
   58MOL   H14418498   5.231   5.946   4.580 -0.0108  1.8860 -0.5657
   58MOL   H14518499   5.077   6.006   4.655  0.2488 -1.4025  1.6810
   58MOL   C14618500   5.086   5.801   4.576 -0.7496  0.6494 -0.5837
   58MOL   O14718501   5.115   5.756   4.707 -0.3634 -0.4521 -0.0276
   58MOL   C14818502   5.236   5.678   4.732 -0.3601 -0.9638 -0.4247
   58MOL   C14918503   5.266   5.668   4.884  0.0183  0.2021  0.5188
   58MOL   C15018504   5.388   5.596   4.926 -0.3191 -0.5383  0.2749
   58MOL   C15118505   4.936   5.769   4.560  0.4117  0.3098 -0.6972
   58MOL   H15218506   5.145   5.740   4.508 -0.3900  0.2303  0.0955
   58MOL   H15318507   5.223   5.583   4.681  2.5219 -0.5098 -2.1085
   58MOL   H15418508   5.320   5.731   4.687 -0.9340  1.4753  1.2476
   58MOL   H15518509   5.182   5.629   4.941  0.3701  0.9543  1.5657
   58MOL   H15618510   5.272   5.771   4.920  0.3372  0.5416 -0.4748
   58MOL   H15718511   5.359   5.493   4.947  0.2727 -0.5321  1.1722
   58MOL   H15818512   5.433   5.627   5.020 -0.3096  0.2233  0.0210
   58MOL   H15918513   5.459   5.620   4.847 -1.2841 -0.2858 -0.5180
   58MOL   H16018514   4.880   5.811   4.644  0.8712 -1.5324  0.5459
   58MOL   H16118515   4.893   5.814   4.470  0.1238  3.3117  0.8541
   58MOL   C16218516   4.891   5.620   4.555 -0.6294 -0.3164 -0.9244
   58MOL   O16318517   4.750   5.603   4.524  0.2997 -0.1755  0.5126
   58MOL   C16418518   4.673   5.569   4.636  0.3206 -0.1421  0.0877
   58MOL   C16518519   4.544   5.636   4.609 -0.0425  0.6908 -0.6466
   58MOL   C16618520   4.526   5.783   4.650 -0.1341 -0.7224 -0.0032
   58MOL   C16718521   4.964   5.537   4.441 -0.1158 -0.6009 -0.5181
   58MOL   H16818522   4.920   5.582   4.653 -2.0047  0.1634 -0.3143
   58MOL   H16918523   4.665   5.461   4.634  0.3579 -0.1564  0.5548
   58MOL   H17018524   4.711   5.608   4.730  0.9874  0.2764 -0.3519
   58MOL   H17118525   4.468   5.585   4.669  3.2376 -0.1671  2.9673
   58MOL   H17218526   4.517   5.622   4.505 -0.5695  0.0417 -0.4276
   58MOL   H17318527   4.434   5.816   4.600  0.3239  0.2585 -0.2134
   58MOL   H17418528   4.600   5.844   4.599  1.6083 -0.7439  2.4450
   58MOL   H17518529   4.519   5.800   4.757 -0.6926 -0.6874 -0.0451
   58MOL   H17618530   4.934   5.581   4.347 -0.5123  0.0698 -0.0798
   58MOL   H17718531   5.072   5.546   4.441 -0.2794  2.0535  1.4949
   58MOL   C17818532   4.949   5.382   4.452  0.6822  0.3652 -0.1255
   58MOL   O17918533   4.819   5.343   4.417  0.7818 -0.5383 -0.0584
   58MOL   C18018534   4.778   5.227   4.485  0.4429  1.0526  0.0712
   58MOL   C18118535   4.645   5.184   4.424  0.2670  0.0585  0.7644
   58MOL   C18218536   4.553   5.102   4.518  0.5129 -0.3207  0.1769
   58MOL   C18318537   5.036   5.303   4.349  0.0659 -0.7008 -0.4532
   58MOL   H18418538   4.962   5.364   4.559 -0.2555 -0.9166 -0.2090
   58MOL   H18518539   4.851   5.147   4.473  0.4461  1.0185  0.3151
   58MOL   H18618540   4.759   5.238   4.592  0.0466  2.9710 -0.1742
   58MOL   H18718541   4.657   5.133   4.329  0.7424 -0.4478  1.0955
   58MOL   H18818542   4.579   5.266   4.392 -0.0527 -0.1103  0.9908
   58MOL   H18918543   4.596   5.002   4.522 -0.1201 -0.5788  0.6116
   58MOL   H19018544   4.458   5.088   4.467  1.1349 -1.1732 -0.7666
   58MOL   H19118545   4.552   5.152   4.615  1.0336 -1.5981  0.8621
   58MOL   H19218546   4.988   5.225   4.289 -1.3769 -0.7832  0.7657
   58MOL   H19318547   5.046   5.372   4.266  1.0153  0.1630  0.3698
   58MOL   C19418548   5.175   5.264   4.409  0.0585 -0.8276 -0.1918
   58MOL   O19518549   5.140   5.152   4.484 -0.5977 -0.2422  0.5300
   58MOL   C19618550   5.243   5.103   4.578 -0.2954  0.0157  0.2377
   58MOL   C19718551   5.167   5.007   4.665 -0.0077  0.5481  0.3798
   58MOL   C19818552   5.085   5.102   4.768 -0.1152  0.7605  0.5688
   58MOL   C19918553   5.279   5.240   4.302  0.1917 -0.2678 -0.2494
   58MOL   H20018554   5.218   5.335   4.480 -1.9044 -0.8636  1.0658
   58MOL   H20118555   5.329   5.051   4.536 -2.1307 -2.7451 -0.2105
   58MOL   H20218556   5.286   5.187   4.632  1.9996 -0.2166 -1.1583
   58MOL   H20318557   5.242   4.944   4.714 -0.2965  0.2558  0.4500
   58MOL   H20418558   5.097   4.934   4.623  0.4219  0.0467  0.5339
   58MOL   H20518559   5.041   5.039   4.845 -1.1244  1.2305  0.3807
   58MOL   H20618560   5.002   5.159   4.726 -0.3564 -1.3035 -1.8979
   58MOL   H20718561   5.155   5.175   4.808 -0.3294  2.8871 -2.7594
   58MOL   H20818562   5.343   5.154   4.321 -0.1966 -0.3628  0.6621
   58MOL   H20918563   5.225   5.201   4.216  0.1539 -0.5731 -0.0861
   58MOL   C21018564   5.371   5.359   4.272 -1.3081 -0.0695  0.4857
   58MOL   O21118565   5.456   5.395   4.379 -0.2831 -0.1535  0.3534
   58MOL   C21218566   5.456   5.527   4.428  1.2048 -0.0252  0.0626
   58MOL   C21318567   5.583   5.523   4.518  0.5594 -0.7706 -0.5570
   58MOL   C21418568   5.709   5.526   4.436 -0.9760  0.7943  0.0704
   58MOL   C21518569   5.469   5.328   4.149  0.0854 -0.1661 -0.9325
   58MOL   H21618570   5.313   5.447   4.244 -1.3548 -0.4423 -0.6205
   58MOL   H21718571   5.468   5.601   4.349  3.6240  1.3666  1.6481
   58MOL   H21818572   5.374   5.553   4.495  1.5809  1.0855  0.1129
   58MOL   H21918573   5.579   5.429   4.573 -1.1105 -0.4447 -0.1014
   58MOL   H22018574   5.586   5.602   4.593 -1.4309 -1.1061 -0.0890
   58MOL   H22118575   5.709   5.603   4.358 -1.4829  1.4628  0.7266
   58MOL   H22218576   5.730   5.426   4.399 -3.9584 -0.0359  0.4859
   58MOL   H22318577   5.797   5.552   4.495  0.9399 -0.6984 -2.0170
   58MOL   H22418578   5.530   5.241   4.174 -1.0839 -0.1569  2.1374
   58MOL   H22518579   5.412   5.280   4.069  1.5162  0.9263 -2.6411
   58MOL   C22618580   5.550   5.443   4.088 -0.4332 -0.0839 -0.1340
   58MOL   O22718581   5.655   5.389   4.005 -0.4478 -0.0887 -0.0194
   58MOL   C22818582   5.761   5.343   4.085 -1.0106 -0.4912 -0.4413
   58MOL   C22918583   5.859   5.256   4.012 -0.0034  0.0785 -0.8716
   58MOL   C23018584   5.974   5.188   4.091 -0.5421  0.2635  1.2782
   58MOL   C23118585   5.460   5.538   4.007 -0.4316 -0.4638 -0.2882
   58MOL   H23218586   5.581   5.508   4.170  2.3213  0.0253 -1.1846
   58MOL   H23318587   5.812   5.433   4.118 -1.8828 -0.4748  0.9244
   58MOL   H23418588   5.728   5.296   4.178 -1.6257 -0.1848 -0.4972
   58MOL   H23518589   5.903   5.318   3.934 -0.7892  2.2773  0.4106
   58MOL   H23618590   5.798   5.184   3.957 -0.3703 -0.3557  0.1024
   58MOL   H23718591   5.926   5.124   4.164  0.3852  1.6324  3.1236
   58MOL   H23818592   6.055   5.248   4.132 -0.1814  1.1180 -0.6058
   58MOL   H23918593   6.014   5.109   4.027 -2.8116 -1.2164  1.6385
   58MOL   H24018594   5.416   5.474   3.931  0.0042 -0.6730 -0.3662
   58MOL   H24118595   5.367   5.567   4.056 -0.1748 -0.8189  0.4024
   58MOL   C24218596   5.539   5.653   3.936  1.0366 -0.2749  0.8170
   58MOL   O24318597   5.448   5.712   3.842 -0.0544 -0.6872  0.6243
   58MOL   C24418598   5.456   5.641   3.711 -0.3230  0.0537 -0.5771
   58MOL   C24518599   5.360   5.719   3.616  0.1902 -0.2143 -0.1936
   58MOL   C24618600   5.377   5.874   3.607 -0.6390 -0.3538  0.0974
   58MOL   C24718601   5.567   5.763   4.048  0.3384  0.2783 -1.0492
   58MOL   H24818602   5.634   5.616   3.898 -0.1099 -1.5065 -0.8977
   58MOL   H24918603   5.556   5.652   3.671 -0.1829 -0.4326 -0.3636
   58MOL   H25018604   5.436   5.535   3.719 -1.2998  0.4576  3.3998
   58MOL   H25118605   5.259   5.705   3.653  0.1596 -1.9686 -0.8812
   58MOL   H25218606   5.363   5.672   3.517 -2.6962  2.4556 -1.6440
   58MOL   H25318607   5.390   5.926   3.701 -2.4960  1.0320 -0.3900
   58MOL   H25418608   5.298   5.915   3.544  0.1609 -0.8037 -1.2261
   58MOL   H25518609   5.473   5.892   3.558  1.3172 -3.9518  2.3924
   58MOL   H25618610   5.474   5.805   4.086 -0.2942 -0.3334 -1.9009
   58MOL   H25718611   5.625   5.723   4.131 -0.7787  2.2162  0.7050
   58MOL   C25818612   5.647   5.889   4.009  0.6338  0.4878 -0.1798
   58MOL   O25918613   5.650   5.971   4.121 -0.7367  0.8356 -0.5216
   58MOL   C26018614   5.560   6.081   4.111  0.3245 -0.2037  0.8613
   58MOL   C26118615   5.585   6.183   4.227 -0.0772 -0.3427  0.9022
   58MOL   C26218616   5.739   6.219   4.251 -0.1410  0.2972  0.2801
   58MOL   C26318617   5.796   5.852   3.976 -0.0916  0.6795  0.2640
   58MOL   H26418618   5.616   5.948   3.922  1.1373  1.2152  0.1272
   58MOL   H26518619   5.577   6.137   4.018  1.0694 -1.5560  0.1686
   58MOL   H26618620   5.458   6.044   4.119 -0.0108  0.3814 -0.4541
   58MOL   H26718621   5.555   6.141   4.323  0.0370 -0.2526  0.9780
   58MOL   H26818622   5.534   6.278   4.212 -1.7759 -1.0575  1.9558
   58MOL   H26918623   5.795   6.126   4.263 -0.1719  0.0370 -1.4425
   58MOL   H27018624   5.753   6.281   4.339 -0.7017  1.4690 -0.4415
   58MOL   H27118625   5.775   6.270   4.161  1.9751  0.3562  1.1197
   58MOL   H27218626   5.866   5.928   4.008 -0.7231  0.0914  3.1734
   58MOL   H27318627   5.820   5.762   4.032  0.4545 -1.2896 -2.9971
   58MOL   C27418628   5.825   5.833   3.825 -0.2553 -0.5083 -1.0054
   58MOL   O27518629   5.821   5.961   3.762  0.1440  0.2871  0.0373
   58MOL   C27618630   5.773   5.946   3.627 -0.1005  0.3700 -0.7937
   58MOL   C27718631   5.759   6.078   3.552  0.4229 -0.2811 -0.4573
   58MOL   C27818632   5.667   6.171   3.639  0.7269 -0.5299  0.2066
   58MOL   C27918633   5.967   5.768   3.814 -0.2080 -0.3063 -0.0543
   58MOL   H28018634   5.745   5.767   3.791 -2.1122  2.5257 -2.7028
   58MOL   H28118635   5.837   5.877   3.572  0.2674  0.9449 -1.0989
   58MOL   H28218636   5.678   5.893   3.633 -1.0857  2.1692  0.0862
   58MOL   H28318637   5.704   6.062   3.460 -0.2954 -1.6351  0.1835
   58MOL   H28418638   5.860   6.115   3.534  0.4336 -0.5211 -0.8831
   58MOL   H28518639   5.562   6.160   3.612  0.2260  3.6482  0.1739
   58MOL   H28618640   5.681   6.276   3.614  2.6206 -1.0106 -0.8575
   58MOL   H28718641   5.681   6.164   3.747 -0.1724  1.7295  0.4879
   58MOL   H28818642   6.025   5.818   3.737  2.0762 -1.7689  0.6926
   58MOL   H28918643   6.015   5.777   3.911 -4.0525 -1.5398  2.0752
   58MOL   C29018644   5.975   5.619   3.778 -0.0805  0.1807  0.4365
   58MOL   O29118645   5.924   5.604   3.646  0.4199  0.2526  0.6295
   58MOL   C29218646   5.850   5.491   3.611 -0.1744 -0.0583 -0.1487
   58MOL   C29318647   5.818   5.507   3.466 -0.3254  0.5431  0.4215
   58MOL   C29418648   5.950   5.505   3.388  0.4589  0.3386 -0.0699
   58MOL   C29518649   6.114   5.556   3.772  0.2393  0.2259 -0.4288
   58MOL   H29618650   5.914   5.574   3.856 -2.2028 -0.3326 -1.4756
   58MOL   H29718651   5.910   5.404   3.635  0.0881  0.6620  1.9694
   58MOL   H29818652   5.760   5.488   3.673 -0.0633  0.6983  0.0624
   58MOL   H29918653   5.765   5.600   3.447  1.1324  1.3701  0.3976
   58MOL   H30018654   5.749   5.431   3.429  0.0871  0.2021  0.3433
   58MOL   H30118655   6.022   5.580   3.418  0.3995  0.7710 -0.9926
   58MOL   H30218656   5.928   5.523   3.283  0.7456 -1.4981 -0.4645
   58MOL   H30318657   6.006   5.412   3.395 -0.0157 -0.0335 -1.1131
   58MOL   H30418658   6.106   5.448   3.759 -0.4391  0.0704  1.1158
   58MOL   H30518659   6.171   5.597   3.689  0.3980  0.9064  0.0111
   58MOL   C30618660   6.207   5.594   3.894 -0.6786 -0.6745 -0.9729
   58MOL   O30718661   6.309   5.495   3.901  0.1566  0.2509 -0.4101
   58MOL   C30818662   6.285   5.383   3.985 -0.3974 -0.5531 -0.5207
   58MOL   C30918663   6.413   5.294   3.994 -0.1246  0.5840  0.5769
   58MOL   C31018664   6.404   5.180   4.086 -0.1924 -0.5025  0.3010
   58MOL   C31118665   6.285   5.720   3.888  0.2056 -0.2046 -0.5349
   58MOL   H31218666   6.147   5.595   3.985 -1.8524  2.6954 -1.7343
   58MOL   H31318667   6.260   5.416   4.086  3.0218 -0.0943  0.2429
   58MOL   H31418668   6.209   5.311   3.955  0.3574 -2.4717  2.0185
   58MOL   H31518669   6.501   5.350   4.026  0.5030 -0.4524  0.6990
   58MOL   H31618670   6.438   5.254   3.895  1.8712 -0.5642  1.5159
   58MOL   H31718671   6.400   5.214   4.190 -1.0283  1.8418 -0.4788
   58MOL   H31818672   6.486   5.113   4.060  0.6060  1.2922 -1.9588
   58MOL   H31918673   6.312   5.128   4.061  0.3673 -1.2064 -0.3208
   58MOL   H32018674   6.358   5.716   3.807  0.7216  0.8210 -0.1212
   58MOL   H32118675   6.228   5.811   3.866  0.3079  0.2390  1.0278
   58MOL   H32218676   6.347   5.720   3.977 -0.9484 -1.6922  0.2958
   59MOL     C118677   4.601   4.939   0.276 -1.0062  0.7930  0.0654
   59MOL     O218678   4.521   5.060   0.258 -0.1073  0.1338 -0.0314
   59MOL     C318679   4.601   5.179   0.261  0.7511 -0.2887 -0.1964
   59MOL     C418680   4.505   5.279   0.205  0.2052  1.1050 -0.7087
   59MOL     C518681   4.560   5.407   0.160 -0.1334  0.0746 -0.3838
   59MOL     C618682   4.531   4.804   0.235  0.1590 -0.1607  0.5252
   59MOL     H718683   4.627   4.936   0.382 -1.3153 -0.4419  0.1243
   59MOL     H818684   4.639   5.200   0.361 -2.1366 -1.2886  1.1810
   59MOL     H918685   4.688   5.166   0.197  0.0939  0.5861 -1.2840
   59MOL    H1018686   4.436   5.297   0.287  0.1565  0.1683 -0.5387
   59MOL    H1118687   4.446   5.243   0.120 -0.1489  0.5879 -0.2519
   59MOL    H1218688   4.602   5.397   0.060 -1.4164 -1.1091 -0.8252
   59MOL    H1318689   4.646   5.433   0.221  1.0310 -0.0138 -1.9618
   59MOL    H1418690   4.487   5.488   0.157 -2.0997 -1.5521  1.8222
   59MOL    H1518691   4.576   4.716   0.281 -0.3296 -0.0800  1.1559
   59MOL    H1618692   4.427   4.807   0.265 -0.2661 -3.8646 -0.3520
   59MOL    H1718693   4.700   4.948   0.233 -1.5546 -1.6233 -1.8243
   59MOL    C1818694   4.531   4.794   0.085 -0.7735  0.2957  0.1376
   59MOL    O1918695   4.665   4.786   0.037  0.1992 -0.4505  0.3414
   59MOL    C2018696   4.673   4.816   7.732 -0.0527 -0.3178  0.7984
   59MOL    C2118697   4.816   4.854   7.684 -0.0270 -0.0915  0.7580
   59MOL    C2218698   4.877   4.969   7.767 -0.2675  0.2343  0.1465
   59MOL    C2318699   4.441   4.684   0.029 -0.8450  0.7937 -0.0526
   59MOL    H2418700   4.479   4.883   0.049 -0.6761  0.0974 -0.5034
   59MOL    H2518701   4.644   4.734   7.666  0.6257  0.8548 -0.9871
   59MOL    H2618702   4.598   4.893   7.713  0.1943 -0.0366  0.9427
   59MOL    H2718703   4.821   4.869   7.576 -1.7493 -1.2183  0.5028
   59MOL    H2818704   4.871   4.763   7.707 -0.1062 -0.9814 -2.2962
   59MOL    H2918705   4.821   5.062   7.754 -0.8379  0.1127  1.5858
   59MOL    H3018706   4.979   4.993   7.738  0.1023  0.4447  1.5719
   59MOL    H3118707   4.878   4.943   0.045  1.3313 -0.5670 -0.0612
   59MOL    H3218708   4.347   4.712   0.076 -0.5181  1.0211  0.4687
   59MOL    H3318709   4.440   4.686   7.748  3.2527  2.5484 -0.1588
   59MOL    C3418710   4.482   4.536   0.067 -0.1323  0.6343 -0.2940
   59MOL    O3518711   4.432   4.518   0.197 -0.6139 -0.2488 -0.1093
   59MOL    C3618712   4.475   4.406   0.269 -0.2262 -0.3920 -0.2215
   59MOL    C3718713   4.392   4.398   0.405  0.2297  0.5368  0.0826
   59MOL    C3818714   4.402   4.520   0.503  0.6061 -0.1797  0.6602
   59MOL    C3918715   4.418   4.432   7.793  0.8294 -0.0603 -0.0751
   59MOL    H4018716   4.591   4.523   0.067 -0.2890 -0.8318  1.6884
   59MOL    H4118717   4.456   4.312   0.216 -0.2627 -0.3587 -0.2665
   59MOL    H4218718   4.578   4.407   0.305 -0.5188  0.5726  0.6155
   59MOL    H4318719   4.415   4.318   0.476 -1.7222 -0.4923 -0.3939
   59MOL    H4418720   4.287   4.395   0.378  0.6514 -0.7738 -1.5496
   59MOL    H4518721   4.504   4.545   0.533  1.0701 -0.7123 -0.4548
   59MOL    H4618722   4.338   4.500   0.589 -0.6213 -1.8664 -0.6165
   59MOL    H4718723   4.365   4.614   0.462  0.1177 -0.3581  0.7007
   59MOL    H4818724   4.434   4.330   7.826 -0.9710 -0.4578 -0.3791
   59MOL    H4918725   4.313   4.459   7.790  0.8223 -0.0347  0.4680
   59MOL    C5018726   4.461   4.437   7.648 -0.1521  0.3297  0.1412
   59MOL    O5118727   4.604   4.402   7.641  0.0941 -0.4691 -0.3596
   59MOL    C5218728   4.646   4.395   7.513  0.1116 -0.4388 -0.3720
   59MOL    C5318729   4.799   4.410   7.511 -0.1264 -0.3276  0.3677
   59MOL    C5418730   4.850   4.537   7.573  0.3756 -0.5159 -0.2088
   59MOL    C5518731   4.364   4.352   7.562  0.0390 -0.1120 -0.2362
   59MOL    H5618732   4.463   4.538   7.608  1.8064  0.2766  0.0650
   59MOL    H5718733   4.615   4.297   7.474 -2.4641 -0.1069  0.7614
   59MOL    H5818734   4.607   4.482   7.460 -1.0630  0.3473  1.7315
   59MOL    H5918735   4.835   4.399   7.409  1.5587 -1.0864  1.0315
   59MOL    H6018736   4.842   4.332   7.574 -1.6973  1.3198  3.6203
   59MOL    H6118737   4.806   4.629   7.537 -0.9856 -0.4257  1.5933
   59MOL    H6218738   4.958   4.544   7.559  0.2238 -0.9376 -1.6118
   59MOL    H6318739   4.826   4.537   7.680  2.8520  0.0482  0.3673
   59MOL    H6418740   4.392   4.247   7.564 -1.1373 -0.4464 -0.8170
   59MOL    H6518741   4.261   4.341   7.597  0.5803 -0.8064  1.1640
   59MOL    C6618742   4.334   4.409   7.420  0.2059 -0.3978  0.3177
   59MOL    O6718743   4.284   4.298   7.348  0.1185  0.1369  0.1807
   59MOL    C6818744   4.352   4.278   7.225 -0.1116  0.5266 -0.1229
   59MOL    C6918745   4.288   4.160   7.147  0.9781 -0.1616 -0.2889
   59MOL    C7018746   4.382   4.143   7.019  0.5443 -0.0748  0.0496
   59MOL    C7118747   4.215   4.505   7.418  0.0094  0.1353 -0.8624
   59MOL    H7218748   4.417   4.462   7.375  0.2451 -0.8170 -0.1095
   59MOL    H7318749   4.344   4.368   7.163 -0.7000  0.1487 -0.6062
   59MOL    H7418750   4.458   4.271   7.248  0.4188  1.8749 -1.9932
   59MOL    H7518751   4.187   4.189   7.119  0.1792 -2.8735 -0.3274
   59MOL    H7618752   4.282   4.061   7.192  1.0637 -0.1435 -0.2368
   59MOL    H7718753   4.475   4.097   7.051  0.6317 -0.1029 -0.2425
   59MOL    H7818754   4.397   4.233   6.959  3.9619  0.4064  1.5184
   59MOL    H7918755   4.336   4.066   6.957  2.1285 -1.1463  0.1871
   59MOL    H8018756   4.176   4.512   7.317 -1.9843 -1.5079 -0.2427
   59MOL    H8118757   4.132   4.459   7.471 -0.0122 -0.7928 -1.6964
   59MOL    C8218758   4.244   4.644   7.466  0.7319 -0.3172 -0.3614
   59MOL    O8318759   4.346   4.698   7.384  0.0657  0.1231 -0.1375
   59MOL    C8418760   4.405   4.823   7.422 -0.2619 -0.2748  0.2610
   59MOL    C8518761   4.540   4.832   7.347  0.3315 -0.0270 -0.0782
   59MOL    C8618762   4.537   4.861   7.193  0.3943  0.3399  0.3432
   59MOL    C8718763   4.117   4.739   7.467  0.2129 -0.9977  0.1705
   59MOL    H8818764   4.273   4.635   7.571 -0.6817  1.2077  0.1899
   59MOL    H8918765   4.348   4.913   7.399 -1.8029 -1.7006 -1.6220
   59MOL    H9018766   4.424   4.827   7.529  1.0488 -3.2378  0.1972
   59MOL    H9118767   4.602   4.744   7.364 -0.8754 -0.9800 -0.5335
   59MOL    H9218768   4.594   4.918   7.388  0.7814 -1.1678  1.7788
   59MOL    H9318769   4.471   4.791   7.142  1.7123 -1.2640  0.7959
   59MOL    H9418770   4.637   4.854   7.151  0.0558  1.8085 -0.7783
   59MOL    H9518771   4.494   4.961   7.183  0.1761  0.1592 -0.6361
   59MOL    H9618772   4.132   4.836   7.515 -0.0839  0.3169 -2.3100
   59MOL    H9718773   4.102   4.773   7.365  1.1793  1.4090  0.7866
   59MOL    C9818774   3.995   4.690   7.554 -0.3109  0.3132 -0.4335
   59MOL    O9918775   4.022   4.705   7.693 -0.1286  0.4178 -0.0951
   59MOL   C10018776   4.032   4.571   7.753  0.8225  0.5368  0.4267
   59MOL   C10118777   4.036   4.561   0.075  0.0943 -0.3104  0.4450
   59MOL   C10218778   4.012   4.414   0.124 -0.4177 -0.6533 -0.6238
   59MOL   C10318779   3.885   4.796   7.538 -0.4643  0.1615 -0.2963
   59MOL   H10418780   3.955   4.596   7.517 -1.5097 -0.5407  2.9148
   59MOL   H10518781   3.943   4.520   7.716 -0.3796  2.4206  0.6655
   59MOL   H10618782   4.119   4.513   7.723 -1.8741 -2.3203 -2.2041
   59MOL   H10718783   3.960   4.634   0.103  0.8407  1.1733 -1.2920
   59MOL   H10818784   4.112   4.614   0.133 -1.5713  1.0485  1.4095
   59MOL   H10918785   3.995   4.400   0.230 -2.5375  1.3308 -0.6537
   59MOL   H11018786   4.095   4.352   0.091  0.1604 -1.5948  2.4966
   59MOL   H11118787   3.928   4.377   0.064 -0.7634  0.1870 -0.6768
   59MOL   H11218788   3.933   4.881   7.587  1.3207 -0.8730 -0.2018
   59MOL   H11318789   3.883   4.830   7.434  4.4224  1.7801 -0.0099
   59MOL   C11418790   3.746   4.771   7.595 -0.1941 -0.5665  0.0227
   59MOL   O11518791   3.689   4.648   7.548 -0.5559 -0.1355 -0.6093
   59MOL   C11618792   3.663   4.626   7.410  0.5561  0.9830  0.3674
   59MOL   C11718793   3.514   4.581   7.403  0.1297 -0.3802 -0.6598
   59MOL   C11818794   3.422   4.696   7.452 -0.1910  0.7713  0.2290
   59MOL   C11918795   3.733   4.787   7.749  0.0614  0.1062 -0.4935
   59MOL   H12018796   3.684   4.853   7.559  0.7307  0.0014 -0.3193
   59MOL   H12118797   3.683   4.713   7.349  0.4989  0.6514 -0.1224
   59MOL   H12218798   3.726   4.547   7.371 -2.8671 -0.8415 -1.6934
   59MOL   H12318799   3.505   4.496   7.470  0.2038 -0.2579 -0.4950
   59MOL   H12418800   3.483   4.558   7.301 -2.0593  1.1669 -0.3734
   59MOL   H12518801   3.406   4.693   7.560 -2.4222  0.8310 -0.0713
   59MOL   H12618802   3.317   4.689   7.423 -0.5192  2.1850  1.0558
   59MOL   H12718803   3.454   4.791   7.411 -1.7442  1.0265 -0.4500
   59MOL   H12818804   3.801   4.710   7.784  2.6505  0.8766 -3.5763
   59MOL   H12918805   3.779   4.884   7.774 -0.0381  0.1966 -0.6623
   59MOL   C13018806   3.588   4.783   7.796 -0.3354  0.2473  0.3614
   59MOL   O13118807   3.580   4.728   0.101  0.2161  0.0655 -0.3126
   59MOL   C13218808   3.598   4.591   0.111 -0.0198 -0.3820  0.0537
   59MOL   C13318809   3.579   4.542   0.256  0.6814 -0.3082 -0.7578
   59MOL   C13418810   3.704   4.568   0.344  0.1311 -0.5096 -0.2747
   59MOL   C13518811   3.518   4.925   7.794  0.3430 -0.0140 -0.4037
   59MOL   H13618812   3.530   4.718   7.730 -1.0170  1.0297  0.1926
   59MOL   H13718813   3.523   4.542   0.050 -0.7784  0.2546  0.4583
   59MOL   H13818814   3.697   4.559   0.080  1.1966  0.7793  2.5698
   59MOL   H13918815   3.571   4.434   0.257  0.9868 -0.3293 -0.5392
   59MOL   H14018816   3.487   4.587   0.294  0.0411 -0.0494 -2.5621
   59MOL   H14118817   3.711   4.676   0.346 -0.4938 -0.4840  0.6052
   59MOL   H14218818   3.793   4.520   0.303 -0.6211  0.2884 -2.9589
   59MOL   H14318819   3.705   4.540   0.449 -0.4206  1.5392  0.2965
   59MOL   H14418820   3.592   4.994   0.006  0.7145  0.0514 -1.1922
   59MOL   H14518821   3.525   4.955   7.689 -1.2071  1.9869  0.0284
   59MOL   C14618822   3.376   4.945   0.024 -0.3503 -0.6328 -0.1964
   59MOL   O14718823   3.364   5.090   0.024  0.1942 -0.4491  0.4391
   59MOL   C14818824   3.432   5.164   0.126  0.0362 -0.8920  0.2099
   59MOL   C14918825   3.459   5.304   0.072  0.3689 -0.1692  0.8713
   59MOL   C15018826   3.543   5.300   7.774 -0.7727 -0.1435 -0.1770
   59MOL   C15118827   3.261   4.891   7.773  0.1776 -0.0052 -0.0111
   59MOL   H15218828   3.380   4.932   0.132  0.9931  2.0657  0.1409
   59MOL   H15318829   3.364   5.164   0.211 -1.3304  1.1804 -0.8358
   59MOL   H15418830   3.528   5.124   0.160 -0.2160 -0.6285  1.2516
   59MOL   H15518831   3.509   5.360   0.151  1.9730 -0.6869  0.2495
   59MOL   H15618832   3.361   5.349   0.059  1.1132  1.6178  1.3043
   59MOL   H15718833   3.559   5.396   7.725  1.0679 -0.1713  0.3324
   59MOL   H15818834   3.510   5.241   7.688 -0.9035  0.0309 -0.2481
   59MOL   H15918835   3.639   5.252   7.794  0.4349  0.9246 -3.1080
   59MOL   H16018836   3.274   4.944   7.678 -0.4084  1.2848  0.6076
   59MOL   H16118837   3.274   4.785   7.754  0.9661 -0.1275  1.1886
   59MOL   C16218838   3.120   4.913   0.017 -0.0140  0.2261  0.4547
   59MOL   O16318839   3.007   4.884   7.756  0.3368  0.4438 -0.0280
   59MOL   C16418840   2.959   4.994   7.682 -0.5362  0.4227 -0.4281
   59MOL   C16518841   2.846   4.944   7.588 -0.0412  0.1677  0.5978
   59MOL   C16618842   2.781   5.053   7.502 -0.3229 -0.2474  0.2087
   59MOL   C16718843   3.099   4.833   0.151  0.8873  0.0448 -0.7382
   59MOL   H16818844   3.111   5.017   0.049  0.1095 -0.4192  2.6821
   59MOL   H16918845   2.924   5.074   7.748 -2.3637  1.8939 -3.0835
   59MOL   H17018846   3.041   5.036   7.624 -1.3526  1.9786 -0.5078
   59MOL   H17118847   2.767   4.906   7.653 -0.7280  0.1892 -0.2164
   59MOL   H17218848   2.886   4.863   7.528 -0.1729  0.1104  0.5871
   59MOL   H17318849   2.851   5.079   7.422 -0.7310  1.7479  0.4596
   59MOL   H17418850   2.744   5.143   7.551 -0.1741 -0.5858  0.9457
   59MOL   H17518851   2.695   5.007   7.453 -0.3133 -0.4930  0.4230
   59MOL   H17618852   3.183   4.830   0.220  0.0312  1.9637  0.4238
   59MOL   H17718853   3.015   4.878   0.204  1.3465  0.5655 -0.4579
   59MOL   C17818854   3.050   4.688   0.140 -0.0665 -0.1768  0.1130
   59MOL   O17918855   3.146   4.607   0.079 -0.3095 -0.3217  0.0956
   59MOL   C18018856   3.100   4.555   7.776  0.0074  0.0212 -0.5627
   59MOL   C18118857   3.202   4.445   7.748  0.2462 -0.3099 -0.8298
   59MOL   C18218858   3.216   4.416   7.601 -0.3860 -0.1355 -0.2991
   59MOL   C18318859   3.019   4.633   0.285  0.7782 -0.0414 -0.3184
   59MOL   H18418860   2.955   4.692   0.086  0.1919  2.1965 -0.1920
   59MOL   H18518861   3.004   4.505   7.787  0.2898  0.1105  3.0163
   59MOL   H18618862   3.092   4.635   7.702  0.7168 -0.3294 -1.0264
   59MOL   H18718863   3.177   4.365   7.817  0.5896 -0.0187 -0.3656
   59MOL   H18818864   3.302   4.482   7.770 -0.0452 -0.3387  0.5688
   59MOL   H18918865   3.266   4.497   7.548 -0.1220 -0.8700 -1.1864
   59MOL   H19018866   3.122   4.384   7.557  0.0110 -0.1418 -1.1580
   59MOL   H19118867   3.292   4.339   7.587 -0.0167  0.0784  0.4821
   59MOL   H19218868   3.111   4.654   0.339  0.0861  0.5116  0.6806
   59MOL   H19318869   2.949   4.697   0.339 -1.0248 -0.8143 -1.6787
   59MOL   C19418870   2.974   4.489   0.294  0.1293 -0.2145 -0.0912
   59MOL   O19518871   3.069   4.415   0.372 -0.1351 -0.1354 -0.2642
   59MOL   C19618872   3.208   4.401   0.331 -0.0996 -0.3268  0.2247
   59MOL   C19718873   3.232   4.269   0.261 -0.1656  0.4632  0.1820
   59MOL   C19818874   3.224   4.154   0.362  0.5763  0.8336 -0.4705
   59MOL   C19918875   2.837   4.455   0.354  0.0590 -0.2530 -0.3244
   59MOL   H20018876   2.979   4.455   0.190  0.2210 -1.4010  0.2947
   59MOL   H20118877   3.246   4.477   0.263 -0.8913  2.9566  3.3153
   59MOL   H20218878   3.275   4.410   0.416 -0.6484  0.5499  0.5658
   59MOL   H20318879   3.332   4.274   0.217 -0.8473 -0.2494 -1.4945
   59MOL   H20418880   3.156   4.249   0.186 -1.7231  1.3822  1.4744
   59MOL   H20518881   3.121   4.149   0.398  1.0888 -2.7649  0.7340
   59MOL   H20618882   3.290   4.160   0.449  0.4646 -0.9539 -0.2406
   59MOL   H20718883   3.241   4.061   0.306 -2.4946 -0.2853  0.3777
   59MOL   H20818884   2.847   4.349   0.377 -2.3863 -1.0920 -2.8379
   59MOL   H20918885   2.814   4.509   0.445  0.3600 -0.2447 -0.2529
   59MOL   C21018886   2.718   4.462   0.258  0.0013  0.4407 -0.1769
   59MOL   O21118887   2.609   4.376   0.300 -0.5902  0.1503  0.2133
   59MOL   C21218888   2.632   4.241   0.254 -0.0660 -0.3712 -0.5275
   59MOL   C21318889   2.520   4.153   0.309 -0.0017 -0.7744 -0.1930
   59MOL   C21418890   2.389   4.153   0.237  0.1106  0.5469  0.8523
   59MOL   C21518891   2.666   4.608   0.227  0.0991  0.5775  0.6737
   59MOL   H21618892   2.751   4.416   0.164 -1.9567  0.0389 -0.6966
   59MOL   H21718893   2.637   4.247   0.145 -3.0156 -0.8066 -0.7231
   59MOL   H21818894   2.726   4.208   0.297  0.2353  1.3127  0.1355
   59MOL   H21918895   2.515   4.178   0.415 -2.2203 -1.1642 -0.1820
   59MOL   H22018896   2.554   4.049   0.303 -0.6634 -0.9147 -1.7223
   59MOL   H22118897   2.349   4.253   0.219 -1.8428  0.1442  2.7823
   59MOL   H22218898   2.309   4.123   0.304 -1.4642 -0.2454 -1.3399
   59MOL   H22318899   2.399   4.086   0.151  1.2151  0.8815  0.7007
   59MOL   H22418900   2.652   4.659   0.322  2.1374 -0.6614  1.6772
   59MOL   H22518901   2.750   4.667   0.193 -0.7189  1.3057 -0.0927
   59MOL   C22618902   2.550   4.621   0.122 -0.4596 -0.4530  0.5386
   59MOL   O22718903   2.578   4.560   7.821 -0.0224 -0.0847 -0.4160
   59MOL   C22818904   2.661   4.638   7.742 -0.0886 -0.1853  0.2178
   59MOL   C22918905   2.694   4.542   7.627  0.3114  0.0529 -0.0606
   59MOL   C23018906   2.575   4.531   7.524  0.0258  0.2183  0.0539
   59MOL   C23118907   2.417   4.569   0.178  0.4058 -0.0031  0.4024
   59MOL   H23218908   2.533   4.723   0.089 -1.1754 -0.7431 -0.0050
   59MOL   H23318909   2.625   4.736   7.713  0.9642 -0.1780 -1.0842
   59MOL   H23418910   2.751   4.651   7.803 -1.1328 -0.8690  1.9426
   59MOL   H23518911   2.724   4.446   7.668  1.6942  0.1887 -0.7351
   59MOL   H23618912   2.782   4.575   7.571  1.3456 -2.9005 -0.2581
   59MOL   H23718913   2.489   4.481   7.569  1.4906 -2.7974 -0.4081
   59MOL   H23818914   2.602   4.472   7.436  0.7523  1.8402 -0.8497
   59MOL   H23918915   2.535   4.626   7.488  1.5967  0.9022  0.1055
   59MOL   H24018916   2.345   4.587   0.099  0.3923  2.1358  0.8686
   59MOL   H24118917   2.406   4.463   0.199  2.6829 -0.3225  0.0793
   59MOL   C24218918   2.377   4.642   0.305  0.1507  0.2507  0.0495
   59MOL   O24318919   2.356   4.779   0.277 -0.3073 -0.4765  0.3416
   59MOL   C24418920   2.375   4.858   0.397 -0.8323 -0.0715  0.3608
   59MOL   C24518921   2.298   4.988   0.384 -0.1728 -0.0340  0.3474
   59MOL   C24618922   2.150   4.968   0.413  0.2197 -0.7219  0.8309
   59MOL   C24718923   2.237   4.581   0.363  0.2440  0.7570 -0.5081
   59MOL   H24818924   2.449   4.619   0.383 -0.8326  0.7872  1.1291
   59MOL   H24918925   2.358   4.799   0.488 -1.3084 -0.0987  0.2524
   59MOL   H25018926   2.478   4.893   0.398 -1.4275  1.6838  1.0450
   59MOL   H25118927   2.314   5.042   0.291 -0.3684 -2.2397 -1.0074
   59MOL   H25218928   2.341   5.060   0.454  2.3440  1.7622 -2.9075
   59MOL   H25318929   2.106   4.893   0.347 -1.0369  0.4363  0.3162
   59MOL   H25418930   2.097   5.063   0.406  0.7422 -0.4993 -0.0772
   59MOL   H25518931   2.143   4.935   0.517  0.9473 -0.0271  1.1033
   59MOL   H25618932   2.167   4.647   0.415 -0.1496 -0.2373  0.2437
   59MOL   H25718933   2.174   4.567   0.275  0.9043  3.8745 -1.5528
   59MOL   C25818934   2.236   4.452   0.454  0.1243 -0.5398 -0.1901
   59MOL   O25918935   2.314   4.476   0.575 -0.1107 -0.4879 -0.5937
   59MOL   C26018936   2.402   4.373   0.625  0.2283  0.6123 -0.1559
   59MOL   C26118937   2.449   4.390   0.772 -0.1323 -0.3304 -0.2362
   59MOL   C26218938   2.493   4.529   0.794 -0.2455  0.3532  0.5580
   59MOL   C26318939   2.098   4.427   0.508  0.0203 -0.2866 -0.4347
   59MOL   H26418940   2.272   4.367   0.396 -0.8581 -0.8220 -0.3977
   59MOL   H26518941   2.361   4.273   0.611  4.8860 -1.1846 -1.6431
   59MOL   H26618942   2.494   4.365   0.568  1.5213  0.0960  1.9360
   59MOL   H26718943   2.524   4.318   0.804  0.9799  1.5308  1.5247
   59MOL   H26818944   2.369   4.385   0.846 -0.5601  1.2205 -0.5596
   59MOL   H26918945   2.423   4.595   0.743 -0.5672 -1.0743 -0.8717
   59MOL   H27018946   2.589   4.548   0.745 -1.3572  0.3354 -1.6666
   59MOL   H27118947   2.491   4.569   0.896 -0.7430  1.6367  0.0561
   59MOL   H27218948   2.088   4.475   0.605  0.9868  0.1825 -0.5653
   59MOL   H27318949   2.036   4.488   0.442 -0.0858 -0.0483 -0.1124
   59MOL   C27418950   2.061   4.276   0.502  0.4339  0.1941  0.0285
   59MOL   O27518951   1.963   4.261   0.605 -0.1981  0.3087 -0.4069
   59MOL   C27618952   2.022   4.225   0.727  0.0593 -0.2530 -0.1527
   59MOL   C27718953   1.916   4.213   0.835 -0.3008  0.3796  0.7081
   59MOL   C27818954   1.853   4.349   0.878  0.4145 -0.2154 -0.3737
   59MOL   C27918955   2.006   4.243   0.364  0.0340  0.3719  0.4653
   59MOL   H28018956   2.147   4.213   0.526  0.4446  0.2380  0.1046
   59MOL   H28118957   2.054   4.124   0.702  0.4341 -0.3847  0.8057
   59MOL   H28218958   2.112   4.282   0.753  1.3312 -1.3097 -2.1020
   59MOL   H28318959   1.942   4.148   0.919 -2.2541 -1.1728  0.1177
   59MOL   H28418960   1.840   4.155   0.783  0.3213 -0.9815  1.2862
   59MOL   H28518961   1.759   4.342   0.932  1.2600 -0.4904  1.0907
   59MOL   H28618962   1.844   4.413   0.790  0.7757 -0.5715 -0.6699
   59MOL   H28718963   1.914   4.405   0.949 -0.8893  0.5569  0.1616
   59MOL   H28818964   1.938   4.323   0.336 -1.2672 -1.2238 -1.0393
   59MOL   H28918965   2.095   4.241   0.301 -0.3761 -1.1074 -0.0858
   59MOL   C29018966   1.925   4.115   0.352 -0.2725  0.1840 -0.2623
   59MOL   O29118967   1.845   4.105   0.230 -0.4329  0.1815  0.4824
   59MOL   C29218968   1.700   4.119   0.244 -0.4735 -0.2776  0.9581
   59MOL   C29318969   1.644   4.127   0.105  0.0065 -0.2207  0.0265
   59MOL   C29418970   1.682   4.256   0.032 -0.0244  0.2290 -0.1375
   59MOL   C29518971   2.026   3.997   0.349  0.0631  0.9586  0.4265
   59MOL   H29618972   1.866   4.105   0.443  0.5323  0.1859  0.2625
   59MOL   H29718973   1.659   4.029   0.290  0.1635 -1.2488 -0.3143
   59MOL   H29818974   1.675   4.211   0.296  3.4589  0.8407  1.0331
   59MOL   H29918975   1.536   4.118   0.113  0.0256 -1.0196 -0.4687
   59MOL   H30018976   1.670   4.038   0.046  2.0667 -0.3604  1.1102
   59MOL   H30118977   1.790   4.267   0.035 -0.1303  1.0762  1.3103
   59MOL   H30218978   1.649   4.347   0.082 -4.0686 -1.8580  1.2317
   59MOL   H30318979   1.648   4.268   7.757  1.0669 -1.6853 -0.7556
   59MOL   H30418980   2.048   3.988   0.242 -0.0712  0.3440  0.4472
   59MOL   H30518981   2.117   4.012   0.407  2.6585 -3.7027 -2.1351
   59MOL   C30618982   1.964   3.863   0.394 -0.2227  0.5157 -0.2326
   59MOL   O30718983   2.036   3.741   0.352 -0.1653  0.2504 -0.3664
   59MOL   C30818984   2.078   3.734   0.219 -0.6227  0.3438  0.7843
   59MOL   C30918985   2.123   3.596   0.170 -0.0400  0.2277 -0.3384
   59MOL   C31018986   2.257   3.543   0.224  0.5166 -0.6641 -0.1916
   59MOL   C31118987   1.936   3.849   0.541  0.2112 -0.0950 -0.0383
   59MOL   H31218988   1.863   3.849   0.354 -0.5671 -0.2647  0.8943
   59MOL   H31318989   2.001   3.772   0.153  1.5668  2.7071 -0.5099
   59MOL   H31418990   2.173   3.789   0.217 -0.2282 -0.2779  1.9707
   59MOL   H31518991   2.128   3.586   0.062  0.0566 -1.6157 -0.1725
   59MOL   H31618992   2.048   3.530   0.212 -0.5436 -0.1358 -1.7757
   59MOL   H31718993   2.340   3.605   0.190  1.3569 -1.2210  0.8283
   59MOL   H31818994   2.281   3.441   0.196  0.9961 -0.9885  1.3552
   59MOL   H31918995   2.254   3.543   0.333  1.7185  1.5895 -0.1267
   59MOL   H32018996   1.843   3.892   0.578  0.7243  0.0223  1.1297
   59MOL   H32118997   1.939   3.741   0.555 -0.9455  0.0520  1.4527
   59MOL   H32218998   2.012   3.887   0.609 -1.4831 -2.1919  3.1167
   60MOL     C118999   3.242   6.810   5.657 -0.4305 -0.0637 -0.1173
   60MOL     O219000   3.260   6.678   5.603 -0.2695  0.5198  0.2265
   60MOL     C319001   3.333   6.598   5.695  0.1286 -0.0211  0.1546
   60MOL     C419002   3.348   6.461   5.630 -0.0195  0.0249 -0.2751
   60MOL     C519003   3.417   6.458   5.487 -0.4197 -0.9670  0.1943
   60MOL     C619004   3.137   6.884   5.576 -0.8680 -0.7970  0.4406
   60MOL     H719005   3.336   6.862   5.643 -1.7502  2.0053 -1.5696
   60MOL     H819006   3.430   6.647   5.705  0.8247 -0.7457 -2.5443
   60MOL     H919007   3.289   6.583   5.793  0.6977  1.5375  0.6648
   60MOL    H1019008   3.254   6.409   5.611  0.7267 -1.8732  1.0502
   60MOL    H1119009   3.397   6.393   5.700  0.6228  2.9674  2.2740
   60MOL    H1219010   3.345   6.497   5.415  0.1297 -0.7068 -0.2182
   60MOL    H1319011   3.420   6.353   5.458  0.6671 -1.0843  0.7037
   60MOL    H1419012   3.513   6.507   5.473 -0.5888 -0.4274  0.8452
   60MOL    H1519013   3.186   6.900   5.479  0.5158 -0.7531  1.1379
   60MOL    H1619014   3.058   6.811   5.558 -1.4119 -0.0458 -0.2814
   60MOL    H1719015   3.203   6.800   5.758 -1.0121 -2.1268 -0.5136
   60MOL    C1819016   3.077   7.015   5.642 -0.0886 -0.5150 -0.0388
   60MOL    O1919017   3.022   6.978   5.766 -0.3983 -0.1512  0.1500
   60MOL    C2019018   2.879   6.981   5.774  0.7290  0.2174  0.0345
   60MOL    C2119019   2.831   6.902   5.901 -0.4277 -0.8246  1.0243
   60MOL    C2219020   2.892   6.763   5.918  0.3205 -0.3174  0.3439
   60MOL    C2319021   3.175   7.135   5.660 -0.1212  0.6050 -0.1983
   60MOL    H2419022   3.002   7.059   5.576 -0.9092 -1.0835  0.5034
   60MOL    H2519023   2.842   7.084   5.772 -2.8197 -0.9859 -0.4974
   60MOL    H2619024   2.839   6.929   5.687  2.9272  0.2398 -1.0204
   60MOL    H2719025   2.723   6.899   5.892 -0.3330  0.4572 -0.9765
   60MOL    H2819026   2.841   6.969   5.987 -0.5449  0.7543 -0.1529
   60MOL    H2919027   2.833   6.689   5.864  1.9022  0.6938 -2.9780
   60MOL    H3019028   2.887   6.722   6.018  0.4636  0.6429  0.7490
   60MOL    H3119029   2.986   6.744   5.865  0.9333  0.0595  1.2821
   60MOL    H3219030   3.225   7.118   5.755  1.8416 -0.6776 -1.4255
   60MOL    H3319031   3.252   7.148   5.585 -1.1133  0.7155 -1.2025
   60MOL    C3419032   3.110   7.277   5.668 -0.2161  0.0172 -0.7838
   60MOL    O3519033   3.214   7.359   5.721  0.6028 -0.0685 -0.4758
   60MOL    C3619034   3.241   7.363   5.862  1.2888 -0.5972 -0.1626
   60MOL    C3719035   3.387   7.416   5.873  0.1837  0.5697  0.2314
   60MOL    C3819036   3.398   7.570   5.843 -0.4444 -0.2940 -0.6532
   60MOL    C3919037   3.058   7.309   5.525  0.6400 -0.4393 -0.1147
   60MOL    H4019038   3.022   7.270   5.733  1.3437  0.2887  1.3786
   60MOL    H4119039   3.173   7.425   5.921  0.4772 -1.6604  0.0389
   60MOL    H4219040   3.236   7.261   5.901  1.9691 -1.4227 -2.1824
   60MOL    H4319041   3.441   7.362   5.796  0.9516  5.3582 -2.8025
   60MOL    H4419042   3.424   7.398   5.974  3.4644  0.5888 -0.9109
   60MOL    H4519043   3.346   7.607   5.755 -2.0865  1.4383  1.0209
   60MOL    H4619044   3.498   7.613   5.841 -1.1193  1.3648 -0.0651
   60MOL    H4719045   3.350   7.622   5.926 -1.8224 -1.0003 -0.9942
   60MOL    H4819046   3.120   7.391   5.490  0.5165 -0.5799 -0.6631
   60MOL    H4919047   3.081   7.219   5.468 -1.3171 -0.3891 -1.0228
   60MOL    C5019048   2.912   7.360   5.509  0.0100  0.7741 -0.4169
   60MOL    O5119049   2.818   7.254   5.545 -0.3785 -0.2016 -0.1524
   60MOL    C5219050   2.700   7.266   5.470  0.7168  0.3676  0.6017
   60MOL    C5319051   2.601   7.158   5.520  0.1091 -0.0244 -0.3398
   60MOL    C5419052   2.549   7.193   5.657 -0.1084 -0.1386  0.2845
   60MOL    C5519053   2.885   7.481   5.600 -0.1595  0.2185  0.5276
   60MOL    H5619054   2.901   7.387   5.403  0.2184 -2.4770 -1.3182
   60MOL    H5719055   2.658   7.366   5.469 -1.7509 -0.5989  1.3681
   60MOL    H5819056   2.716   7.252   5.363 -0.5622 -0.7040  0.5338
   60MOL    H5919057   2.638   7.055   5.516  1.5120  0.4090  1.0032
   60MOL    H6019058   2.515   7.161   5.453 -0.1587 -0.2879 -0.0087
   60MOL    H6119059   2.627   7.220   5.729 -0.5547  1.6958  0.0973
   60MOL    H6219060   2.491   7.105   5.684  2.2304 -1.3112  1.7360
   60MOL    H6319061   2.475   7.273   5.656 -0.3572 -0.3749 -0.0038
   60MOL    H6419062   2.779   7.504   5.595 -0.3500 -0.2622  1.9612
   60MOL    H6519063   2.901   7.436   5.699 -0.7523 -0.6106  0.2512
   60MOL    C6619064   2.976   7.607   5.581 -0.3241 -0.0093 -0.1069
   60MOL    O6719065   2.983   7.635   5.444  0.1180 -0.0277 -0.2694
   60MOL    C6819066   3.087   7.721   5.393  0.2820 -0.9777  0.4361
   60MOL    C6919067   3.047   7.769   5.252  0.3462 -0.6021  0.3857
   60MOL    C7019068   3.064   7.659   5.145 -0.3754  0.3482 -0.1269
   60MOL    C7119069   2.904   7.725   5.644  0.0116  0.3572 -0.0761
   60MOL    H7219070   3.076   7.595   5.624 -0.7830 -1.7410  0.5439
   60MOL    H7319071   3.101   7.802   5.464 -2.3499 -0.0110 -0.1297
   60MOL    H7419072   3.186   7.674   5.398  0.6263 -0.4802 -1.4617
   60MOL    H7519073   3.099   0.031   5.222  0.0279  0.1519  2.0014
   60MOL    H7619074   2.942   7.800   5.253  1.3735  3.1914 -1.0596
   60MOL    H7719075   3.032   7.560   5.177  1.4827 -0.3453 -0.3657
   60MOL    H7819076   3.171   7.649   5.128 -0.8887 -0.8364 -2.7500
   60MOL    H7919077   3.022   7.682   5.047 -0.5261  1.5274  0.1997
   60MOL    H8019078   2.939   7.825   5.617 -1.3811  0.2100 -2.5064
   60MOL    H8119079   2.802   7.722   5.606 -0.6767  1.0869  1.6398
   60MOL    C8219080   2.906   7.727   5.796 -0.4131  0.3858  0.2964
   60MOL    O8319081   3.026   7.800   5.829  0.4822  0.5447 -0.4094
   60MOL    C8419082   3.080   7.774   5.955 -0.0779  0.5053  0.0941
   60MOL    C8519083   3.184   0.055   5.989 -0.1632  0.2552 -0.3094
   60MOL    C8619084   3.243   0.043   6.129 -0.2737  0.6234 -0.7750
   60MOL    C8719085   2.787   7.813   5.850  0.1609  0.5398 -0.4760
   60MOL    H8819086   2.915   7.626   5.834 -0.1611 -0.5841 -2.2175
   60MOL    H8919087   2.994   7.757   6.019  0.5973 -2.5060  0.2970
   60MOL    H9019088   3.128   7.676   5.946 -1.3394  0.0106 -1.3456
   60MOL    H9119089   3.133   0.151   5.985 -1.9697 -0.6913 -0.3737
   60MOL    H9219090   3.267   0.040   5.919 -1.3172 -2.6911 -1.1426
   60MOL    H9319091   3.175   0.070   6.210  0.7843  0.3285  0.2180
   60MOL    H9419092   3.323   0.115   6.145  0.6013 -0.4291 -0.3982
   60MOL    H9519093   3.286   7.772   6.137 -3.1125 -0.6113  0.1391
   60MOL    H9619094   2.805   0.002   5.956  1.7103 -0.9029 -0.4801
   60MOL    H9719095   2.789   0.086   5.809 -2.0821  0.5450 -0.6315
   60MOL    C9819096   2.651   7.740   5.836 -0.5186  0.0143 -0.2746
   60MOL    O9919097   2.636   7.628   5.925 -0.1662 -0.3687 -0.5877
   60MOL   C10019098   2.532   7.530   5.887  0.1633  0.0520 -0.4544
   60MOL   C10119099   2.509   7.433   5.999  0.6477  0.9636 -0.7326
   60MOL   C10219100   2.632   7.336   6.021  0.2802 -0.1574 -0.3621
   60MOL   C10319101   2.532   0.014   5.852 -0.1647 -0.1928 -1.1825
   60MOL   H10419102   2.641   7.697   5.736 -1.0935  0.1036 -0.2576
   60MOL   H10519103   2.442   7.587   5.865 -0.4529 -0.7813 -0.1120
   60MOL   H10619104   2.572   7.477   5.800 -0.3638  0.1407 -0.7508
   60MOL   H10719105   2.426   7.368   5.973 -0.4974  2.3018 -0.4968
   60MOL   H10819106   2.482   7.492   6.087 -0.8427 -0.6411 -0.0876
   60MOL   H10919107   2.670   7.291   5.930 -1.4711  0.0095 -1.2135
   60MOL   H11019108   2.614   7.258   6.095 -0.5720 -1.0644 -1.5127
   60MOL   H11119109   2.718   7.383   6.068 -0.2689  0.3952  0.1167
   60MOL   H11219110   2.549   0.088   5.774  2.5916  0.1230 -0.3448
   60MOL   H11319111   2.436   7.795   5.831 -0.5333 -0.3931  0.8967
   60MOL   C11419112   2.510   0.081   5.994 -0.0271 -0.1727 -0.2354
   60MOL   O11519113   2.414   0.188   5.979 -0.0693  0.2787  0.3339
   60MOL   C11619114   2.484   0.321   5.965  0.0617  0.3304  0.2120
   60MOL   C11719115   2.382   0.430   5.940 -0.2966 -0.2190  0.4024
   60MOL   C11819116   2.304   0.398   5.807 -0.9137 -0.5972  0.1474
   60MOL   C11919117   2.471   7.812   6.109 -0.3617 -0.4478  0.5961
   60MOL   H12019118   2.607   0.122   6.022  1.8595 -2.5561 -2.9497
   60MOL   H12119119   2.537   0.343   6.057 -0.3120  0.0397  0.4965
   60MOL   H12219120   2.553   0.331   5.881 -0.0636 -0.4675  0.0072
   60MOL   H12319121   2.430   0.526   5.956 -0.6511 -0.3310  2.2770
   60MOL   H12419122   2.312   0.410   6.021  1.6787  1.5826  2.6248
   60MOL   H12519123   2.237   0.472   5.762  0.7269  0.7736 -0.0649
   60MOL   H12619124   2.233   0.322   5.837  0.2992 -2.1387 -0.8128
   60MOL   H12719125   2.364   0.370   5.720 -0.2424  2.4281 -0.4348
   60MOL   H12819126   2.379   7.759   6.083 -1.6663  2.1844 -0.2903
   60MOL   H12919127   2.544   7.731   6.115  0.2818  0.1399  0.7409
   60MOL   C13019128   2.462   0.034   6.253  0.2560  0.0541  0.1991
   60MOL   O13119129   2.431   0.170   6.268  0.2012  0.4790 -0.0523
   60MOL   C13219130   2.463   0.244   6.395  0.0394  0.6087 -0.1171
   60MOL   C13319131   2.443   0.401   6.398  0.2287  0.2301  0.3514
   60MOL   C13419132   2.307   0.462   6.365 -0.7179  0.5126 -0.0023
   60MOL   C13519133   2.363   7.778   6.336 -0.7001  0.1166 -0.3649
   60MOL   H13619134   2.560   0.022   6.301 -0.0411  0.0350  0.8157
   60MOL   H13719135   2.420   0.197   6.484 -0.6108  1.1787 -0.1272
   60MOL   H13819136   2.567   0.221   6.416 -0.1002 -0.8207 -0.9168
   60MOL   H13919137   2.509   0.434   6.318  0.2601 -1.0615 -0.1692
   60MOL   H14019138   2.484   0.441   6.491  1.2112  3.3291 -1.3556
   60MOL   H14119139   2.231   0.416   6.429 -0.9350 -0.3932 -0.8930
   60MOL   H14219140   2.277   0.445   6.262 -2.3582  2.1778  0.1702
   60MOL   H14319141   2.301   0.568   6.387 -1.6005  0.4791 -0.0611
   60MOL   H14419142   2.410   7.680   6.344 -0.3133  0.4929  2.9061
   60MOL   H14519143   2.369   7.821   6.436  0.7816 -0.4867 -0.1729
   60MOL   C14619144   2.209   7.783   6.300 -0.2806 -0.0100 -0.0714
   60MOL   O14719145   2.154   7.657   6.342  0.3422  0.0794  0.2265
   60MOL   C14819146   2.170   7.546   6.247  0.1809  0.0357 -0.4474
   60MOL   C14919147   2.132   7.418   6.321  0.0695  0.1420 -0.3613
   60MOL   C15019148   1.987   7.422   6.350 -0.3800  0.0809 -0.1042
   60MOL   C15119149   2.142   0.080   6.369 -0.4142  0.6253 -0.6729
   60MOL   H15219150   2.210   7.785   6.191 -5.1436 -0.1680 -0.2222
   60MOL   H15319151   2.119   7.575   6.156  1.8605 -1.1611 -1.8103
   60MOL   H15419152   2.278   7.535   6.232 -0.1132 -2.3715 -1.0959
   60MOL   H15519153   2.194   7.412   6.410  0.3086  0.9958 -0.4749
   60MOL   H15619154   2.160   7.327   6.267  1.9674 -0.7347  2.0192
   60MOL   H15719155   1.917   7.407   6.269  0.2040 -1.5742 -0.3328
   60MOL   H15819156   1.961   7.503   6.419 -0.5704  0.5381 -0.7175
   60MOL   H15919157   1.970   7.328   6.403  2.1428 -0.9880 -1.1159
   60MOL   H16019158   2.149   0.066   6.476  2.6529 -0.6668 -0.9934
   60MOL   H16119159   2.187   0.174   6.337 -0.7903  0.9321 -0.3084
   60MOL   C16219160   1.998   0.092   6.323 -0.0493 -0.3961  0.2551
   60MOL   O16319161   1.972   0.096   6.181  0.2325 -0.7870 -0.0606
   60MOL   C16419162   2.033   0.195   6.100  0.4759  0.0570  0.8108
   60MOL   C16519163   1.973   0.190   5.960  0.0045 -0.1192 -0.1214
   60MOL   C16619164   1.999   0.046   5.898 -0.2483  0.2395  0.0732
   60MOL   C16719165   1.918   7.807   6.388  0.2046  0.0543  0.7591
   60MOL   H16819166   1.966   0.185   6.370  1.5494 -0.0441  0.6843
   60MOL   H16919167   2.016   0.290   6.151 -0.7633 -0.8564  2.1456
   60MOL   H17019168   2.141   0.180   6.101  0.3156 -1.1690  1.8135
   60MOL   H17119169   2.012   0.266   5.892  0.9409 -0.1238  0.3882
   60MOL   H17219170   1.869   0.222   5.970 -0.3766 -1.5897  0.8131
   60MOL   H17319171   2.107   0.034   5.893  0.1017  1.8415  2.9469
   60MOL   H17419172   1.961   0.033   5.796 -0.6792  1.9011 -0.0022
   60MOL   H17519173   1.965   7.790   5.959  0.5758  0.5608  0.9801
   60MOL   H17619174   1.909   7.729   6.312  0.2079  0.1633  0.6458
   60MOL   H17719175   1.958   7.769   6.481  1.5874  1.4331  0.7498
   60MOL   C17819176   1.774   7.826   6.434  0.0876  0.3214 -0.1227
   60MOL   O17919177   1.768   0.100   6.542 -0.2695 -0.0220  0.2527
   60MOL   C18019178   1.665   0.084   6.631  0.0790 -0.6856  0.0640
   60MOL   C18119179   1.717   7.809   6.738 -0.3915  0.2221 -0.6661
   60MOL   C18219180   1.612   7.752   6.832 -0.4938 -0.2265 -0.1050
   60MOL   C18319181   1.673   0.050   6.329 -0.8584 -0.1697 -0.2541
   60MOL   H18419182   1.737   7.729   6.466 -0.1546  0.8966  1.3718
   60MOL   H18519183   1.646   0.180   6.678 -1.0312  0.0609 -1.8170
   60MOL   H18619184   1.574   0.047   6.584  0.3848  0.8215 -1.7782
   60MOL   H18719185   1.780   0.042   6.803  0.1878 -0.3312 -0.7107
   60MOL   H18819186   1.781   7.731   6.698  0.8555 -0.1949  2.0276
   60MOL   H18919187   1.563   0.014   6.871  2.0286  0.7221  1.0024
   60MOL   H19019188   1.653   7.701   6.919  1.2979 -0.0632 -0.8263
   60MOL   H19119189   1.532   7.695   6.785  1.3238 -2.1632 -0.8771
   60MOL   H19219190   1.578   0.075   6.377  0.4835  0.7191  2.0427
   60MOL   H19319191   1.707   0.145   6.288  0.9357 -1.2120 -1.2284
   60MOL   C19419192   1.648   7.776   6.219 -0.1854 -0.6591  0.7173
   60MOL   O19519193   1.573   7.664   6.271  0.0954 -0.0916 -0.6495
   60MOL   C19619194   1.642   7.538   6.287 -0.0023  0.3476  0.3211
   60MOL   C19719195   1.553   7.446   6.372  0.1419  0.2792  0.5059
   60MOL   C19819196   1.612   7.426   6.511 -0.4196  0.0707  0.0653
   60MOL   C19919197   1.568   0.018   6.109  0.3789 -0.5284 -0.1068
   60MOL   H20019198   1.745   7.740   6.184 -1.1872 -1.4661 -1.3343
   60MOL   H20119199   1.663   7.488   6.193  3.1841 -1.6040  1.9879
   60MOL   H20219200   1.740   7.549   6.333  0.2179  0.2529 -0.1224
   60MOL   H20319201   1.545   7.351   6.319  0.2457  0.6598 -0.1965
   60MOL   H20419202   1.451   7.484   6.383 -0.2266 -0.3221 -0.6942
   60MOL   H20519203   1.607   7.516   6.572 -0.5821 -1.1657  1.9114
   60MOL   H20619204   1.707   7.373   6.513 -1.1906 -1.3075  0.2129
   60MOL   H20719205   1.540   7.359   6.558 -0.5843  0.7835  0.8450
   60MOL   H20819206   1.474   0.056   6.149 -0.0510 -2.1100  0.4166
   60MOL   H20919207   1.612   0.107   6.064  1.8025 -0.6143  1.0870
   60MOL   C21019208   1.538   7.752   5.989 -0.4843 -0.4751  0.7210
   60MOL   O21119209   1.446   0.008   5.905 -0.2348  0.3970 -0.1172
   60MOL   C21219210   1.307   0.014   5.942  0.1919  0.3415  0.7564
   60MOL   C21319211   1.240   0.123   5.854  0.2323 -0.0319 -0.2145
   60MOL   C21419212   1.084   0.094   5.862 -0.2093  0.5342  0.1948
   60MOL   C21519213   1.661   7.711   5.913  0.2660  0.5880 -0.0321
   60MOL   H21619214   1.490   7.661   6.026 -0.0190  0.2808  3.2288
   60MOL   H21719215   1.260   7.746   5.920 -0.8870  0.9736  0.2845
   60MOL   H21819216   1.283   0.034   6.046  0.8658 -0.8960  1.1630
   60MOL   H21919217   1.277   0.131   5.752 -0.5451  0.4267 -0.4594
   60MOL   H22019218   1.264   0.220   5.896 -0.6965 -1.1072  2.9241
   60MOL   H22119219   1.035   0.184   5.824 -0.0867  0.5101 -0.0251
   60MOL   H22219220   1.056   0.098   5.967  0.5579  0.6178  0.4041
   60MOL   H22319221   1.063   7.828   5.812 -0.4452 -1.0373  3.1295
   60MOL   H22419222   1.708   7.801   5.874 -0.0038 -0.7885 -3.7631
   60MOL   H22519223   1.741   7.671   5.975  1.7960  0.7635 -1.8524
   60MOL   C22619224   1.649   7.608   5.800 -0.5088  0.1251  0.6288
   60MOL   O22719225   1.581   7.498   5.863 -0.0265 -0.1203 -0.2550
   60MOL   C22819226   1.612   7.371   5.813 -0.2584  0.0332  0.4530
   60MOL   C22919227   1.664   7.283   5.922  0.0740 -0.1106  0.2340
   60MOL   C23019228   1.805   7.315   5.975 -0.1887 -0.2615  0.5737
   60MOL   C23119229   1.593   7.644   5.662  0.0018  0.1711 -0.6092
   60MOL   H23219230   1.753   7.584   5.782  0.2150  1.9234  2.2196
   60MOL   H23319231   1.515   7.328   5.788 -0.3047  0.1480  0.4359
   60MOL   H23419232   1.672   7.363   5.722 -0.9291 -2.0113  0.1644
   60MOL   H23519233   1.670   7.181   5.884 -0.5997  0.0627 -0.3270
   60MOL   H23619234   1.585   7.285   5.997 -0.1836  2.3768 -0.0584
   60MOL   H23719235   1.817   7.420   5.998 -0.0155  0.3568 -2.1956
   60MOL   H23819236   1.881   7.272   5.910 -1.5774 -0.9514 -0.6357
   60MOL   H23919237   1.831   7.261   6.066  0.2468 -2.5114 -0.8477
   60MOL   H24019238   1.586   7.551   5.606 -0.6441 -0.2085  0.0952
   60MOL   H24119239   1.489   7.673   5.674 -0.3655 -1.2846 -0.2369
   60MOL   C24219240   1.673   7.758   5.587  0.9300  0.4180 -0.3474
   60MOL   O24319241   1.794   7.705   5.534  0.1762 -0.3419 -0.3425
   60MOL   C24419242   1.789   7.611   5.428 -0.8512 -0.1062 -0.3303
   60MOL   C24519243   1.931   7.594   5.376 -0.3903  0.4078 -0.1140
   60MOL   C24619244   1.940   7.496   5.261 -0.1430 -0.4380  0.5818
   60MOL   C24719245   1.590   0.019   5.486  0.4386 -0.2959  0.2730
   60MOL   H24819246   1.720   7.818   5.665  0.0373 -0.7667  1.1259
   60MOL   H24919247   1.749   7.522   5.476  1.5838 -1.2477 -0.2945
   60MOL   H25019248   1.718   7.632   5.349 -1.5038 -0.7406  0.0809
   60MOL   H25119249   1.986   7.563   5.465  1.2430  0.6928 -0.9960
   60MOL   H25219250   1.968   7.691   5.342 -1.1800  0.8440  0.2643
   60MOL   H25319251   2.041   7.467   5.231 -0.5291 -0.6903 -0.4627
   60MOL   H25419252   1.903   7.541   5.169  2.0687  0.4194  0.0653
   60MOL   H25519253   1.879   7.408   5.277  1.0786 -1.2020  1.1310
   60MOL   H25619254   1.544   7.784   5.410  1.9700 -2.1260  0.8165
   60MOL   H25719255   1.501   0.057   5.536  0.0039  0.8801 -1.3410
   60MOL   C25819256   1.652   0.144   5.430 -0.0768  0.2814 -0.8424
   60MOL   O25919257   1.733   0.111   5.322  0.0573 -0.4003  0.4096
   60MOL   C26019258   1.850   0.189   5.305  0.3405  0.7798 -0.1034
   60MOL   C26119259   1.922   0.154   5.172 -0.0586 -0.6066  0.3372
   60MOL   C26219260   2.065   0.208   5.140  0.3740  0.0628 -0.2285
   60MOL   C26319261   1.546   0.243   5.376  0.2938  0.1193  0.7377
   60MOL   H26419262   1.721   0.187   5.503  1.4175 -3.5487  0.0990
   60MOL   H26519263   1.821   0.293   5.315 -0.8579  0.4092  0.4034
   60MOL   H26619264   1.910   0.155   5.389  0.3617  0.0607 -0.4047
   60MOL   H26719265   1.860   0.201   5.096  0.8086  0.1375  0.0716
   60MOL   H26819266   1.929   0.046   5.159 -0.3310 -0.7409  1.2885
   60MOL   H26919267   2.085   0.211   5.033  0.0269  0.5032 -0.2814
   60MOL   H27019268   2.132   0.137   5.188 -1.0268 -0.0092  1.7031
   60MOL   H27119269   2.092   0.305   5.182 -0.5667 -0.6820  2.2339
   60MOL   H27219270   1.573   0.296   5.285 -2.2692 -0.4798 -0.4109
   60MOL   H27319271   1.458   0.186   5.347 -0.4062  1.6032 -0.1160
   60MOL   C27419272   1.512   0.357   5.474  0.6574  0.5148 -0.2167
   60MOL   O27519273   1.442   0.462   5.409 -0.7753 -0.0885 -0.2003
   60MOL   C27619274   1.316   0.423   5.355 -0.4254  0.0020 -0.4511
   60MOL   C27719275   1.251   0.562   5.322  0.6104  0.0114  1.0360
   60MOL   C27819276   1.252   0.664   5.441 -0.1725 -0.0586  0.2157
   60MOL   C27919277   1.449   0.336   5.616  0.5257 -0.0233 -0.4700
   60MOL   H28019278   1.610   0.397   5.501 -0.3456  2.4943  0.6828
   60MOL   H28119279   1.326   0.366   5.262 -1.9724  0.5858 -1.0057
   60MOL   H28219280   1.249   0.373   5.425  1.4677 -0.2947  1.2030
   60MOL   H28319281   1.151   0.530   5.292  1.7592 -3.2394  0.4781
   60MOL   H28419282   1.286   0.601   5.227 -4.7343  0.9324 -0.7672
   60MOL   H28519283   1.350   0.671   5.490 -1.1193  2.7884  1.8495
   60MOL   H28619284   1.200   0.625   5.528 -1.6506  1.3431 -0.0214
   60MOL   H28719285   1.216   0.760   5.402 -2.2357 -0.9896 -0.2116
   60MOL   H28819286   1.345   0.309   5.598  0.4501 -0.8139  1.0863
   60MOL   H28919287   1.493   0.248   5.663  0.7632  1.1646  1.5822
   60MOL   C29019288   1.482   0.458   5.712 -0.1497  0.1813  0.4027
   60MOL   O29119289   1.399   0.440   5.819  0.0214 -0.5964  0.2205
   60MOL   C29219290   1.261   0.486   5.804  0.4320 -0.8352  0.4195
   60MOL   C29319291   1.204   0.524   5.942  0.2741  0.1030 -0.5680
   60MOL   C29419292   1.068   0.595   5.928  0.0221  0.5160  0.2922
   60MOL   C29519293   1.626   0.472   5.767 -0.2266 -0.0752 -0.2018
   60MOL   H29619294   1.466   0.555   5.667 -0.4875  0.5247  1.2624
   60MOL   H29719295   1.267   0.569   5.733  2.1743 -1.2080  0.1105
   60MOL   H29819296   1.198   0.410   5.758 -0.6549  0.2824  0.0461
   60MOL   H29919297   1.265   0.596   5.997  1.5059 -0.2510 -1.4481
   60MOL   H30019298   1.202   0.433   6.002  0.2239  0.9097  0.6719
   60MOL   H30119299   1.038   0.617   6.031 -2.3402 -0.6945 -0.0873
   60MOL   H30219300   1.003   0.514   5.897  1.9866 -1.5598  1.4408
   60MOL   H30319301   1.066   0.689   5.873  2.5306  1.1253  1.1949
   60MOL   H30419302   1.670   0.377   5.799 -1.0391  0.3792  2.4141
   60MOL   H30519303   1.681   0.508   5.680 -2.7889 -0.7685 -2.1470
   60MOL   C30619304   1.650   0.576   5.885 -0.5149 -0.1849 -0.2832
   60MOL   O30719305   1.785   0.548   5.923 -0.1526 -0.2188 -0.2961
   60MOL   C30819306   1.834   0.559   6.047 -0.7494  0.4877 -0.2404
   60MOL   C30919307   1.985   0.592   6.037 -0.6651  0.0956  0.1342
   60MOL   C31019308   2.008   0.721   5.948 -0.2032 -0.0182 -0.3755
   60MOL   C31119309   1.632   0.722   5.852 -0.9270 -0.2772 -0.1659
   60MOL   H31219310   1.583   0.540   5.963 -0.3199 -1.0722 -0.5286
   60MOL   H31319311   1.782   0.634   6.107 -1.7008  1.2577 -1.9896
   60MOL   H31419312   1.826   0.460   6.091 -3.0439 -0.3751 -2.4477
   60MOL   H31519313   2.036   0.502   6.004 -0.2894 -0.5554  2.4209
   60MOL   H31619314   2.031   0.614   6.133  0.5559  0.2047 -0.4679
   60MOL   H31719315   1.976   0.706   5.845 -0.9332 -2.2103  0.1561
   60MOL   H31819316   2.116   0.737   5.942 -0.1928 -1.0991 -5.0954
   60MOL   H31919317   1.957   0.814   5.974 -0.0775 -0.0344 -0.0707
   60MOL   H32019318   1.718   0.750   5.791 -0.1227 -1.8459  0.2124
   60MOL   H32119319   1.539   0.733   5.797 -1.1820  0.4115  0.4075
   60MOL   H32219320   1.638   0.780   5.944  2.1300 -0.4120 -0.2004
   61MOL     C119321   3.598   2.232   0.165  0.7267 -1.0933  0.1228
   61MOL     O219322   3.507   2.314   0.235 -0.2306 -0.2231  0.0598
   61MOL     C319323   3.479   2.449   0.186 -0.1351  0.7396 -0.4507
   61MOL     C419324   3.378   2.528   0.275 -0.0363 -0.2771  0.6439
   61MOL     C519325   3.239   2.463   0.275 -0.0165 -0.0443 -0.2248
   61MOL     C619326   3.593   2.078   0.221  0.4846  0.1387  0.8461
   61MOL     H719327   3.700   2.271   0.168  0.3153  0.0885 -0.9566
   61MOL     H819328   3.577   2.495   0.177  0.6773 -0.2560  2.7403
   61MOL     H919329   3.440   2.451   0.084  1.1275  1.3691 -0.9277
   61MOL    H1019330   3.371   2.632   0.245 -0.9442 -0.5764 -0.2084
   61MOL    H1119331   3.417   2.532   0.377  1.8530  1.9993 -0.1406
   61MOL    H1219332   3.168   2.538   0.312  2.8009  1.6757  1.9002
   61MOL    H1319333   3.242   2.370   0.331 -1.5554  1.8017  3.1397
   61MOL    H1419334   3.201   2.442   0.176  0.7112 -1.7129 -0.1622
   61MOL    H1519335   3.609   2.082   0.329  2.9901  0.5767  0.4897
   61MOL    H1619336   3.498   2.029   0.199 -0.7639  1.9625  2.0302
   61MOL    H1719337   3.569   2.237   0.060 -2.1231 -0.7354  0.8984
   61MOL    C1819338   3.703   1.976   0.168 -0.3727  0.2631 -0.3747
   61MOL    O1919339   3.834   2.029   0.219 -0.4705 -0.2843 -0.1362
   61MOL    C2019340   3.934   2.046   0.117 -0.4746  0.4727 -0.0620
   61MOL    C2119341   4.038   2.151   0.178 -0.0862 -0.3735  0.1298
   61MOL    C2219342   4.125   2.202   0.064  0.0454 -0.3434 -0.0913
   61MOL    C2319343   3.681   1.846   0.238 -0.9531  0.8672 -0.4330
   61MOL    H2419344   3.698   1.973   0.059  2.5762  0.8031 -0.5885
   61MOL    H2519345   3.970   1.945   0.095  0.3428  1.0380 -1.3947
   61MOL    H2619346   3.894   2.086   0.024 -0.4247 -0.2958 -0.4175
   61MOL    H2719347   4.095   2.114   0.262 -0.5867 -0.3784  0.4698
   61MOL    H2819348   3.985   2.236   0.221  1.0963  0.3096  0.2719
   61MOL    H2919349   4.066   2.244   7.810 -0.8271  1.8686  1.6056
   61MOL    H3019350   4.170   2.114   0.019 -1.7415 -1.3927  0.0880
   61MOL    H3119351   4.201   2.275   0.092 -0.2898  0.0203 -0.1227
   61MOL    H3219352   3.776   1.792   0.236 -1.2080  0.4327 -0.9287
   61MOL    H3319353   3.667   1.871   0.343 -1.2012 -0.4900 -0.1305
   61MOL    C3419354   3.564   1.756   0.203  0.2790 -0.0266 -0.2005
   61MOL    O3519355   3.587   1.716   0.066 -0.2562 -0.3193  0.3328
   61MOL    C3619356   3.471   1.728   7.806 -0.1210  0.3595 -0.4772
   61MOL    C3719357   3.497   1.674   7.666 -1.2343 -0.2828  0.1076
   61MOL    C3819358   3.536   1.531   7.669 -0.2820  0.0835  0.0101
   61MOL    C3919359   3.536   1.638   0.291  0.4586 -0.2705 -0.2884
   61MOL    H4019360   3.477   1.822   0.207  1.8350  2.0847 -0.1659
   61MOL    H4119361   3.388   1.674   0.024 -0.2238  0.6895 -0.2713
   61MOL    H4219362   3.433   1.830   7.796 -0.9065  0.3388  2.0140
   61MOL    H4319363   3.573   1.740   7.624 -0.4941 -1.4283 -0.3645
   61MOL    H4419364   3.415   1.700   7.598  0.2991 -0.2646 -1.7552
   61MOL    H4519365   3.575   1.508   7.569 -1.2505 -1.8762  0.0659
   61MOL    H4619366   3.451   1.464   7.686  0.5010 -0.9822 -0.1856
   61MOL    H4719367   3.611   1.518   7.747  1.8188  0.2292 -1.9047
   61MOL    H4819368   3.474   1.570   0.232 -2.1452  1.8370 -0.0348
   61MOL    H4919369   3.628   1.584   0.314  1.0684  0.7314 -0.3648
   61MOL    C5019370   3.460   1.669   0.423 -0.0259 -0.6411  0.6294
   61MOL    O5119371   3.349   1.741   0.382  0.1565 -0.4433  0.2809
   61MOL    C5219372   3.299   1.829   0.485 -0.4092 -0.2806  0.1168
   61MOL    C5319373   3.270   1.966   0.421 -0.2057 -0.0863  0.0188
   61MOL    C5419374   3.205   2.056   0.518  0.0886  0.1583 -0.5189
   61MOL    C5519375   3.413   1.550   0.500  1.1510 -0.8392 -1.0024
   61MOL    H5619376   3.526   1.729   0.485  0.3803 -0.6711  0.2311
   61MOL    H5719377   3.202   1.790   0.518  0.0393 -1.9822 -0.5108
   61MOL    H5819378   3.363   1.825   0.573  0.8188 -0.5544 -0.7805
   61MOL    H5919379   3.206   1.953   0.334 -1.2957 -1.0191  0.9499
   61MOL    H6019380   3.364   2.017   0.399 -0.0565  0.7362  2.3418
   61MOL    H6119381   3.242   2.054   0.621 -1.9030  1.6597  0.2484
   61MOL    H6219382   3.100   2.028   0.519 -0.3212  1.6710 -0.5196
   61MOL    H6319383   3.203   2.159   0.483 -1.2427  0.2364 -0.2226
   61MOL    H6419384   3.381   1.587   0.598  0.4939 -2.9695 -0.3955
   61MOL    H6519385   3.323   1.510   0.453  0.4123  2.1987 -2.3659
   61MOL    C6619386   3.512   1.441   0.520 -0.0112 -0.0482 -0.3182
   61MOL    O6719387   3.626   1.507   0.582 -0.5362 -0.2011  0.0238
   61MOL    C6819388   3.740   1.431   0.568  0.0689 -0.0324  0.2549
   61MOL    C6919389   3.868   1.503   0.615 -0.0460 -0.4581  0.1089
   61MOL    C7019390   3.890   1.638   0.547 -0.3499 -0.4223 -0.1583
   61MOL    C7119391   3.459   1.311   0.582  0.3662 -0.5006  0.1959
   61MOL    H7219392   3.543   1.400   0.424 -0.2256  0.2773 -0.5294
   61MOL    H7319393   3.745   1.337   0.622 -1.0938 -0.4795 -0.4131
   61MOL    H7419394   3.760   1.407   0.463 -2.4426 -1.0826 -0.0112
   61MOL    H7519395   3.952   1.440   0.587  0.1876 -0.3001  0.4553
   61MOL    H7619396   3.870   1.520   0.723  3.1295  0.3999 -0.0289
   61MOL    H7719397   3.905   1.629   0.439  0.5412 -1.5133  0.0554
   61MOL    H7819398   3.981   1.687   0.581  0.4492 -0.7462 -1.7691
   61MOL    H7919399   3.804   1.705   0.557 -0.7862 -0.7771 -1.4187
   61MOL    H8019400   3.540   1.238   0.591  1.9368  1.1881  0.1693
   61MOL    H8119401   3.437   1.324   0.687  2.1362 -0.5576  0.5972
   61MOL    C8219402   3.344   1.243   0.502  0.5441  0.3834 -0.4044
   61MOL    O8319403   3.406   1.213   0.377 -0.0081 -0.6413  0.0767
   61MOL    C8419404   3.336   1.234   0.251  0.1249 -0.1809 -0.3095
   61MOL    C8519405   3.200   1.164   0.228 -1.2259  0.0850  0.0208
   61MOL    C8619406   3.126   1.226   0.109  0.2818 -0.2874  0.4192
   61MOL    C8719407   3.300   1.100   0.554  0.3005  1.3788  0.6287
   61MOL    H8819408   3.256   1.307   0.487 -0.1229 -0.2640  0.6748
   61MOL    H8919409   3.322   1.342   0.245  0.2996 -0.1326  0.1682
   61MOL    H9019410   3.400   1.218   0.164  0.2321  0.7925 -0.4120
   61MOL    H9119411   3.136   1.175   0.315  0.2790  0.6668  1.0723
   61MOL    H9219412   3.211   1.057   0.207 -4.5230 -0.4474  0.7432
   61MOL    H9319413   3.080   1.323   0.126  0.6464  0.0360 -0.3899
   61MOL    H9419414   3.054   1.146   0.091 -0.3191 -0.2997  2.7563
   61MOL    H9519415   3.194   1.233   0.024 -0.3331  0.4268 -0.0261
   61MOL    H9619416   3.230   1.057   0.482  1.6218  1.8858 -0.9896
   61MOL    H9719417   3.388   1.037   0.563 -0.7191  0.0521  1.3901
   61MOL    C9819418   3.239   1.107   0.691  0.7480  0.3085 -0.0004
   61MOL    O9919419   3.109   1.171   0.665 -0.5061  0.4215 -0.5980
   61MOL   C10019420   3.047   1.228   0.775  0.6735 -0.4007  0.0778
   61MOL   C10119421   2.936   1.311   0.736  0.1749 -0.7328  0.2010
   61MOL   C10219422   2.972   1.417   0.632  0.1093  0.0125 -0.3450
   61MOL   C10319423   3.217   0.972   0.766 -0.5244  0.5087 -0.1082
   61MOL   H10419424   3.292   1.173   0.760 -0.5840  0.8900  0.4847
   61MOL   H10519425   3.018   1.157   0.852  3.0832 -3.1929 -1.4940
   61MOL   H10619426   3.116   1.296   0.823  0.3150 -0.7445  1.0930
   61MOL   H10719427   2.892   1.356   0.825 -2.7981 -1.7190 -0.7084
   61MOL   H10819428   2.861   1.241   0.700  1.7655 -1.7228 -1.3044
   61MOL   H10919429   3.059   1.469   0.670 -0.6685  0.4117  0.9330
   61MOL   H11019430   2.887   1.478   0.602 -0.4648  0.3071  1.7512
   61MOL   H11119431   2.997   1.363   0.541 -2.2762 -0.8254 -0.5461
   61MOL   H11219432   3.147   0.993   0.847 -1.8236  1.5661 -1.4904
   61MOL   H11319433   3.169   0.901   0.698 -0.9316 -0.6306  1.3350
   61MOL   C11419434   3.348   0.919   0.822 -0.1005 -0.6124  0.3614
   61MOL   O11519435   3.428   1.012   0.894  0.5719  0.1424 -0.0816
   61MOL   C11619436   3.563   0.979   0.912  0.2962  0.4941 -0.3578
   61MOL   C11719437   3.614   1.092   0.999 -0.3221  0.1826  0.2898
   61MOL   C11819438   3.649   1.220   0.914  0.1761  0.2795 -0.1996
   61MOL   C11919439   3.314   0.802   0.913  0.2166 -0.1530  0.2584
   61MOL   H12019440   3.408   0.886   0.737 -0.0047 -0.7594  0.4842
   61MOL   H12119441   3.574   0.883   0.963 -0.7948  0.5195 -0.0775
   61MOL   H12219442   3.606   0.970   0.812  1.3145 -0.6072  0.1703
   61MOL   H12319443   3.705   1.049   1.042 -0.1616  0.4138  0.1858
   61MOL   H12419444   3.549   1.114   1.084 -0.7718 -0.4276  0.1057
   61MOL   H12519445   3.557   1.268   0.883  1.1024  1.2256 -1.5928
   61MOL   H12619446   3.712   1.193   0.828  1.4572 -0.0197  0.8112
   61MOL   H12719447   3.697   1.300   0.969  0.5204 -1.3966  1.9995
   61MOL   H12819448   3.375   0.797   1.003 -0.6804  2.3999  1.0702
   61MOL   H12919449   3.211   0.809   0.947 -0.6414  0.1606 -2.2464
   61MOL   C13019450   3.335   0.663   0.857 -0.0765  0.3097 -0.6730
   61MOL   O13119451   3.273   0.646   0.725 -0.4165  0.2257  0.2365
   61MOL   C13219452   3.157   0.561   0.721  0.3672  0.2523 -1.0045
   61MOL   C13319453   3.113   0.529   0.581  0.3901  0.5431 -0.1680
   61MOL   C13419454   3.069   0.660   0.513 -0.3507 -0.1496 -0.1586
   61MOL   C13519455   3.490   0.633   0.837  0.2305  0.5357 -0.0894
   61MOL   H13619456   3.300   0.589   0.929 -0.7204  0.1165 -1.1734
   61MOL   H13719457   3.177   0.469   0.775 -2.4996  0.7865  1.0717
   61MOL   H13819458   3.075   0.611   0.772  1.0424  0.8985 -0.5472
   61MOL   H13919459   3.038   0.450   0.576  0.5564  0.2319  1.9780
   61MOL   H14019460   3.192   0.488   0.517  1.8479 -0.3583  2.1566
   61MOL   H14119461   2.960   0.666   0.519 -0.3541 -1.1954  1.0229
   61MOL   H14219462   3.095   0.667   0.408 -1.4839  0.6375 -0.3936
   61MOL   H14319463   3.092   0.756   0.558  1.8415 -0.1935 -1.1502
   61MOL   H14419464   3.525   0.692   0.753  0.6545 -0.6320 -0.7477
   61MOL   H14519465   3.538   0.666   0.929  2.0081  0.1542 -0.8677
   61MOL   C14619466   3.510   0.485   0.797  0.4923  0.2831  0.1819
   61MOL   O14719467   3.650   0.473   0.755  0.1573 -0.1999  0.5909
   61MOL   C14819468   3.680   0.509   0.624 -0.1001 -0.1465  0.1648
   61MOL   C14919469   3.829   0.470   0.591  0.6043  0.0533  0.1577
   61MOL   C15019470   3.874   0.501   0.449  0.4688  0.0730  0.0362
   61MOL   C15119471   3.503   0.392   0.916 -1.3213 -0.0475  0.1621
   61MOL   H15219472   3.436   0.451   0.725 -1.0775  2.4676  0.7265
   61MOL   H15319473   3.610   0.461   0.554 -0.1904  2.6308 -1.7277
   61MOL   H15419474   3.660   0.616   0.613 -1.3249 -0.5223 -1.4656
   61MOL   H15519475   3.850   0.365   0.612  2.4746  0.2091 -0.7567
   61MOL   H15619476   3.894   0.517   0.666  0.9065  1.0592 -0.7220
   61MOL   H15719477   3.873   0.608   0.428  3.5774  0.1448  0.0383
   61MOL   H15819478   3.811   0.446   0.379 -1.3250 -0.7032  2.1833
   61MOL   H15919479   3.974   0.460   0.431 -0.0771 -2.8494  2.9802
   61MOL   H16019480   3.559   0.427   1.002 -1.8752 -3.5480  2.0212
   61MOL   H16119481   3.403   0.402   0.959 -1.3251 -1.7371  0.5781
   61MOL   C16219482   3.530   0.245   0.891  1.0496  0.0515  0.2886
   61MOL   O16319483   3.541   0.182   1.021 -0.4642  0.3843 -0.0898
   61MOL   C16419484   3.673   0.136   1.049 -0.0017  0.5037 -0.2985
   61MOL   C16519485   3.692   0.079   1.183  0.1900  0.4373 -0.1246
   61MOL   C16619486   3.833   0.095   1.241 -0.5228 -0.3599 -0.2707
   61MOL   C16719487   3.430   0.169   0.802  0.3791  0.6323  0.5054
   61MOL   H16819488   3.627   0.245   0.840  1.4920 -0.4991  1.1285
   61MOL   H16919489   3.713   0.066   0.975  0.7771  1.6663 -0.9793
   61MOL   H17019490   3.739   0.222   1.045  0.3676  0.1879 -1.0119
   61MOL   H17119491   3.662   7.802   1.181  0.6070  0.3254 -0.5808
   61MOL   H17219492   3.622   0.129   1.250 -0.2483  1.6621 -1.4559
   61MOL   H17319493   3.907   0.060   1.169 -0.3559 -1.7514  0.5540
   61MOL   H17419494   3.844   0.043   1.336  1.0040 -0.6636 -0.6135
   61MOL   H17519495   3.860   0.198   1.263  3.6808 -1.4607 -0.0303
   61MOL   H17619496   3.347   0.144   0.868  2.9306 -2.8375  2.5163
   61MOL   H17719497   3.388   0.229   0.721 -0.3773  0.4718  0.7750
   61MOL   C17819498   3.498   0.039   0.735 -0.1937  0.3511  0.1557
   61MOL   O17919499   3.401   7.770   0.728 -0.0466 -0.0675  0.1985
   61MOL   C18019500   3.390   7.687   0.846 -0.2388 -0.0382 -0.3368
   61MOL   C18119501   3.250   7.628   0.842 -0.8721  0.4989  0.6636
   61MOL   C18219502   3.232   7.515   0.741 -0.1700  0.0410 -0.3823
   61MOL   C18319503   3.553   0.073   0.590  0.1660  0.0008 -0.8266
   61MOL   H18419504   3.575   0.011   0.806 -0.0881  0.5410  0.1181
   61MOL   H18519505   3.472   7.615   0.847  0.8757  1.2008 -0.9873
   61MOL   H18619506   3.394   7.752   0.933  0.5147  0.7800 -0.9677
   61MOL   H18719507   3.178   7.704   0.812 -0.8821  0.4196  0.4813
   61MOL   H18819508   3.219   7.590   0.939 -0.1280 -1.6705  0.0812
   61MOL   H18919509   3.128   7.483   0.730 -0.2192  0.4498 -1.1013
   61MOL   H19019510   3.290   7.427   0.768 -0.2901  0.0251 -0.1729
   61MOL   H19119511   3.270   7.533   0.640 -0.7072 -0.3847 -0.6684
   61MOL   H19219512   3.626   0.151   0.611 -1.1380  1.3740 -1.3521
   61MOL   H19319513   3.613   7.815   0.559  0.4696 -0.5516  1.2050
   61MOL   C19419514   3.463   0.105   0.472 -1.0284 -0.0373  0.5872
   61MOL   O19519515   3.546   0.104   0.359 -0.2004  0.1705  0.6326
   61MOL   C19619516   3.633   0.215   0.336  0.1912 -0.1279 -0.3152
   61MOL   C19719517   3.564   0.315   0.245  0.4374  0.3508 -0.7562
   61MOL   C19819518   3.588   0.267   0.100  0.5653  0.7598 -0.2328
   61MOL   C19919519   3.352   7.826   0.452 -0.0456  0.1940  0.0045
   61MOL   H20019520   3.422   0.206   0.478 -2.0872 -0.3194 -1.3580
   61MOL   H20119521   3.661   0.258   0.432 -0.2729 -1.0115  0.2207
   61MOL   H20219522   3.722   0.173   0.290  0.2418 -1.1941  0.7396
   61MOL   H20319523   3.619   0.408   0.253 -0.2781  0.6880  0.4939
   61MOL   H20419524   3.460   0.332   0.273  0.9872  1.6792  0.5517
   61MOL   H20519525   3.690   0.294   0.072  0.5670  1.1514  0.1444
   61MOL   H20619526   3.521   0.335   0.048 -1.7264 -0.4528  1.0418
   61MOL   H20719527   3.562   0.162   0.087 -1.0542  0.9761  1.0657
   61MOL   H20819528   3.407   7.732   0.456 -1.9546 -0.9568 -0.4190
   61MOL   H20919529   3.272   0.003   0.525 -1.6737 -0.2379 -1.7098
   61MOL   C21019530   3.281   7.824   0.311 -0.3573 -0.1730 -0.3790
   61MOL   O21119531   3.180   7.723   0.316 -0.1233 -0.5602 -0.5126
   61MOL   C21219532   3.205   7.614   0.234 -0.0429  1.1145 -0.9029
   61MOL   C21319533   3.070   7.534   0.229 -0.7013 -0.3014  0.0426
   61MOL   C21419534   2.956   7.597   0.152  0.7571  0.2088 -0.3850
   61MOL   C21519535   3.197   0.125   0.287 -0.1951  0.2694 -1.2011
   61MOL   H21619536   3.364   7.816   0.241  1.0790 -0.0517  1.2737
   61MOL   H21719537   3.238   7.649   0.136 -3.1589 -1.0589 -2.8475
   61MOL   H21819538   3.282   7.552   0.280 -0.1905 -0.3394 -2.5458
   61MOL   H21919539   3.043   7.511   0.332 -1.4906  0.0722 -0.0773
   61MOL   H22019540   3.088   7.439   0.179 -0.5394 -1.0975  1.5701
   61MOL   H22119541   2.942   7.703   0.175  2.1348 -0.1840  2.4238
   61MOL   H22219542   2.859   7.556   0.179  0.5537  0.8210 -0.1788
   61MOL   H22319543   2.957   7.606   0.043 -0.9993 -0.9019 -0.5103
   61MOL   H22419544   3.123   0.144   0.364  0.1650  0.7903 -0.9787
   61MOL   H22519545   3.267   0.207   0.304  1.0899 -0.9143 -0.6943
   61MOL   C22619546   3.135   0.141   0.139 -0.1777 -0.6585  0.1384
   61MOL   O22719547   3.033   0.236   0.114 -0.1601  0.2620  0.0498
   61MOL   C22819548   2.910   0.215   0.179  0.4522 -0.1108  0.3064
   61MOL   C22919549   2.829   0.344   0.201  0.5829 -0.5642  0.7398
   61MOL   C23019550   2.908   0.439   0.299 -0.2053 -0.7184  0.1762
   61MOL   C23119551   3.243   0.173   0.035  0.1913  0.2078  0.3176
   61MOL   H23219552   3.085   0.045   0.122  1.2659 -1.7534  1.8345
   61MOL   H23319553   2.846   0.144   0.126 -0.6903  1.4995 -0.5259
   61MOL   H23419554   2.928   0.155   0.268 -1.2672  0.0130  0.7715
   61MOL   H23519555   2.735   0.307   0.243 -0.6739  0.1946 -1.3654
   61MOL   H23619556   2.807   0.385   0.103 -0.4787  1.3079  1.7323
   61MOL   H23719557   2.887   0.415   0.403 -0.5371 -2.9144 -0.3617
   61MOL   H23819558   2.876   0.540   0.273  0.8779 -0.9001 -1.9636
   61MOL   H23919559   3.013   0.439   0.272 -0.5876  1.1903 -1.4204
   61MOL   H24019560   3.261   0.280   0.034 -2.7483  0.7430 -1.7541
   61MOL   H24119561   3.343   0.138   0.059 -0.4516  0.6215  3.9854
   61MOL   C24219562   3.216   0.131   7.718 -0.0204  0.4605  0.7413
   61MOL   O24319563   3.189   7.814   7.715 -0.0300  0.2321  0.3734
   61MOL   C24419564   3.310   7.736   7.707  0.4018  0.3554 -0.0224
   61MOL   C24519565   3.375   7.744   7.573  0.6475 -0.5126 -0.8307
   61MOL   C24619566   3.277   7.708   7.462 -1.4779 -0.5619  0.2072
   61MOL   C24719567   3.078   0.169   7.660  0.6095 -0.0727  0.4577
   61MOL   H24819568   3.299   0.158   7.653 -0.2169 -1.0733 -0.1999
   61MOL   H24919569   3.380   7.773   7.781  0.7186  1.3173 -0.7944
   61MOL   H25019570   3.285   7.634   7.737  0.2002  1.1200  2.5245
   61MOL   H25119571   3.468   7.688   7.575  0.5470 -0.6649  1.9232
   61MOL   H25219572   3.411   0.017   7.550  1.6409 -0.6797 -0.0286
   61MOL   H25319573   3.328   7.679   7.370 -1.3398 -1.8863  0.6833
   61MOL   H25419574   3.208   7.792   7.453 -2.2339 -0.9794  1.9602
   61MOL   H25519575   3.229   7.615   7.491  0.3001 -1.3213  0.7651
   61MOL   H25619576   3.062   0.114   7.567  3.0481  0.3699 -0.2560
   61MOL   H25719577   2.997   0.127   7.721 -0.4666  0.9684 -0.2380
   61MOL   C25819578   3.066   0.319   7.647  0.0370 -0.5333  0.3191
   61MOL   O25919579   3.156   0.358   7.538 -0.0858 -0.4808  0.3393
   61MOL   C26019580   3.257   0.449   7.575 -0.0189  0.2495  0.2528
   61MOL   C26119581   3.336   0.479   7.446 -0.1951 -0.8822 -0.5232
   61MOL   C26219582   3.446   0.588   7.455  0.1796 -0.3929  0.1420
   61MOL   C26319583   2.924   0.345   7.595 -0.2399 -0.0748  0.3064
   61MOL   H26419584   3.084   0.378   7.736  0.1254  2.8217 -1.8172
   61MOL   H26519585   3.213   0.545   7.602  2.3186  1.3246  0.3641
   61MOL   H26619586   3.319   0.411   7.656 -0.7385  0.3799  0.8701
   61MOL   H26719587   3.261   0.486   7.367 -0.6600 -0.5426 -0.0544
   61MOL   H26819588   3.380   0.385   7.413  0.6662 -1.2904  1.6946
   61MOL   H26919589   3.414   0.686   7.491  0.5505 -0.5041  0.7798
   61MOL   H27019590   3.493   0.598   7.357  4.4045  0.1342  2.1016
   61MOL   H27119591   3.531   0.571   7.522  0.3460  0.4952  0.1594
   61MOL   H27219592   2.902   0.282   7.509 -2.7120 -1.5168  1.9186
   61MOL   H27319593   2.862   0.321   7.681 -0.5667 -1.1025 -0.2130
   61MOL   C27419594   2.905   0.492   7.543 -0.4185 -0.0081 -0.0608
   61MOL   O27519595   2.779   0.494   7.480 -0.3650  0.4858  0.6633
   61MOL   C27619596   2.770   0.435   7.352 -0.6355  0.1245 -0.1215
   61MOL   C27719597   2.842   0.517   7.240  0.6058  0.0274  0.8033
   61MOL   C27819598   2.828   0.443   7.101 -0.8477  0.6918  0.1173
   61MOL   C27919599   2.903   0.595   7.659  0.7159  0.7072  0.0625
   61MOL   H28019600   2.990   0.521   7.481 -0.7670  0.1980 -0.4475
   61MOL   H28119601   2.800   0.330   7.357  3.4357  1.2357  0.8873
   61MOL   H28219602   2.663   0.447   7.333 -0.7089 -2.0232 -1.1861
   61MOL   H28319603   2.950   0.525   7.253  0.5944  2.3046 -0.3530
   61MOL   H28419604   2.793   0.614   7.232 -0.2884 -0.3852  1.2608
   61MOL   H28519605   2.873   0.515   7.033  1.7897 -0.8162  0.1625
   61MOL   H28619606   2.723   0.432   7.074 -0.3816 -0.3003 -1.3527
   61MOL   H28719607   2.877   0.346   7.091 -4.4203 -1.2778  0.7674
   61MOL   H28819608   2.838   0.553   7.735  0.4192 -1.2271 -1.2266
   61MOL   H28919609   3.000   0.604   7.709  1.8252  3.0426 -2.3733
   61MOL   C29019610   2.860   0.737   7.622 -0.1392 -0.2483  0.0274
   61MOL   O29119611   2.866   0.823   7.738  0.5215  0.6076 -0.1068
   61MOL   C29219612   2.750   0.818   7.823 -0.3150  0.6644  0.7592
   61MOL   C29319613   2.761   0.898   0.129 -0.4285 -1.3143 -0.2329
   61MOL   C29419614   2.856   0.846   0.228 -0.0423 -0.1987 -0.4237
   61MOL   C29519615   2.969   0.794   7.536  0.3260  0.0990  0.3126
   61MOL   H29619616   2.768   0.747   7.564 -0.6546 -2.8281  0.3322
   61MOL   H29719617   2.658   0.853   7.777  0.7258  0.8039 -1.2913
   61MOL   H29819618   2.730   0.716   0.026 -1.1778  0.5309 -0.2275
   61MOL   H29919619   2.663   0.919   0.172  0.1362  0.7733  0.1193
   61MOL   H30019620   2.800   0.995   0.097  1.0504 -1.5019  0.9764
   61MOL   H30119621   2.880   0.919   0.306  3.8802 -1.0132 -0.7442
   61MOL   H30219622   2.949   0.821   0.176  0.8238  1.7574  0.1354
   61MOL   H30319623   2.825   0.754   0.278 -1.1573 -0.1253 -0.9810
   61MOL   H30419624   3.066   0.794   7.587 -0.6310 -0.3726  2.1657
   61MOL   H30519625   2.981   0.729   7.449 -1.4304 -1.4760  1.2311
   61MOL   C30619626   2.944   0.936   7.474  0.1709  0.6391  0.0932
   61MOL   O30719627   3.060   0.990   7.425 -0.1719 -0.3038 -0.1759
   61MOL   C30819628   3.143   1.055   7.526  0.0572 -0.1658  0.1419
   61MOL   C30919629   3.255   1.132   7.451 -0.0070 -0.6393  0.7885
   61MOL   C31019630   3.359   1.198   7.543  0.5491 -0.4324 -0.4213
   61MOL   C31119631   2.835   0.923   7.360 -0.5967  0.1628  0.2979
   61MOL   H31219632   2.905   1.013   7.541 -1.6741  0.0390 -0.2477
   61MOL   H31319633   3.090   1.129   7.586 -1.7312 -1.1082 -0.2505
   61MOL   H31419634   3.189   0.972   7.581  0.9926  0.4279  0.2642
   61MOL   H31519635   3.225   1.207   7.378  1.7431 -0.1080  0.5937
   61MOL   H31619636   3.308   1.062   7.387 -2.2573 -2.9551  1.3783
   61MOL   H31719637   3.418   1.274   7.492  0.5058  0.0341  0.2161
   61MOL   H31819638   3.424   1.125   7.590  0.9454  0.7467  0.8831
   61MOL   H31919639   3.310   1.253   7.623 -0.8186 -0.4824 -1.2201
   61MOL   H32019640   2.737   0.887   7.389 -1.3152  1.4117 -0.5150
   61MOL   H32119641   2.829   1.020   7.310  0.8559  0.1090 -0.0035
   61MOL   H32219642   2.872   0.842   7.298  0.5848  0.3228  0.7702
   62MOL     C119643   1.149   0.028   4.575 -0.2452 -0.0476  0.0601
   62MOL     O219644   1.267   7.806   4.642 -0.0810  0.0170 -0.0981
   62MOL     C319645   1.316   0.076   4.737 -0.4370  0.9358 -0.8226
   62MOL     C419646   1.284   0.040   4.875 -0.2188 -0.0838 -0.0163
   62MOL     C519647   1.352   0.119   4.987 -0.1077 -0.2777  0.7185
   62MOL     C619648   1.080   7.723   4.534 -0.1476 -0.4918  0.4045
   62MOL     H719649   1.176   0.088   4.488  1.2994  1.8691  1.8128
   62MOL     H819650   1.421   0.071   4.709 -0.0943  0.7003  0.4668
   62MOL     H919651   1.279   0.176   4.716  0.7082  1.7055  0.7599
   62MOL    H1019652   1.302   7.761   4.888  0.5412 -0.3310 -2.7725
   62MOL    H1119653   1.175   0.049   4.877 -0.1784  1.1381 -2.1092
   62MOL    H1219654   1.461   0.121   4.979 -0.1814  0.8179 -0.1627
   62MOL    H1319655   1.309   0.071   5.075  0.0713  0.3007  1.1295
   62MOL    H1419656   1.319   0.223   4.991 -1.5538 -0.6708 -0.5037
   62MOL    H1519657   1.150   7.665   4.474 -0.8103 -0.9225  0.0494
   62MOL    H1619658   1.051   7.654   4.613  0.2877 -0.8531  0.2520
   62MOL    H1719659   1.078   0.082   4.637 -0.2286 -1.3478  1.2447
   62MOL    C1819660   0.959   7.753   4.458 -0.2704  0.4336  0.0881
   62MOL    O1919661   0.923   7.625   4.402  0.0720  0.3870  0.0192
   62MOL    C2019662   0.956   7.605   4.265 -0.8472 -0.2081  0.3468
   62MOL    C2119663   0.860   7.679   4.166  0.2054 -0.1353  0.3550
   62MOL    C2219664   0.881   7.623   4.023  0.6217 -0.4498 -0.1426
   62MOL    C2319665   0.844   7.795   4.550 -0.3048  0.1533  0.1138
   62MOL    H2419666   0.984   7.824   4.379  3.2720 -1.1399 -0.3109
   62MOL    H2519667   1.058   7.635   4.240 -1.4051  0.8931 -0.6439
   62MOL    H2619668   0.958   7.497   4.249 -3.1828 -0.3297  0.7052
   62MOL    H2719669   0.859   7.788   4.162 -2.1279 -0.1775 -1.2425
   62MOL    H2819670   0.760   7.658   4.205 -0.0347 -0.5553 -0.4794
   62MOL    H2919671   0.817   7.670   3.948  0.7907 -0.9805 -0.6244
   62MOL    H3019672   0.880   7.514   4.017 -1.8505 -0.4325 -0.9844
   62MOL    H3119673   0.975   7.658   3.980 -0.0940  1.3086 -0.3260
   62MOL    H3219674   0.830   7.705   4.609 -0.5171 -0.6934 -1.2023
   62MOL    H3319675   0.870   0.049   4.616 -0.8985  0.6385 -0.2471
   62MOL    C3419676   0.724   0.017   4.464 -0.3778  0.2801 -0.0117
   62MOL    O3519677   0.605   0.003   4.540 -0.6672  0.2287 -0.0776
   62MOL    C3619678   0.551   7.700   4.551 -0.0628  0.0777 -0.0874
   62MOL    C3719679   0.419   7.712   4.622 -0.1503 -0.1867  0.0988
   62MOL    C3819680   0.342   7.581   4.617  1.0327  0.0009 -0.3570
   62MOL    C3919681   0.749   0.165   4.429  0.2736 -0.1349 -0.0406
   62MOL    H4019682   0.723   7.777   4.378  1.7080  1.0627 -0.6941
   62MOL    H4119683   0.539   7.663   4.449 -2.0916 -0.8944  0.4831
   62MOL    H4219684   0.616   7.636   4.611  0.1587  0.8958  0.5442
   62MOL    H4319685   0.364   7.802   4.597  2.8426  1.4472 -0.8797
   62MOL    H4419686   0.450   7.742   4.722  1.1439 -0.2232 -0.2852
   62MOL    H4519687   0.407   7.494   4.603 -1.5513 -2.0055 -0.4060
   62MOL    H4619688   0.277   7.575   4.530  2.9143 -2.7212 -1.6619
   62MOL    H4719689   0.286   7.569   4.710  1.5998  2.8040  0.3768
   62MOL    H4819690   0.774   0.231   4.512 -0.0709  0.7658 -0.6438
   62MOL    H4919691   0.836   0.174   4.365 -0.0506  0.2375 -0.4363
   62MOL    C5019692   0.630   0.239   4.354  0.4264 -0.7786  0.0383
   62MOL    O5119693   0.655   0.379   4.340 -0.0757 -0.1524  0.1936
   62MOL    C5219694   0.562   0.461   4.402  0.1918  0.5232  0.6245
   62MOL    C5319695   0.608   0.605   4.382 -0.1372  0.2504  0.1215
   62MOL    C5419696   0.651   0.639   4.242 -0.0964 -0.5713 -0.5703
   62MOL    C5519697   0.624   0.189   4.209 -0.1504  0.2664 -0.2790
   62MOL    H5619698   0.536   0.221   4.406 -0.1554  0.2605 -0.6185
   62MOL    H5719699   0.463   0.449   4.357 -0.1104  1.0181  1.1534
   62MOL    H5819700   0.555   0.443   4.509  4.3281 -0.0651  0.8852
   62MOL    H5919701   0.693   0.613   4.450  0.8893  0.8767 -1.2143
   62MOL    H6019702   0.533   0.673   4.422 -2.0874  0.1105 -3.1461
   62MOL    H6119703   0.656   0.748   4.244 -0.5952 -0.5587 -0.0461
   62MOL    H6219704   0.561   0.616   4.185 -0.8785  2.6486 -0.7029
   62MOL    H6319705   0.730   0.577   4.200 -0.0041 -3.2666  3.3469
   62MOL    H6419706   0.706   0.236   4.153 -0.0840 -0.8797 -1.1609
   62MOL    H6519707   0.641   0.082   4.201 -0.2272  0.3339 -1.5037
   62MOL    C6619708   0.492   0.213   4.138  0.4547 -0.0752 -0.4631
   62MOL    O6719709   0.516   0.245   4.002 -0.1600 -0.1959  0.1433
   62MOL    C6819710   0.571   0.366   3.971  0.4193  0.4810  0.4438
   62MOL    C6919711   0.465   0.473   3.964 -0.3865 -0.3148  0.0310
   62MOL    C7019712   0.505   0.599   3.878  0.4669  0.0346  0.0370
   62MOL    C7119713   0.403   0.088   4.136 -0.3032 -0.1481 -0.2250
   62MOL    H7219714   0.443   0.298   4.186  1.5148 -1.0056  2.3175
   62MOL    H7319715   0.656   0.400   4.031  0.5831  1.9786 -0.6303
   62MOL    H7419716   0.613   0.348   3.872 -1.0877 -2.2661  0.2343
   62MOL    H7519717   0.424   0.496   4.062  1.8107 -0.9251  1.1313
   62MOL    H7619718   0.375   0.430   3.920 -0.8738 -0.1472  0.8630
   62MOL    H7719719   0.433   0.675   3.911  0.0497 -1.2645  2.2291
   62MOL    H7819720   0.498   0.577   3.771  1.1596 -0.7984  0.1643
   62MOL    H7919721   0.604   0.635   3.902  0.2974 -0.2487  1.1930
   62MOL    H8019722   0.327   0.105   4.059  0.3714 -0.1794 -0.8948
   62MOL    H8119723   0.455   0.008   4.083 -1.6042 -0.7770 -0.5750
   62MOL    C8219724   0.334   0.047   4.265 -0.1824  0.1138 -0.3277
   62MOL    O8319725   0.250   0.153   4.310 -0.0599 -0.2477 -0.3510
   62MOL    C8419726   0.244   0.162   4.452 -0.5277  0.2170  0.3867
   62MOL    C8519727   0.134   0.256   4.502  0.2428 -0.8207  0.0760
   62MOL    C8619728   0.132   0.393   4.443 -0.1202 -0.3460 -0.0444
   62MOL    C8719729   0.243   7.751   4.244  0.3205  0.9037  0.5175
   62MOL    H8819730   0.410   0.020   4.338 -0.7514 -0.0262  0.2140
   62MOL    H8919731   0.222   0.066   4.499 -1.2316  0.4286  0.5090
   62MOL    H9019732   0.339   0.195   4.494  1.2357 -2.1326 -1.6514
   62MOL    H9119733   0.135   0.262   4.611 -1.8833 -1.4106  0.1482
   62MOL    H9219734   0.037   0.217   4.471  0.5462 -0.7242 -1.0142
   62MOL    H9319735   0.049   0.457   4.472  1.0472  0.3311  1.8978
   62MOL    H9419736   0.117   0.375   4.337  0.3777  0.4957 -0.2569
   62MOL    H9519737   0.227   0.445   4.454 -0.7391  1.1149 -1.3507
   62MOL    H9619738   0.198   7.740   4.342 -1.8578 -0.4210 -0.5740
   62MOL    H9719739   0.164   7.778   4.173 -1.6807 -0.2365  2.2430
   62MOL    C9819740   0.302   7.616   4.181  0.6793  0.0957 -0.2850
   62MOL    O9919741   0.405   7.557   4.264  0.5046 -0.6663  0.4507
   62MOL   C10019742   0.491   7.472   4.186  0.1719 -0.2265  0.0121
   62MOL   C10119743   0.600   7.401   4.270 -0.2621 -0.4344 -0.1011
   62MOL   C10219744   0.659   7.273   4.205  0.0636 -0.7261  0.4120
   62MOL   C10319745   0.185   7.508   4.155 -0.1510  0.2610 -0.9167
   62MOL   H10419746   0.343   7.635   4.082  0.6397 -4.5168 -1.2719
   62MOL   H10519747   0.432   7.395   4.137  1.0883 -0.0649 -1.3604
   62MOL   H10619748   0.541   7.529   4.109 -0.4988  0.6620  0.2317
   62MOL   H10719749   0.564   7.380   4.371 -0.0537 -0.2974  0.0039
   62MOL   H10819750   0.682   7.472   4.285 -0.7923  0.6840 -2.3493
   62MOL   H10919751   0.713   7.220   4.283 -1.5811 -0.2616  1.9086
   62MOL   H11019752   0.727   7.300   4.124 -1.0722 -2.2953 -1.1175
   62MOL   H11119753   0.583   7.205   4.165  0.6375 -2.5776  2.4015
   62MOL   H11219754   0.118   7.540   4.076 -1.2359 -1.1304 -0.5899
   62MOL   H11319755   0.228   7.414   4.120  0.3685  0.4138 -0.6982
   62MOL   C11419756   0.088   7.475   4.275  0.0161  0.7523  0.1908
   62MOL   O11519757   7.823   7.579   4.280  0.3947 -0.5594 -0.2678
   62MOL   C11619758   7.763   7.606   4.408 -0.3830 -0.1962 -0.5326
   62MOL   C11719759   7.680   7.736   4.405 -0.2373  0.0549  0.5043
   62MOL   C11819760   7.563   7.724   4.304 -0.5964  0.0644 -0.2484
   62MOL   C11919761   0.004   7.339   4.261 -0.0773  0.0718 -0.2577
   62MOL   H12019762   0.149   7.483   4.365 -0.4014 -0.1491  0.5632
   62MOL   H12119763   7.689   7.531   4.437 -0.6482 -0.4800 -1.9027
   62MOL   H12219764   0.018   7.615   4.477  0.7725 -0.6615 -1.8369
   62MOL   H12319765   7.732   7.823   4.364  1.9136 -1.3772  0.1185
   62MOL   H12419766   7.643   7.763   4.504 -0.7155 -1.3263  0.7083
   62MOL   H12519767   7.495   7.808   4.290 -2.7620 -1.5010  0.4651
   62MOL   H12619768   7.494   7.641   4.319  0.3905 -0.7495 -0.1848
   62MOL   H12719769   7.613   7.703   4.209  0.2628 -1.8721  0.6025
   62MOL   H12819770   7.739   7.343   4.317  0.6800  0.1030  1.0257
   62MOL   H12919771   7.805   7.333   4.156 -0.1864 -3.1165 -0.0866
   62MOL   C13019772   0.071   7.211   4.311 -0.0591 -0.0745 -0.2948
   62MOL   O13119773   7.801   7.102   4.328  0.2985 -0.0810 -0.5381
   62MOL   C13219774   7.733   7.109   4.457 -0.1410  0.4992  0.0460
   62MOL   C13319775   7.636   6.985   4.486 -0.2399  0.4747 -0.0886
   62MOL   C13419776   7.517   6.985   4.391  0.5138  0.3694  0.0579
   62MOL   C13519777   0.180   7.148   4.216 -0.1129 -0.6693  0.8341
   62MOL   H13619778   0.120   7.234   4.405 -2.7972  2.3012  0.6301
   62MOL   H13719779   7.812   7.102   4.531  1.6565 -1.3496 -1.9603
   62MOL   H13819780   7.672   7.198   4.470 -0.5941  0.0904  0.7536
   62MOL   H13919781   7.595   6.997   4.586  0.1824 -1.0235  0.2745
   62MOL   H14019782   7.690   6.891   4.476 -0.9265 -0.1912  2.1856
   62MOL   H14119783   7.440   7.062   4.397 -0.3910 -0.5969  0.9577
   62MOL   H14219784   7.450   6.900   4.393 -0.9339  1.4935 -0.3186
   62MOL   H14319785   7.556   6.988   4.289 -0.8320  0.1453 -0.4747
   62MOL   H14419786   0.135   7.127   4.119  1.1607  0.0057  0.0771
   62MOL   H14519787   0.253   7.225   4.190 -1.1612 -0.3261 -1.2166
   62MOL   C14619788   0.256   7.021   4.280 -0.7411  0.3805 -0.0932
   62MOL   O14719789   0.350   6.957   4.192  0.0789 -0.1288 -0.0292
   62MOL   C14819790   0.284   6.861   4.100 -0.2832  0.3745  0.3739
   62MOL   C14919791   0.390   6.798   4.008 -0.0931 -0.3356  0.0041
   62MOL   C15019792   0.437   6.889   3.897 -0.1049 -0.0927  0.3818
   62MOL   C15119793   0.357   7.051   4.391  0.6501  0.1076 -0.1261
   62MOL   H15219794   0.194   6.942   4.322  0.7115 -0.9859 -0.4616
   62MOL   H15319795   0.244   6.782   4.164 -0.6034 -2.5155 -3.2312
   62MOL   H15419796   0.204   6.908   4.042  0.3475  2.6710  1.3155
   62MOL   H15519797   0.330   6.719   3.964 -2.4038  0.4172  1.6756
   62MOL   H15619798   0.465   6.738   4.059  1.2456  0.1098 -1.4324
   62MOL   H15719799   0.363   6.883   3.817  1.1167  0.8052 -0.8555
   62MOL   H15819800   0.532   6.874   3.845 -0.0600  0.4516  0.3053
   62MOL   H15919801   0.428   6.991   3.934 -1.9801  0.1782 -0.7380
   62MOL   H16019802   0.436   7.117   4.353 -0.1180  0.8140 -0.5191
   62MOL   H16119803   0.309   7.112   4.468 -0.3062  0.9842 -1.3873
   62MOL   C16219804   0.418   6.921   4.457  0.2391  0.0720 -0.7708
   62MOL   O16319805   0.538   6.949   4.520 -0.1719  0.5263 -0.1814
   62MOL   C16419806   0.649   6.954   4.439  0.1381 -0.1239 -0.5084
   62MOL   C16519807   0.774   6.992   4.525  0.6713 -0.1965  0.7188
   62MOL   C16619808   0.740   7.127   4.592  0.0611 -0.4062 -0.8915
   62MOL   C16719809   0.330   6.885   4.579 -0.0847 -0.2209 -0.3851
   62MOL   H16819810   0.430   6.844   4.381 -0.0370 -1.5565  0.8108
   62MOL   H16919811   0.668   6.854   4.400  2.7107  0.2884 -0.4305
   62MOL   H17019812   0.632   7.014   4.349 -1.9431 -1.9551 -1.3917
   62MOL   H17119813   0.863   7.004   4.463  0.4062 -2.5286 -0.1407
   62MOL   H17219814   0.785   6.918   4.604  0.3575 -1.0885 -0.0593
   62MOL   H17319815   0.644   7.123   4.645 -0.6909 -0.0592 -2.2074
   62MOL   H17419816   0.728   7.198   4.511 -2.0860 -1.9685 -2.0134
   62MOL   H17519817   0.813   7.163   4.664  0.8820  0.9037 -2.3707
   62MOL   H17619818   0.342   6.964   4.653 -1.2983 -1.6009  1.3422
   62MOL   H17719819   0.226   6.897   4.548  0.0091 -0.5677 -0.8441
   62MOL   C17819820   0.354   6.739   4.634 -0.0916 -0.3806 -0.9244
   62MOL   O17919821   0.301   6.736   4.766  0.0402  0.1995  0.0893
   62MOL   C18019822   0.415   6.750   4.856  0.3055  0.0329 -0.2441
   62MOL   C18119823   0.470   6.609   4.903  0.0854  0.4841  0.3318
   62MOL   C18219824   0.374   6.530   4.996  0.1251 -0.0870 -0.0907
   62MOL   C18319825   0.262   6.635   4.563  0.8804 -0.0226 -0.3963
   62MOL   H18419826   0.462   6.728   4.624  0.2306  1.6411  0.0324
   62MOL   H18519827   0.494   6.814   4.816 -0.1936 -0.1322 -1.5150
   62MOL   H18619828   0.367   6.811   4.932 -1.0802  1.4855 -2.2491
   62MOL   H18719829   0.560   6.632   4.960 -0.7058 -1.3422  2.4135
   62MOL   H18819830   0.500   6.553   4.815 -0.3670  0.1064  0.4170
   62MOL   H18919831   0.299   6.485   4.931 -1.1006 -1.0514  1.9557
   62MOL   H19019832   0.346   6.591   5.082  0.3211  0.0534 -0.1269
   62MOL   H19119833   0.430   6.446   5.036  1.8461  0.7477 -0.7080
   62MOL   H19219834   0.243   6.566   4.645  1.1629  2.2622  1.6607
   62MOL   H19319835   0.163   6.682   4.556  0.9993  0.6350  1.7696
   62MOL   C19419836   0.308   6.574   4.431  0.1581  0.6296  0.7196
   62MOL   O19519837   0.437   6.525   4.462  0.0342  0.0853  0.2087
   62MOL   C19619838   0.530   6.561   4.359  0.0049  0.1303  1.0576
   62MOL   C19719839   0.647   6.471   4.381 -0.2617 -0.4641 -0.0149
   62MOL   C19819840   0.612   6.327   4.335 -0.2445 -0.7279  0.3542
   62MOL   C19919841   0.223   6.445   4.396 -0.2042  0.6315  0.0433
   62MOL   H20019842   0.316   6.648   4.352 -2.6861  1.7539  1.4069
   62MOL   H20119843   0.485   6.543   4.262 -0.0485 -0.7370  1.2376
   62MOL   H20219844   0.549   6.667   4.376 -0.0468  0.5268 -1.2399
   62MOL   H20319845   0.677   6.465   4.485 -0.0016  2.1794  0.1029
   62MOL   H20419846   0.735   6.507   4.328  0.0816 -2.3975 -0.7906
   62MOL   H20519847   0.695   6.266   4.370  0.7260 -0.1842 -0.9754
   62MOL   H20619848   0.592   6.320   4.228 -0.1997  3.0545  0.0102
   62MOL   H20719849   0.526   6.287   4.390  0.4114  0.0472  1.9950
   62MOL   H20819850   0.257   6.389   4.309  0.1863 -0.9909  1.2090
   62MOL   H20919851   0.230   6.369   4.474 -1.3750 -0.2642 -0.6997
   62MOL   C21019852   0.070   6.487   4.380 -0.1371 -0.8510  0.2705
   62MOL   O21119853   0.060   6.570   4.261 -0.3371 -0.1600  0.2876
   62MOL   C21219854   7.801   6.686   4.276 -0.0180  0.0618 -0.0493
   62MOL   C21319855   7.760   6.722   4.131  0.6400  0.5679  0.0578
   62MOL   C21419856   7.652   6.629   4.076  0.6207  0.2039 -0.1978
   62MOL   C21519857   7.796   6.375   4.362  0.4893  0.2930  0.7354
   62MOL   H21619858   0.041   6.551   4.464  1.5586  1.0851 -0.5511
   62MOL   H21719859   7.714   6.660   4.336 -0.8341  0.9976 -0.8012
   62MOL   H21819860   0.031   6.764   4.324 -1.2086  1.2242 -0.4918
   62MOL   H21919861   0.015   6.730   4.059  0.6518  0.9205  0.1090
   62MOL   H22019862   7.735   6.828   4.135  1.3036  0.7941 -1.4139
   62MOL   H22119863   7.577   6.608   4.151  0.2011 -1.5594 -1.1030
   62MOL   H22219864   7.694   6.531   4.054 -0.2242  0.3183 -2.3649
   62MOL   H22319865   7.614   6.663   3.980  0.8262  2.6423  0.5431
   62MOL   H22419866   7.698   6.414   4.335  0.9616  0.5205 -0.7294
   62MOL   H22519867   7.815   6.325   4.267 -1.6026 -0.5391  0.7257
   62MOL   C22619868   7.785   6.275   4.471 -0.5909  0.5408  0.0687
   62MOL   O22719869   7.782   6.337   4.593 -0.8422  0.3819  0.0190
   62MOL   C22819870   0.019   6.269   4.700 -0.4761 -0.4534  0.5289
   62MOL   C22919871   0.023   6.383   4.810 -0.1701  0.7557  0.4916
   62MOL   C23019872   7.709   6.413   4.865  0.1576  0.3891  0.2936
   62MOL   C23119873   7.680   6.168   4.463  0.1635  0.6757  0.2878
   62MOL   H23219874   0.051   6.219   4.467 -0.8904 -0.0870  1.7759
   62MOL   H23319875   7.788   6.186   4.739 -3.5511  1.1972 -0.4890
   62MOL   H23419876   0.118   6.236   4.668 -1.2019 -0.4249 -1.8174
   62MOL   H23519877   0.051   6.473   4.755  1.0084  0.2163  0.2071
   62MOL   H23619878   0.100   6.361   4.883 -1.6719 -1.9209  1.3298
   62MOL   H23719879   7.710   6.465   4.960 -0.7345 -0.0845  0.5618
   62MOL   H23819880   7.661   6.320   4.895  0.6561 -0.2158 -0.7561
   62MOL   H23919881   7.638   6.462   4.799 -1.0872 -0.8117  0.7231
   62MOL   H24019882   7.701   6.094   4.541  0.3522 -0.8632 -1.1950
   62MOL   H24119883   7.580   6.207   4.478  0.3735  0.5973  2.0096
   62MOL   C24219884   7.675   6.078   4.333  0.2199  0.0660 -0.1906
   62MOL   O24319885   7.788   5.994   4.324 -0.1750 -0.4967  0.4451
   62MOL   C24419886   7.812   5.954   4.191  0.2026 -0.1574 -0.0421
   62MOL   C24519887   0.132   5.912   4.170 -0.3621  0.7711 -0.3668
   62MOL   C24619888   0.226   6.028   4.174  0.3173 -0.4420 -1.2565
   62MOL   C24719889   7.543   5.991   4.329  0.3281  0.2822  0.1911
   62MOL   H24819890   7.670   6.147   4.248 -0.1729 -0.2412 -0.4226
   62MOL   H24919891   7.760   5.860   4.172  0.7708 -0.1881 -1.5492
   62MOL   H25019892   7.780   6.020   4.111 -1.4365 -1.6275 -0.6556
   62MOL   H25119893   0.153   5.867   4.073  1.7292 -1.3001  0.9833
   62MOL   H25219894   0.149   5.831   4.240  0.0446 -0.4280 -1.8306
   62MOL   H25319895   0.242   6.061   4.277 -1.3193 -3.1185 -0.0900
   62MOL   H25419896   0.186   6.114   4.121 -2.0122 -0.3728  0.5450
   62MOL   H25519897   0.315   5.998   4.119  1.2543  1.3951 -0.7981
   62MOL   H25619898   7.545   5.920   4.246 -0.1236  1.1425 -0.5584
   62MOL   H25719899   7.534   5.931   4.419  2.1351 -1.4308 -0.7317
   62MOL   C25819900   7.405   6.064   4.323  0.2218  0.2295  0.7604
   62MOL   O25919901   7.424   6.137   4.199 -0.2567  0.0713 -0.7809
   62MOL   C26019902   7.336   6.245   4.177 -0.5476 -0.2369  0.5424
   62MOL   C26119903   7.415   6.361   4.107  0.5038 -0.0764 -0.4148
   62MOL   C26219904   7.440   6.333   3.963 -1.0104  0.3178  0.7545
   62MOL   C26319905   7.285   5.967   4.299 -0.6376 -0.3716  0.1961
   62MOL   H26419906   7.391   6.143   4.395  1.0452 -0.2520  1.4554
   62MOL   H26519907   7.267   6.199   4.106 -0.8736  1.4262 -0.2305
   62MOL   H26619908   7.282   6.283   4.264 -0.7133 -0.9553  0.7645
   62MOL   H26719909   7.507   6.384   4.160 -0.9882 -1.3925  2.8735
   62MOL   H26819910   7.360   6.452   4.132 -0.3458 -0.4263 -0.9704
   62MOL   H26919911   7.518   6.392   3.914 -1.8439 -0.4377 -1.5362
   62MOL   H27019912   7.353   6.335   3.898 -1.0430 -0.6970  0.7537
   62MOL   H27119913   7.468   6.228   3.952  0.5206  0.7096  0.7364
   62MOL   H27219914   7.204   6.023   4.251  0.8326  1.2928 -0.4006
   62MOL   H27319915   7.314   5.887   4.231  3.0220 -1.9015  3.4001
   62MOL   C27419916   7.223   5.905   4.422 -0.3274 -0.5352 -0.1766
   62MOL   O27519917   7.314   5.822   4.489 -0.0618 -0.3026  0.1507
   62MOL   C27619918   7.346   5.697   4.427  0.0052  0.4628 -0.4252
   62MOL   C27719919   7.292   5.581   4.503 -0.5002 -0.5900  0.3338
   62MOL   C27819920   7.291   5.459   4.419  0.2549 -0.1958  0.7584
   62MOL   C27919921   7.163   6.013   4.512 -0.1950 -0.7622 -0.1957
   62MOL   H28019922   7.142   5.845   4.380 -0.1422  0.0749 -1.4510
   62MOL   H28119923   7.312   5.695   4.324 -1.1983  0.2025 -0.0276
   62MOL   H28219924   7.452   5.689   4.404  0.0445  0.5432 -0.2717
   62MOL   H28319925   7.195   5.604   4.546  1.3575  2.3527  3.2052
   62MOL   H28419926   7.353   5.563   4.591 -0.9197 -2.2972  0.2943
   62MOL   H28519927   7.341   5.473   4.324 -2.8272 -1.8370 -1.1762
   62MOL   H28619928   7.184   5.448   4.401 -0.0190  2.2621  0.7415
   62MOL   H28719929   7.323   5.370   4.473 -0.6356 -1.8495 -1.3810
   62MOL   H28819930   7.243   6.086   4.527 -0.1651 -0.9947  0.8250
   62MOL   H28919931   7.080   6.053   4.455 -1.3592 -0.4630  1.6708
   62MOL   C29019932   7.117   5.985   4.655  1.1405 -0.0845 -0.2465
   62MOL   O29119933   7.072   6.101   4.722  0.2341 -0.1001 -0.2369
   62MOL   C29219934   7.160   6.210   4.740  0.0634  0.3772  0.6666
   62MOL   C29319935   7.123   6.293   4.852  0.0913  0.4060  0.3310
   62MOL   C29419936   7.216   6.416   4.865  0.2939  0.4321  0.9279
   62MOL   C29519937   6.995   5.882   4.649  0.4717  0.5299 -0.2671
   62MOL   H29619938   7.194   5.932   4.711  1.6666  0.4349 -0.4697
   62MOL   H29719939   7.262   6.176   4.759 -0.0839  0.9176  2.5053
   62MOL   H29819940   7.161   6.272   4.650  1.5574  0.5457  0.7878
   62MOL   H29919941   7.133   6.224   4.936 -1.1588 -0.2596 -0.0470
   62MOL   H30019942   7.018   6.323   4.854  0.4552  1.7004  0.6214
   62MOL   H30119943   7.321   6.401   4.890  0.4402 -0.2866 -0.0613
   62MOL   H30219944   7.165   6.487   4.929 -0.5377  0.2980  0.4246
   62MOL   H30319945   7.221   6.476   4.773  3.5607  0.7426  1.2470
   62MOL   H30419946   6.908   5.924   4.598 -0.2927 -1.7754 -0.9228
   62MOL   H30519947   7.010   5.795   4.585  0.8911 -0.6041  1.3142
   62MOL   C30619948   6.947   5.838   4.781  0.2613  0.1798 -0.0793
   62MOL   O30719949   6.821   5.777   4.753 -0.2088  0.0405  0.3122
   62MOL   C30819950   6.710   5.799   4.842  0.8656  0.8110  0.3316
   62MOL   C30919951   6.572   5.750   4.786 -0.9303 -0.2011  0.1366
   62MOL   C31019952   6.448   5.808   4.858 -0.4652  0.4928  0.3867
   62MOL   C31119953   7.039   5.742   4.851  0.3835 -0.1138 -0.0959
   62MOL   H31219954   6.940   5.921   4.851 -1.1776  1.1385 -1.3114
   62MOL   H31319955   6.727   5.760   4.942  0.5723 -1.2782 -0.4047
   62MOL   H31419956   6.690   5.905   4.855 -0.3539  0.6448 -0.0770
   62MOL   H31519957   6.581   5.643   4.804 -0.7100  0.1405  2.2578
   62MOL   H31619958   6.571   5.761   4.678 -0.4247  2.0750  0.3272
   62MOL   H31719959   6.359   5.757   4.822  0.8873 -1.2450 -0.5455
   62MOL   H31819960   6.442   5.917   4.855  1.0479  0.6642  2.2751
   62MOL   H31919961   6.453   5.784   4.965 -1.0103  0.6731  0.4562
   62MOL   H32019962   7.048   5.650   4.793  0.3546 -0.1589 -0.0279
   62MOL   H32119963   7.139   5.785   4.853  0.6756 -0.8017  2.6351
   62MOL   H32219964   7.007   5.722   4.953  2.7212 -0.3600  0.6157
   63MOL     C119965   6.617   4.318   0.422 -0.8521 -0.0370  0.8282
   63MOL     O219966   6.532   4.419   0.354 -0.6875 -0.0091  0.1894
   63MOL     C319967   6.597   4.546   0.342 -0.8833 -0.9815 -0.1131
   63MOL     C419968   6.522   4.660   0.281  0.0154  0.6392 -0.8924
   63MOL     C519969   6.463   4.626   0.144 -0.7653 -0.6001  0.0326
   63MOL     C619970   6.604   4.320   0.573  0.3436 -0.2644  0.0104
   63MOL     H719971   6.721   4.334   0.391 -0.4368 -0.9196  1.7067
   63MOL     H819972   6.607   4.581   0.444 -1.7733 -1.7062  0.2355
   63MOL     H919973   6.695   4.536   0.295 -0.3468  0.4902  0.6686
   63MOL    H1019974   6.596   4.740   0.275 -0.7247  1.4464  0.4734
   63MOL    H1119975   6.440   4.698   0.343 -0.2623  1.6629 -1.8666
   63MOL    H1219976   6.448   4.718   0.087 -0.4288 -1.1117 -0.8978
   63MOL    H1319977   6.369   4.572   0.151 -0.7605 -0.5746  0.3080
   63MOL    H1419978   6.535   4.575   0.080  0.7100  1.0085  0.3529
   63MOL    H1519979   6.661   4.406   0.605  0.9815 -1.2144  1.4931
   63MOL    H1619980   6.499   4.340   0.592  0.5548  0.6421  0.2026
   63MOL    H1719981   6.586   4.225   0.375  1.9958 -0.6335 -0.0127
   63MOL    C1819982   6.643   4.185   0.634  0.4909  0.4094  0.1824
   63MOL    O1919983   6.768   4.153   0.581 -0.1106 -0.1823 -0.9865
   63MOL    C2019984   6.790   4.020   0.545  0.4887 -0.4832  0.6429
   63MOL    C2119985   6.931   4.003   0.494 -0.1314  0.3180 -0.1542
   63MOL    C2219986   7.039   4.063   0.583  0.3513 -0.3305 -0.0801
   63MOL    C2319987   6.651   4.191   0.791 -0.3019 -0.5874 -0.5825
   63MOL    H2419988   6.569   4.105   0.625  0.6629 -0.1922  3.4389
   63MOL    H2519989   6.774   3.961   0.636  0.9412 -0.8909  0.4624
   63MOL    H2619990   6.722   3.982   0.469  0.9167 -2.3029  1.1259
   63MOL    H2719991   6.947   4.053   0.398  0.9844  0.7264  0.2249
   63MOL    H2819992   6.954   3.898   0.481 -3.1667 -0.1694 -1.9838
   63MOL    H2919993   7.025   4.171   0.592  0.3297 -0.2950 -0.5257
   63MOL    H3019994   7.133   4.050   0.530 -0.1093 -0.2452 -0.9398
   63MOL    H3119995   7.041   4.022   0.684 -0.0970  1.6352  0.7675
   63MOL    H3219996   6.686   4.092   0.820 -0.0340 -0.3553 -0.1179
   63MOL    H3319997   6.727   4.265   0.815  0.8187 -1.5178 -1.2152
   63MOL    C3419998   6.512   4.212   0.850 -0.0758  0.5540 -0.2116
   63MOL    O3519999   6.430   4.104   0.811  0.2827 -0.1919  0.3076
   63MOL    C3620000   6.295   4.148   0.789 -0.3821 -0.0049  0.4248
   63MOL    C3720001   6.199   4.035   0.747  0.4152  0.0241  0.3790
   63MOL    C3820002   6.234   3.979   0.604 -0.3299 -0.3409 -1.5492
   63MOL    C3920003   6.522   4.239   0.999  0.6747  0.3043 -0.6606
   63MOL    H4020004   6.465   4.299   0.804 -0.0753  0.1852 -0.9230
   63MOL    H4120005   6.261   4.190   0.883 -0.0627 -0.1243  0.5944
   63MOL    H4220006   6.283   4.229   0.717  0.8703 -0.6790 -0.5700
   63MOL    H4320007   6.100   4.082   0.748 -0.3468 -1.5076 -0.4322
   63MOL    H4420008   6.187   3.955   0.820 -0.4711  0.8948  1.2064
   63MOL    H4520009   6.158   3.909   0.569 -0.1968  0.0602 -2.6661
   63MOL    H4620010   6.334   3.935   0.602 -0.7454 -1.3343 -0.4973
   63MOL    H4720011   6.252   4.054   0.526 -0.6691  1.8880  0.4626
   63MOL    H4820012   6.427   4.216   1.047  0.3185  2.1742 -0.4506
   63MOL    H4920013   6.583   4.156   1.035 -1.4951 -2.0464 -2.2496
   63MOL    C5020014   6.581   4.381   1.038 -0.3122 -0.9305 -0.0972
   63MOL    O5120015   6.510   4.495   0.984  0.0766  0.1243 -0.5460
   63MOL    C5220016   6.373   4.496   1.022 -0.8169 -0.5206  0.0654
   63MOL    C5320017   6.297   4.593   0.920 -0.0443  0.6629  0.0870
   63MOL    C5420018   6.160   4.622   0.954 -0.0562  0.1040  0.0233
   63MOL    C5520019   6.604   4.390   1.189 -0.3676 -0.2967 -0.8030
   63MOL    H5620020   6.672   4.398   0.980 -0.4066 -0.5403 -0.1349
   63MOL    H5720021   6.321   4.400   1.017 -0.8423 -0.4745 -0.6342
   63MOL    H5820022   6.373   4.526   1.126 -1.8453 -1.0872  0.2415
   63MOL    H5920023   6.312   4.547   0.823 -0.0581  2.5822 -0.8513
   63MOL    H6020024   6.362   4.681   0.925  0.5403  0.2516 -0.2216
   63MOL    H6120025   6.099   4.645   0.867  0.0147  2.3858  0.5642
   63MOL    H6220026   6.145   4.704   1.024 -0.3440  0.6335 -0.6603
   63MOL    H6320027   6.107   4.534   0.993  0.5179 -0.6992 -0.9881
   63MOL    H6420028   6.509   4.397   1.241 -1.1615 -1.9738 -1.9599
   63MOL    H6520029   6.651   4.295   1.217 -0.7392 -0.2936 -0.1775
   63MOL    C6620030   6.694   4.513   1.231 -0.0640  0.3912 -0.6656
   63MOL    O6720031   6.678   4.511   1.373  0.0052 -0.1184  0.1350
   63MOL    C6820032   6.701   4.628   1.445 -0.9635 -0.4569 -0.7139
   63MOL    C6920033   6.643   4.607   1.584 -0.0879 -0.5750  0.1269
   63MOL    C7020034   6.488   4.585   1.590 -0.2646  0.4493  0.4220
   63MOL    C7120035   6.838   4.524   1.184  0.1271  0.7416 -0.0901
   63MOL    H7220036   6.639   4.598   1.192 -2.8196 -0.1400  1.8804
   63MOL    H7320037   6.809   4.632   1.457 -0.7850 -0.6691 -2.1695
   63MOL    H7420038   6.666   4.716   1.392  2.3607  1.3550 -0.0515
   63MOL    H7520039   6.677   4.685   1.652 -1.9318  0.8910 -0.5824
   63MOL    H7620040   6.692   4.521   1.629 -0.2361 -0.1566  1.1101
   63MOL    H7720041   6.443   4.564   1.687 -0.1652  0.2319  0.4204
   63MOL    H7820042   6.460   4.496   1.535  3.0039 -0.5076  0.2014
   63MOL    H7920043   6.446   4.670   1.536  0.1762  0.1685 -0.3785
   63MOL    H8020044   6.850   4.514   1.076  2.0580 -3.8883  0.4200
   63MOL    H8120045   6.883   4.619   1.213  2.6251  0.0443 -1.5572
   63MOL    C8220046   6.922   4.411   1.259 -0.1765  0.1356  0.1470
   63MOL    O8320047   6.898   4.290   1.189 -0.1203  0.0660  0.0130
   63MOL    C8420048   6.904   4.173   1.272 -0.0745  0.2128  0.2479
   63MOL    C8520049   6.938   4.051   1.190  0.6742 -0.1209  1.1597
   63MOL    C8620050   6.828   4.014   1.090 -0.2826 -0.2488 -0.1284
   63MOL    C8720051   7.074   4.449   1.238  0.0490 -0.1154  0.1638
   63MOL    H8820052   6.902   4.413   1.366 -0.3846 -1.6956  0.1584
   63MOL    H8920053   6.981   4.189   1.347 -0.3054 -0.5785  0.6537
   63MOL    H9020054   6.810   4.164   1.327 -1.0806  0.6053 -1.3530
   63MOL    H9120055   6.960   3.972   1.261  1.0748 -0.3803  0.7513
   63MOL    H9220056   7.030   4.073   1.136 -1.5417  1.2811 -2.1985
   63MOL    H9320057   6.804   4.095   1.022  4.1546  2.6319  1.4518
   63MOL    H9420058   6.734   3.996   1.141 -0.2547  2.0206  0.8085
   63MOL    H9520059   6.852   3.927   1.031  0.6757  0.3673 -0.6704
   63MOL    H9620060   7.131   4.363   1.201 -0.5938  0.1510 -1.4907
   63MOL    H9720061   7.083   4.516   1.152  1.7376 -1.7999 -1.0226
   63MOL    C9820062   7.139   4.499   1.368  0.0036 -0.2719  0.2678
   63MOL    O9920063   7.128   4.398   1.472 -0.3123  0.4038 -0.2320
   63MOL   C10020064   7.133   4.444   1.608  0.0442  0.7846 -1.1265
   63MOL   C10120065   7.092   4.328   1.699  0.0648  0.1492 -0.8006
   63MOL   C10220066   6.953   4.268   1.677 -0.6916 -0.0562 -0.3540
   63MOL   C10320067   7.280   4.552   1.343  0.6701  0.0502  0.3140
   63MOL   H10420068   7.074   4.582   1.395  0.0874  0.4872 -1.7374
   63MOL   H10520069   7.239   4.460   1.629  0.5148 -2.5092 -0.6727
   63MOL   H10620070   7.069   4.529   1.631 -1.7387  0.2809 -4.0144
   63MOL   H10720071   7.105   4.358   1.803 -0.2446 -1.0060 -0.4237
   63MOL   H10820072   7.160   4.243   1.693 -1.3798 -1.2681  2.0611
   63MOL   H10920073   6.952   4.225   1.577  0.3994  1.7768 -1.1884
   63MOL   H11020074   6.878   4.347   1.685 -1.1056 -0.3873 -1.0117
   63MOL   H11120075   6.924   4.199   1.756 -3.1277  2.2972  0.8765
   63MOL   H11220076   7.273   4.638   1.277  1.0148 -0.6553 -0.6496
   63MOL   H11320077   7.311   4.586   1.442 -0.8189 -1.8353  1.4488
   63MOL   C11420078   7.388   4.459   1.286  0.9380 -0.6521  0.3529
   63MOL   O11520079   7.496   4.546   1.258 -0.3765  0.4127  0.2692
   63MOL   C11620080   7.549   4.544   1.128  1.1026  0.5880 -0.0690
   63MOL   C11720081   7.657   4.657   1.118 -0.2842  0.1033  0.1708
   63MOL   C11820082   7.703   4.688   0.979  0.0914 -0.2170  0.1206
   63MOL   C11920083   7.439   4.350   1.377 -0.7690  0.2873 -0.0306
   63MOL   H12020084   7.345   4.431   1.190  0.1824  0.2218  0.4282
   63MOL   H12120085   7.588   4.450   1.090 -1.8942 -0.1774 -1.4371
   63MOL   H12220086   7.468   4.554   1.056  1.2741 -0.9948 -0.4978
   63MOL   H12320087   7.730   4.648   1.198 -4.1311 -1.7080  3.6592
   63MOL   H12420088   7.604   4.748   1.144 -0.7296 -0.5828  1.7454
   63MOL   H12520089   7.739   4.606   0.917 -2.2027  0.8161 -2.7081
   63MOL   H12620090   7.780   4.764   0.983  1.0404 -1.1113 -0.7321
   63MOL   H12720091   7.630   4.748   0.925  0.7206 -1.3615 -2.0624
   63MOL   H12820092   7.491   4.398   1.460  0.9361 -0.7831 -0.4348
   63MOL   H12920093   7.355   4.297   1.422 -1.1425  0.2960 -0.7154
   63MOL   C13020094   7.528   4.252   1.302 -0.6398  0.2063 -0.2370
   63MOL   O13120095   7.578   4.152   1.390  0.5681  0.8519 -0.6955
   63MOL   C13220096   7.701   4.193   1.452  0.5287  0.0203 -0.3120
   63MOL   C13320097   7.777   4.071   1.512  0.2269  0.0006  0.2582
   63MOL   C13420098   0.087   4.108   1.569 -0.1442 -0.3612 -0.2773
   63MOL   C13520099   7.436   4.176   1.204  0.5330  0.7662 -0.2758
   63MOL   H13620100   7.606   4.304   1.246 -1.9109  0.3361 -1.9021
   63MOL   H13720101   7.767   4.234   1.376 -0.1517  0.5127 -0.6409
   63MOL   H13820102   7.674   4.272   1.522 -1.2774 -1.1364  0.3219
   63MOL   H13920103   7.796   4.006   1.428  0.2460  0.4617 -0.0976
   63MOL   H14020104   7.724   4.013   1.588 -1.4307  0.7693 -0.2850
   63MOL   H14120105   0.133   4.186   1.508 -2.6542  2.5887  1.4306
   63MOL   H14220106   0.149   4.019   1.567 -0.0606 -0.3352  1.1010
   63MOL   H14320107   0.080   4.133   1.675 -1.8002 -0.9291 -0.2326
   63MOL   H14420108   7.342   4.141   1.247 -0.1274  0.1575 -2.1857
   63MOL   H14520109   7.401   4.248   1.131  1.6868  1.1587 -0.4583
   63MOL   C14620110   7.508   4.056   1.124  0.0611  0.0791 -0.7536
   63MOL   O14720111   7.439   4.034   0.998 -0.6114  0.6049 -0.1184
   63MOL   C14820112   7.328   3.950   1.016  0.9675  0.1179  0.1849
   63MOL   C14920113   7.254   3.929   0.884  0.1136 -0.1223  0.0614
   63MOL   C15020114   7.325   3.842   0.779 -0.3411 -0.4542  0.5150
   63MOL   C15120115   7.655   4.077   1.095  0.7152  0.1827  0.3692
   63MOL   H15220116   7.496   3.964   1.182  1.5067  0.5100  0.2608
   63MOL   H15320117   7.364   3.852   1.050  0.7521  0.1712  0.5679
   63MOL   H15420118   7.257   3.988   1.089  1.3432 -0.2506  0.7475
   63MOL   H15520119   7.207   4.015   0.836  1.7200  1.1829  0.7507
   63MOL   H15620120   7.165   3.874   0.913  0.8040 -0.2633  1.9351
   63MOL   H15720121   7.400   3.910   0.739 -0.4464 -0.1784  0.7820
   63MOL   H15820122   7.257   3.814   0.698 -2.8884 -0.0326  2.4237
   63MOL   H15920123   7.374   3.749   0.807  1.6898 -0.0115 -1.4355
   63MOL   H16020124   7.663   4.168   1.035  0.7635 -1.5751 -2.3917
   63MOL   H16120125   7.698   4.101   1.192 -0.6759  2.4332  0.4619
   63MOL   C16220126   7.732   3.960   1.022 -0.1590 -0.0665 -0.7512
   63MOL   O16320127   0.013   4.032   0.967 -0.3297 -0.0988  0.0142
   63MOL   C16420128   0.074   3.967   0.857  0.3850  0.1108 -0.1819
   63MOL   C16520129   0.216   4.019   0.831  0.3459 -0.1555 -0.0048
   63MOL   C16620130   0.333   3.968   0.920 -0.1380  0.8518  0.5926
   63MOL   C16720131   7.764   3.847   1.124  0.9127  0.0571 -0.1380
   63MOL   H16820132   7.671   3.922   0.940  1.9777 -1.4973 -1.7014
   63MOL   H16920133   0.088   3.859   0.862 -2.2604 -0.2682 -0.1965
   63MOL   H17020134   0.018   3.989   0.766  0.8324  1.8239 -0.0690
   63MOL   H17120135   0.224   4.128   0.833  2.4564 -0.2920  0.0190
   63MOL   H17220136   0.245   3.999   0.728  2.6143  0.2345  0.5187
   63MOL   H17320137   0.358   3.864   0.900 -0.5231  0.3956  2.3282
   63MOL   H17420138   0.301   3.969   1.025 -2.3811  2.4669 -0.0554
   63MOL   H17520139   0.436   4.004   0.918  0.4271 -0.7514  0.4058
   63MOL   H17620140   0.038   3.809   1.115  1.4840  1.0641  1.8960
   63MOL   H17720141   7.748   3.877   1.228  0.6189 -3.4175  0.8905
   63MOL   C17820142   7.686   3.722   1.099 -0.2918  0.2302  0.2088
   63MOL   O17920143   7.750   3.673   0.984 -0.1572 -0.2173  0.7907
   63MOL   C18020144   7.684   3.568   0.920 -0.0671  0.5276  0.7881
   63MOL   C18120145   7.739   3.552   0.783 -0.3245  0.2203  0.0584
   63MOL   C18220146   7.705   3.678   0.694 -0.0984  0.8591  0.4765
   63MOL   C18320147   7.708   3.610   1.210 -0.2468  0.4803  0.3373
   63MOL   H18420148   7.579   3.730   1.080  0.0417  1.8507 -1.1110
   63MOL   H18520149   7.692   3.475   0.976  0.7694 -0.4643 -0.9469
   63MOL   H18620150   7.579   3.590   0.906  0.0202  2.4243  2.7461
   63MOL   H18720151   7.694   3.468   0.731 -0.4717 -0.1312  0.7380
   63MOL   H18820152   0.019   3.543   0.790 -0.4322 -0.5829  0.8220
   63MOL   H18920153   7.768   3.667   0.606 -0.0880 -2.3341  0.8250
   63MOL   H19020154   7.739   3.772   0.738 -1.7604  1.5130  0.4125
   63MOL   H19120155   7.601   3.694   0.665  0.2527  0.3452 -1.1054
   63MOL   H19220156   7.649   3.525   1.174  0.9440 -0.4656  0.5866
   63MOL   H19320157   7.812   3.579   1.209 -0.6538 -1.0085  1.8597
   63MOL   C19420158   7.676   3.655   1.349 -0.5508 -0.0609  0.3669
   63MOL   O19520159   7.547   3.719   1.352  0.5121  0.1171 -0.0291
   63MOL   C19620160   7.533   3.818   1.446  0.0348  0.4687  0.4681
   63MOL   C19720161   7.383   3.832   1.447  0.1361  0.1864  0.4588
   63MOL   C19820162   7.335   3.932   1.554 -0.3714  0.5182 -0.3546
   63MOL   C19920163   7.680   3.540   1.454  0.2760 -0.3543  0.2061
   63MOL   H20020164   7.750   3.730   1.376 -0.5544  0.0085  0.1796
   63MOL   H20120165   7.569   3.790   1.545  1.6538 -3.8433 -1.2344
   63MOL   H20220166   7.586   3.905   1.405  1.3797  0.8466  2.8876
   63MOL   H20320167   7.329   3.738   1.456  0.9894 -0.2920  0.5754
   63MOL   H20420168   7.351   3.870   1.350 -0.8413  0.2107  0.7788
   63MOL   H20520169   7.344   3.897   1.657 -1.2274 -1.3108 -0.8658
   63MOL   H20620170   7.230   3.957   1.541  0.0475  3.1543  1.0768
   63MOL   H20720171   7.392   4.024   1.542 -1.4615  1.1825 -0.4867
   63MOL   H20820172   7.674   3.583   1.554  1.6350  2.7453 -0.9850
   63MOL   H20920173   7.590   3.480   1.441 -0.5505  1.4498 -2.7874
   63MOL   C21020174   7.807   3.449   1.447  0.9859  0.5676 -0.0274
   63MOL   O21120175   0.087   3.539   1.468  0.3882 -0.0611  0.0400
   63MOL   C21220176   0.209   3.498   1.423  0.1533  0.0775 -0.2407
   63MOL   C21320177   0.299   3.617   1.434 -0.4234 -0.5236  0.3172
   63MOL   C21420178   0.255   3.739   1.355 -0.1659  0.4155 -0.1784
   63MOL   C21520179   7.798   3.355   1.568  0.4154  0.4918  0.0951
   63MOL   H21620180   7.812   3.398   1.351  0.3051 -1.6408  1.0826
   63MOL   H21720181   0.244   3.409   1.474  1.7415  1.0469  0.3986
   63MOL   H21820182   0.201   3.454   1.323 -1.3581 -2.3831  0.9335
   63MOL   H21920183   0.401   3.592   1.403 -1.0360 -0.7976 -1.5122
   63MOL   H22020184   0.300   3.645   1.540 -0.3828 -1.1527  0.4851
   63MOL   H22120185   0.147   3.755   1.362  0.3750  3.2551  2.1617
   63MOL   H22220186   0.275   3.727   1.248 -0.4693 -1.8376 -0.0201
   63MOL   H22320187   0.306   3.826   1.394 -4.6137  2.6417  1.0156
   63MOL   H22420188   0.061   3.297   1.580  1.0501  0.9500 -2.2872
   63MOL   H22520189   7.775   3.409   1.660 -1.4917 -1.6033  0.9058
   63MOL   C22620190   7.680   3.247   1.555 -0.1769 -0.0598 -0.6356
   63MOL   O22720191   7.726   3.144   1.467  0.4380 -0.3759  0.0740
   63MOL   C22820192   7.617   3.065   1.412  0.3727  0.3951  0.1042
   63MOL   C22920193   7.685   2.930   1.369  0.0099  0.1533  0.0287
   63MOL   C23020194   7.584   2.827   1.298  0.7990 -0.0655 -0.0999
   63MOL   C23120195   7.643   3.189   1.688  0.8156  0.2161  0.0305
   63MOL   H23220196   7.582   3.271   1.514 -1.3816  0.2565  2.3216
   63MOL   H23320197   7.543   3.048   1.490  0.9300  1.1107  0.8018
   63MOL   H23420198   7.549   3.115   1.342 -1.4456  1.3383  2.4901
   63MOL   H23520199   7.729   2.888   1.459  0.6295 -1.2730 -0.9300
   63MOL   H23620200   7.756   2.959   1.291 -0.6090 -0.1579 -0.6647
   63MOL   H23720201   7.483   2.831   1.339 -0.1058 -0.4986 -2.2753
   63MOL   H23820202   7.625   2.729   1.323 -0.7837 -0.5571  0.6459
   63MOL   H23920203   7.584   2.851   1.192  1.3494 -0.9790 -0.3134
   63MOL   H24020204   7.611   3.085   1.686 -0.9787  0.7798 -1.5606
   63MOL   H24120205   7.738   3.177   1.741  1.1992 -0.7625 -0.8735
   63MOL   C24220206   7.526   3.256   1.769 -0.1341  0.4673 -0.6521
   63MOL   O24320207   7.420   3.241   1.670  0.5045 -0.1520  0.2583
   63MOL   C24420208   7.312   3.331   1.675  0.4186  0.3194 -0.3858
   63MOL   C24520209   7.193   3.292   1.583 -0.0270  0.1639 -0.5468
   63MOL   C24620210   7.244   3.263   1.442  0.3627 -0.2760  0.4181
   63MOL   C24720211   7.487   3.172   1.902 -0.4145 -0.6496 -0.3406
   63MOL   H24820212   7.546   3.362   1.786 -1.8718  0.7460 -0.2595
   63MOL   H24920213   7.275   3.333   1.778  1.8514 -1.9329  0.2044
   63MOL   H25020214   7.349   3.429   1.646  0.1385  1.1412  1.9399
   63MOL   H25120215   7.117   3.369   1.574  0.9517  1.3431  1.0605
   63MOL   H25220216   7.142   3.204   1.622  0.8726  1.1393  2.9940
   63MOL   H25320217   7.172   3.220   1.373  1.0758  0.0463 -0.5318
   63MOL   H25420218   7.342   3.217   1.439  1.0443  1.0988  1.0470
   63MOL   H25520219   7.252   3.369   1.420  1.0200 -0.6553 -1.2483
   63MOL   H25620220   7.400   3.216   1.950  1.4376  0.9249  1.6388
   63MOL   H25720221   7.456   3.072   1.871  1.3227 -1.2293 -0.2288
   63MOL   C25820222   7.597   3.177   2.009  0.9729 -0.2705  0.1080
   63MOL   O25920223   7.594   3.300   2.082  0.3605  0.2907  0.2300
   63MOL   C26020224   7.699   3.386   2.039  0.0707 -0.2721 -0.1810
   63MOL   C26120225   7.682   3.484   2.148  0.2082 -0.3983  0.0155
   63MOL   C26220226   7.740   3.618   2.113  0.4086 -0.0409  1.3070
   63MOL   C26320227   7.576   3.058   2.106 -0.3937  0.3264 -0.4476
   63MOL   H26420228   7.691   3.158   1.958 -0.2117 -0.6903 -1.9875
   63MOL   H26520229   7.791   3.329   2.048  0.0950 -0.4928 -1.6299
   63MOL   H26620230   7.686   3.412   1.934 -0.1508 -2.0160 -0.5900
   63MOL   H26720231   7.734   3.437   2.231 -2.1461 -1.3057  1.0117
   63MOL   H26820232   7.581   3.497   2.187  0.0953  0.3141 -0.4961
   63MOL   H26920233   0.020   3.616   2.127  0.5321 -2.5972  0.2920
   63MOL   H27020234   7.708   3.695   2.184  0.5954  1.8018 -0.5490
   63MOL   H27120235   7.732   3.640   2.007 -0.1437 -3.6803  0.5216
   63MOL   H27220236   7.592   2.967   2.048  0.3622 -1.0217  1.8417
   63MOL   H27320237   7.656   3.065   2.179  1.7562 -1.7467 -2.5091
   63MOL   C27420238   7.437   3.029   2.170 -0.0040  0.1746  0.1610
   63MOL   O27520239   7.431   2.891   2.199 -0.0848  0.6587 -0.6551
   63MOL   C27620240   7.298   2.835   2.225  0.0729  0.1673  0.7357
   63MOL   C27720241   7.288   2.688   2.263 -0.0254  0.2726  0.3679
   63MOL   C27820242   7.348   2.643   2.393 -0.0765 -0.3597 -0.8901
   63MOL   C27920243   7.418   3.116   2.300  0.6037 -0.7163  0.6519
   63MOL   H28020244   7.346   3.045   2.113 -2.0244 -2.0427  2.5998
   63MOL   H28120245   7.247   2.887   2.306  0.6381 -1.7015  2.3119
   63MOL   H28220246   7.238   2.842   2.134  0.2506 -2.3586  0.3968
   63MOL   H28320247   7.342   2.621   2.196  1.7325  0.9176  1.1012
   63MOL   H28420248   7.182   2.666   2.251  0.6807 -2.2005 -1.7216
   63MOL   H28520249   7.456   2.642   2.383  0.1657 -0.1260  1.3193
   63MOL   H28620250   7.305   2.546   2.417  1.1565 -0.5214  0.7598
   63MOL   H28720251   7.319   2.720   2.464  0.6301 -1.9850  1.2293
   63MOL   H28820252   7.425   3.216   2.255  1.1642 -1.2934 -0.5687
   63MOL   H28920253   7.318   3.105   2.340  1.0636 -1.0436  1.7152
   63MOL   C29020254   7.525   3.114   2.417 -0.0279  0.6009  0.4536
   63MOL   O29120255   7.481   3.227   2.494 -0.0768  0.0584  0.2128
   63MOL   C29220256   7.564   3.339   2.495  0.0241 -0.5124  0.3915
   63MOL   C29320257   7.503   3.433   2.600  0.2632 -0.3374  0.0624
   63MOL   C29420258   7.549   3.580   2.580 -0.1216  0.6471 -0.0883
   63MOL   C29520259   7.513   2.991   2.501  0.4109  0.5908  0.1497
   63MOL   H29620260   7.623   3.125   2.371 -1.1337  2.5424 -1.5447
   63MOL   H29720261   7.664   3.310   2.529  1.7038  1.8298 -2.2881
   63MOL   H29820262   7.570   3.384   2.396 -2.9919  0.8949  0.8138
   63MOL   H29920263   7.531   3.406   2.702  0.3138 -1.0691 -0.1464
   63MOL   H30020264   7.395   3.445   2.594  0.1756 -1.7702 -1.4479
   63MOL   H30120265   7.517   3.607   2.479  1.5520 -0.0981 -0.8447
   63MOL   H30220266   7.654   3.588   2.606 -0.0040  0.7654 -0.5924
   63MOL   H30320267   7.505   3.649   2.651 -0.1798  1.8278 -1.2613
   63MOL   H30420268   7.432   3.007   2.573  0.2048  0.9507 -0.1569
   63MOL   H30520269   7.480   2.911   2.435  5.6064  0.2728 -2.2785
   63MOL   C30620270   7.639   2.937   2.568  0.1170 -0.7377  0.0198
   63MOL   O30720271   7.597   2.827   2.649  0.2028  0.1977 -0.3398
   63MOL   C30820272   7.688   2.780   2.750  0.9832  0.1851 -0.1509
   63MOL   C30920273   7.604   2.718   2.863 -0.4292  0.3179 -0.4945
   63MOL   C31020274   7.511   2.615   2.795 -0.4382  0.0960 -0.1040
   63MOL   C31120275   7.750   2.890   2.475  0.0473  0.2269  0.1133
   63MOL   H31220276   7.670   3.021   2.630  1.2750 -0.2459 -1.1951
   63MOL   H31320277   7.742   2.692   2.715 -0.9848 -1.4800  0.8696
   63MOL   H31420278   7.760   2.851   2.792 -0.2197  1.2215  0.1921
   63MOL   H31520279   7.537   2.790   2.911  1.8611  1.4209  1.1145
   63MOL   H31620280   7.662   2.681   2.948 -2.3847 -0.1047  0.6871
   63MOL   H31720281   7.432   2.672   2.745  0.7303  3.1676  1.4125
   63MOL   H31820282   7.460   2.546   2.862 -0.0948  2.4523  2.6391
   63MOL   H31920283   7.570   2.555   2.726 -2.5079 -1.6350 -0.4577
   63MOL   H32020284   7.731   2.788   2.442  0.4685  0.1559  0.0922
   63MOL   H32120285   7.763   2.944   2.381  0.6190 -0.6796 -0.3371
   63MOL   H32220286   0.020   2.901   2.521  0.0122 -2.4233  0.9390
   64MOL     C120287   1.214   5.397   2.704  0.1352  0.1279  0.7237
   64MOL     O220288   1.294   5.484   2.614  0.4336 -0.5117 -0.6454
   64MOL     C320289   1.289   5.625   2.649  0.4634 -0.9624 -0.4552
   64MOL     C420290   1.323   5.719   2.536  0.5395 -0.1606  0.4011
   64MOL     C520291   1.203   5.738   2.443  0.2345 -0.5876 -0.6628
   64MOL     C620292   1.259   5.249   2.686  0.5332  0.4634 -0.1682
   64MOL     H720293   1.109   5.416   2.681  0.2878 -0.3958 -0.3988
   64MOL     H820294   1.199   5.653   2.705  0.3070 -0.3178 -1.0078
   64MOL     H920295   1.367   5.638   2.723 -1.7412 -0.2058  1.8369
   64MOL    H1020296   1.416   5.692   2.484  1.5977  2.4171  0.8889
   64MOL    H1120297   1.351   5.817   2.574  1.8421  0.0910 -1.1104
   64MOL    H1220298   1.172   5.639   2.411 -0.5156 -0.3423 -0.6969
   64MOL    H1320299   1.220   5.800   2.355  0.9824  0.7433  0.4021
   64MOL    H1420300   1.113   5.773   2.494 -0.7104 -0.8775 -2.1007
   64MOL    H1520301   1.253   5.223   2.580  2.8948 -0.1549 -0.1736
   64MOL    H1620302   1.367   5.242   2.704  0.4854 -1.0013 -0.3811
   64MOL    H1720303   1.239   5.424   2.807  0.6264  2.0477  0.1289
   64MOL    C1820304   1.187   5.141   2.766  0.4273  0.7121 -0.9897
   64MOL    O1920305   1.181   5.016   2.694 -0.0217 -0.2130 -0.2537
   64MOL    C2020306   1.091   5.007   2.578 -0.0092 -0.3433  0.3429
   64MOL    C2120307   1.125   4.879   2.518 -0.9267  0.2734  0.7022
   64MOL    C2220308   1.042   4.863   2.398  0.1293  0.4326 -0.5924
   64MOL    C2320309   1.234   5.116   2.908  0.1547  0.3780  0.1097
   64MOL    H2420310   1.084   5.174   2.776  0.3780  0.2000  0.2598
   64MOL    H2520311   0.991   5.002   2.621 -0.3566 -1.3340 -0.5673
   64MOL    H2620312   1.108   5.082   2.501  1.0325 -0.6739  0.2399
   64MOL    H2720313   1.100   4.806   2.596 -0.9030  1.9019  2.2509
   64MOL    H2820314   1.230   4.864   2.496 -1.0736  0.2621 -0.0141
   64MOL    H2920315   1.024   4.762   2.360 -3.0364  0.8420 -0.2744
   64MOL    H3020316   1.070   4.934   2.320 -1.5314  1.8521  0.0813
   64MOL    H3120317   0.940   4.894   2.418  0.7645  1.1965  1.5327
   64MOL    H3220318   1.336   5.079   2.914 -0.8179 -2.3367  0.5751
   64MOL    H3320319   1.239   5.201   2.976 -0.6462  2.4142 -2.3147
   64MOL    C3420320   1.156   5.011   2.978 -0.4488  0.0871 -0.1393
   64MOL    O3520321   1.226   4.968   3.098  0.4456  0.4412 -0.1365
   64MOL    C3620322   1.303   4.855   3.069  0.3367 -0.9238 -0.1513
   64MOL    C3720323   1.418   4.857   3.163  0.3307  0.5071 -0.1421
   64MOL    C3820324   1.529   4.969   3.145 -0.0344  0.2002 -0.1125
   64MOL    C3920325   1.018   5.061   3.022  0.5970 -0.1731  0.7378
   64MOL    H4020326   1.141   4.926   2.912  0.7093  0.4057 -0.8269
   64MOL    H4120327   1.243   4.764   3.081 -4.2887  1.8668 -0.8371
   64MOL    H4220328   1.347   4.849   2.970  0.3115  0.0084 -0.2235
   64MOL    H4320329   1.463   4.758   3.157 -1.2357 -0.2127 -0.0441
   64MOL    H4420330   1.394   4.863   3.269 -1.3691  0.2742 -0.5086
   64MOL    H4520331   1.564   4.962   3.042 -0.8647 -0.5124 -0.3570
   64MOL    H4620332   1.610   4.955   3.216 -1.6190 -0.2281  1.6646
   64MOL    H4720333   1.481   5.066   3.164 -0.5392 -0.1344  0.3425
   64MOL    H4820334   1.042   5.123   3.108  0.3811 -0.5867  1.0978
   64MOL    H4920335   0.970   5.119   2.943  1.2027 -2.7042 -1.5810
   64MOL    C5020336   0.911   4.946   3.053 -0.1751 -0.3265  0.2263
   64MOL    O5120337   0.799   5.017   3.105 -0.1942 -0.1074 -0.0714
   64MOL    C5220338   0.790   5.037   3.250  0.3620  0.1732  0.3853
   64MOL    C5320339   0.670   5.132   3.284  0.7397  0.1679  0.4525
   64MOL    C5420340   0.703   5.267   3.226  0.1582  0.0931 -1.2169
   64MOL    C5520341   0.874   4.874   2.922 -0.2798 -1.0104  0.1042
   64MOL    H5620342   0.953   4.883   3.132 -0.0313 -0.2948  0.1738
   64MOL    H5720343   0.775   4.939   3.296  1.4722 -0.7504 -1.1717
   64MOL    H5820344   0.877   5.086   3.292 -0.0430  0.5260  0.8146
   64MOL    H5920345   0.651   5.139   3.391  4.7105  2.7405  1.0999
   64MOL    H6020346   0.581   5.099   3.230  1.6720 -2.5575  0.4893
   64MOL    H6120347   0.723   5.262   3.119  1.3881  1.1788 -1.0377
   64MOL    H6220348   0.794   5.301   3.274 -1.1171 -0.1124  1.4543
   64MOL    H6320349   0.630   5.346   3.246  0.9581  0.5759 -0.1069
   64MOL    H6420350   0.847   4.949   2.847 -0.8913 -2.0925 -0.7615
   64MOL    H6520351   0.966   4.819   2.901  1.6204  1.8039  0.6852
   64MOL    C6620352   0.740   4.794   2.933  0.1993  0.2554  0.0643
   64MOL    O6720353   0.698   4.726   2.812  0.0899  0.1823  0.4478
   64MOL    C6820354   0.655   4.826   2.718 -0.0758  0.8853 -0.9702
   64MOL    C6920355   0.548   4.752   2.630  1.0497  0.8391  0.0847
   64MOL    C7020356   0.443   4.676   2.706 -0.4457  0.5676 -0.2034
   64MOL    C7120357   0.741   4.687   3.041  0.1190  0.0798 -0.4933
   64MOL    H7220358   0.672   4.877   2.953 -1.2912 -0.3442 -2.2998
   64MOL    H7320359   0.616   4.915   2.767 -1.5990 -0.9060  1.1387
   64MOL    H7420360   0.746   4.851   2.663  0.9090 -0.5341  0.0020
   64MOL    H7520361   0.586   4.680   2.559  0.2728 -0.1445  0.6441
   64MOL    H7620362   0.488   4.824   2.573  0.2464 -0.5376 -0.8311
   64MOL    H7720363   0.374   4.626   2.637  0.4596  0.5973 -1.1492
   64MOL    H7820364   0.391   4.736   2.780  1.9100  0.8412  1.2841
   64MOL    H7920365   0.487   4.595   2.764  0.8536  2.2135  1.1682
   64MOL    H8020366   0.795   4.604   2.996  0.0788 -0.0515 -0.2994
   64MOL    H8120367   0.804   4.719   3.124  2.3210 -1.3076 -1.5583
   64MOL    C8220368   0.608   4.635   3.088  0.3485  0.0054  0.3295
   64MOL    O8320369   0.633   4.533   3.182  0.4868  0.6693  0.1943
   64MOL    C8420370   0.604   4.403   3.146  0.3081  0.2264 -0.0880
   64MOL    C8520371   0.628   4.304   3.259 -0.6837 -0.9364  0.0749
   64MOL    C8620372   0.530   4.305   3.374  0.0159 -0.0654  0.1363
   64MOL    C8720373   0.516   4.744   3.150  0.3903 -0.1626  0.4333
   64MOL    H8820374   0.560   4.593   3.000 -0.9153 -0.7916  1.3815
   64MOL    H8920375   0.499   4.398   3.115  0.6518 -4.4487 -0.9054
   64MOL    H9020376   0.670   4.371   3.065  1.4599  0.6470  0.6741
   64MOL    H9120377   0.727   4.325   3.299 -1.0763 -0.7610  0.9766
   64MOL    H9220378   0.634   4.203   3.218  2.8509 -1.6969  2.2047
   64MOL    H9320379   0.561   4.253   3.465 -0.6330 -0.8330 -0.0742
   64MOL    H9420380   0.440   4.247   3.352  1.1395 -2.4386  1.5370
   64MOL    H9520381   0.509   4.406   3.409 -2.9453 -0.7809  0.5811
   64MOL    H9620382   0.577   4.777   3.235  1.8526 -0.6636 -0.4089
   64MOL    H9720383   0.503   4.831   3.085  0.0118  0.6410  1.5587
   64MOL    C9820384   0.379   4.696   3.198  0.5503  0.0930  0.1363
   64MOL    O9920385   0.323   4.787   3.288 -0.7278  0.2939 -0.1272
   64MOL   C10020386   0.338   4.740   3.418  0.2551 -0.2960 -0.8367
   64MOL   C10120387   0.253   4.826   3.510  0.7805  0.6799 -0.3114
   64MOL   C10220388   0.105   4.801   3.474  0.3181  0.5902 -0.9378
   64MOL   C10320389   0.285   4.680   3.077  0.0498 -0.3522  0.4503
   64MOL   H10420390   0.396   4.594   3.231 -2.1443 -0.3505  0.2205
   64MOL   H10520391   0.303   4.637   3.430  1.2278 -0.4758  0.6520
   64MOL   H10620392   0.445   4.742   3.443  0.6267 -1.9904 -2.1760
   64MOL   H10720393   0.266   4.934   3.496  0.3863  1.2428  3.0843
   64MOL   H10820394   0.269   4.808   3.616  0.4576  3.8197  0.3177
   64MOL   H10920395   0.069   4.703   3.504  2.7980  0.4797  1.8910
   64MOL   H11020396   0.086   4.804   3.367 -1.8453 -1.1925 -0.6173
   64MOL   H11120397   0.047   4.878   3.525 -0.6024 -1.8340  1.7464
   64MOL   H11220398   0.252   4.781   3.050  0.2140 -0.1882  0.8548
   64MOL   H11320399   0.325   4.634   2.987  0.0452 -0.7599  0.6577
   64MOL   C11420400   0.157   4.596   3.105  0.2372  0.2849 -1.0255
   64MOL   O11520401   0.048   4.629   3.019  0.2123  0.2248  0.1615
   64MOL   C11620402   7.773   4.702   3.090  0.4539  0.3166 -0.5453
   64MOL   C11720403   7.669   4.752   2.997  0.5262 -0.5166 -0.2735
   64MOL   C11820404   7.722   4.842   2.892  0.4170  0.5554 -0.3672
   64MOL   C11920405   0.185   4.444   3.083 -0.0068  0.2115  0.3226
   64MOL   H12020406   0.135   4.617   3.209 -0.3305  3.0338 -1.6684
   64MOL   H12120407   7.734   4.635   3.167  3.9158 -0.3414  0.7143
   64MOL   H12220408   7.815   4.789   3.140 -0.7896  0.4658  0.2883
   64MOL   H12320409   7.587   4.804   3.045 -1.7766 -1.2908 -3.2762
   64MOL   H12420410   7.632   4.655   2.964  2.8100 -1.5759  0.1283
   64MOL   H12520411   7.646   4.858   2.817  1.7596 -0.5993 -2.0219
   64MOL   H12620412   7.813   4.798   2.851 -0.8957 -0.7026 -1.9918
   64MOL   H12720413   7.756   4.931   2.945  1.4077  0.1117 -0.2468
   64MOL   H12820414   0.171   4.430   2.976 -1.1728 -3.2403  0.8524
   64MOL   H12920415   0.289   4.413   3.096  0.2054  1.0427  0.6723
   64MOL   C13020416   0.096   4.345   3.155  0.4181  0.0474  0.2092
   64MOL   O13120417   0.107   4.215   3.098  0.7112 -0.1832  0.0267
   64MOL   C13220418   0.025   4.206   2.985  0.4430  0.1863  0.1920
   64MOL   C13320419   0.013   4.059   2.946 -0.6653 -0.5497 -0.2712
   64MOL   C13420420   7.757   3.990   3.045  0.3012  0.1280 -0.4048
   64MOL   C13520421   0.135   4.320   3.299  0.3608  0.5604 -0.4048
   64MOL   H13620422   7.827   4.393   3.142 -0.0988 -1.1314 -0.4068
   64MOL   H13720423   7.756   4.255   2.996 -0.2957 -1.3917  0.9340
   64MOL   H13820424   0.090   4.253   2.912  0.7217  1.6404  1.3487
   64MOL   H13920425   0.113   4.017   2.937  0.0276  1.4277 -2.4203
   64MOL   H14020426   7.797   4.035   2.849 -1.5989  1.3804 -0.3529
   64MOL   H14120427   7.726   3.891   3.009  1.8008 -0.0252 -1.3133
   64MOL   H14220428   7.666   4.051   3.051  0.8729  1.0647 -1.1161
   64MOL   H14320429   7.798   3.967   3.143  0.2391 -1.0777 -0.6508
   64MOL   H14420430   0.240   4.293   3.290 -0.0248 -0.8502 -0.7360
   64MOL   H14520431   0.138   4.411   3.360  0.4447  0.2356  0.0726
   64MOL   C14620432   0.043   4.223   3.372 -0.8184 -0.1680  0.3714
   64MOL   O14720433   0.122   4.148   3.465  0.2004  0.1167  0.0210
   64MOL   C14820434   0.194   4.039   3.407 -0.4396 -0.0520  0.6793
   64MOL   C14920435   0.312   4.018   3.499 -0.4184 -0.0367 -0.6763
   64MOL   C15020436   0.289   3.928   3.625  0.1593 -0.1083 -0.5561
   64MOL   C15120437   7.755   4.287   3.451  0.3659 -0.2069  0.0291
   64MOL   H15220438   7.827   4.155   3.299 -3.4776  1.6323  0.2105
   64MOL   H15320439   0.124   3.957   3.387 -1.5162  1.2768 -1.1683
   64MOL   H15420440   0.233   4.065   3.309 -1.0011  1.2074  0.7809
   64MOL   H15520441   0.361   4.112   3.525 -1.6293  0.2472  0.5887
   64MOL   H15620442   0.379   3.962   3.433  0.1411  0.9595 -0.9602
   64MOL   H15720443   0.217   3.984   3.684  0.7586 -0.0339  0.1075
   64MOL   H15820444   0.388   3.920   3.670 -0.1448 -2.7413 -0.2378
   64MOL   H15920445   0.248   3.829   3.605  1.3764 -1.0233  1.3679
   64MOL   H16020446   7.798   4.347   3.532 -0.6145  2.5273 -1.4050
   64MOL   H16120447   7.713   4.364   3.387 -1.6609 -1.4453 -0.1594
   64MOL   C16220448   7.650   4.191   3.511 -0.2085  0.4495  0.8323
   64MOL   O16320449   7.560   4.282   3.584  0.3960 -0.1675 -0.2779
   64MOL   C16420450   7.521   4.229   3.708 -0.6101 -0.8337  0.1243
   64MOL   C16520451   7.472   4.338   3.798 -0.4516  0.4206  0.4556
   64MOL   C16620452   7.430   4.288   3.931 -0.1894  0.3610  0.6043
   64MOL   C16720453   7.575   4.077   3.426  0.5546 -0.0540 -0.4158
   64MOL   H16820454   7.720   4.134   3.572  2.4066  0.0537 -2.3717
   64MOL   H16920455   7.452   4.146   3.693  0.1420 -1.3228 -0.7066
   64MOL   H17020456   7.608   4.186   3.758  0.1091  0.1002 -0.3179
   64MOL   H17120457   7.389   4.395   3.756 -2.9402 -2.1801  1.5917
   64MOL   H17220458   7.545   4.418   3.803  0.2065 -0.0819 -0.8522
   64MOL   H17320459   7.383   4.372   3.983 -1.1485  0.7872 -0.9248
   64MOL   H17420460   7.513   4.244   3.987  0.4087 -0.0206 -0.5816
   64MOL   H17520461   7.336   4.235   3.914  1.5435 -2.8693  0.7346
   64MOL   H17620462   7.645   4.049   3.349  0.3928 -0.0281 -0.5721
   64MOL   H17720463   7.559   3.993   3.494 -0.5636  0.6848  0.2737
   64MOL   C17820464   7.438   4.115   3.363  0.2477 -0.0339  0.5061
   64MOL   O17920465   7.471   4.210   3.262  0.0839  0.1445 -0.0989
   64MOL   C18020466   7.433   4.343   3.279  0.1153  0.9797  0.0992
   64MOL   C18120467   7.482   4.421   3.155  0.4202  0.2323  0.1532
   64MOL   C18220468   7.381   4.521   3.102 -0.0218  0.0235 -0.4607
   64MOL   C18320469   7.373   3.997   3.291  0.2689  0.0514  0.0469
   64MOL   H18420470   7.367   4.160   3.432  0.5333  0.5857  0.4042
   64MOL   H18520471   7.325   4.353   3.288 -0.0473 -1.8044  1.8871
   64MOL   H18620472   7.482   4.379   3.370  0.9016 -1.8190  0.8195
   64MOL   H18720473   7.481   4.339   3.083 -1.5771  0.5469 -0.1865
   64MOL   H18820474   7.583   4.456   3.176 -0.0430  0.8905  1.3220
   64MOL   H18920475   7.290   4.478   3.060  1.3102 -1.3544 -2.0455
   64MOL   H19020476   7.423   4.583   3.022  0.7139 -0.2824 -0.3110
   64MOL   H19120477   7.364   4.596   3.179  1.2161  1.8347 -1.8872
   64MOL   H19220478   7.294   4.026   3.222 -0.1930 -1.0144  0.1141
   64MOL   H19320479   7.447   3.956   3.222  0.8526 -0.4385  0.9480
   64MOL   C19420480   7.322   3.889   3.386 -0.1377  0.0141  0.4002
   64MOL   O19520481   7.226   3.945   3.473 -0.3203  0.3349 -0.0439
   64MOL   C19620482   7.192   3.870   3.587 -0.3424  0.1535 -0.5071
   64MOL   C19720483   7.084   3.944   3.672  0.7732 -0.6352  0.0484
   64MOL   C19820484   7.148   4.076   3.721 -0.3448  0.1531  0.5458
   64MOL   C19920485   7.260   3.762   3.313  0.7440  0.0687  0.6805
   64MOL   H20020486   7.405   3.851   3.444 -0.2090  1.0031  1.1536
   64MOL   H20120487   7.155   3.771   3.563  0.7366  0.0194 -1.6787
   64MOL   H20220488   7.281   3.848   3.647 -0.0507  1.2571 -0.5170
   64MOL   H20320489   7.062   3.879   3.757  2.2754  2.0411  2.5768
   64MOL   H20420490   6.990   3.953   3.617  0.6029  0.0523  0.4399
   64MOL   H20520491   7.081   4.120   3.795 -1.5359  0.6740 -0.8050
   64MOL   H20620492   7.174   4.147   3.642  1.5475 -1.0299  0.0796
   64MOL   H20720493   7.238   4.064   3.781  0.4631 -0.0722 -0.6995
   64MOL   H20820494   7.349   3.718   3.266  0.1170  2.4501 -2.9433
   64MOL   H20920495   7.225   3.685   3.381  0.0868  2.0451  2.6289
   64MOL   C21020496   7.136   3.777   3.207  0.8303 -0.0431 -0.5056
   64MOL   O21120497   7.118   3.654   3.150 -0.4517  0.1969 -0.6094
   64MOL   C21220498   7.220   3.597   3.065  0.1617  0.1353  0.0672
   64MOL   C21320499   7.180   3.474   2.989 -0.1035 -0.0769 -0.4895
   64MOL   C21420500   7.273   3.441   2.872 -0.1000 -0.0545 -0.1898
   64MOL   C21520501   7.013   3.817   3.290  0.1057  0.4035  0.9421
   64MOL   H21620502   7.158   3.846   3.126  1.8050  1.8870  1.3721
   64MOL   H21720503   7.264   3.671   2.998 -2.7992  1.0644 -0.9492
   64MOL   H21820504   7.299   3.554   3.125  1.0589  0.1163 -1.1178
   64MOL   H21920505   7.075   3.491   2.967 -0.7278 -0.7361  1.8692
   64MOL   H22020506   7.175   3.395   3.064  1.5061  2.2494  2.1914
   64MOL   H22120507   7.285   3.517   2.794  2.7063 -0.5241 -0.2582
   64MOL   H22220508   7.238   3.354   2.817 -1.0599 -1.2550  2.2411
   64MOL   H22320509   7.368   3.412   2.918 -1.4423  0.2945  2.9560
   64MOL   H22420510   6.996   3.735   3.359  2.0908 -0.6173  0.2689
   64MOL   H22520511   7.040   3.908   3.344  2.1510  0.8776 -0.7836
   64MOL   C22620512   6.875   3.842   3.222  0.6985 -0.2804  0.5653
   64MOL   O22720513   6.788   3.893   3.320 -0.6715 -0.5696  0.4397
   64MOL   C22820514   6.703   3.792   3.374 -0.7449 -0.0170  0.1337
   64MOL   C22920515   6.613   3.836   3.492 -0.0028 -0.2590  0.3022
   64MOL   C23020516   6.518   3.711   3.519  0.2333  0.4556  0.4892
   64MOL   C23120517   6.879   3.966   3.131  0.2930  0.6352 -1.1817
   64MOL   H23220518   6.836   3.761   3.161 -1.1654  0.8481  0.2296
   64MOL   H23320519   6.634   3.768   3.294 -0.3749  2.7775 -1.1166
   64MOL   H23420520   6.764   3.707   3.402 -0.1252 -0.1005 -1.3870
   64MOL   H23520521   6.546   3.909   3.445  1.8816 -0.1825 -2.3714
   64MOL   H23620522   6.663   3.884   3.576 -1.4785  0.2080  0.9296
   64MOL   H23720523   6.416   3.731   3.553  0.2289 -1.2774  1.5625
   64MOL   H23820524   6.557   3.652   3.601 -3.3914 -3.3520 -0.3673
   64MOL   H23920525   6.524   3.643   3.434  3.2339  0.6991  0.4506
   64MOL   H24020526   6.775   3.994   3.113  0.4544  2.5774  0.8161
   64MOL   H24120527   6.937   4.042   3.182 -1.2694  1.3364 -0.4177
   64MOL   C24220528   6.931   3.945   2.983 -0.1598 -0.3322  1.0849
   64MOL   O24320529   6.839   3.868   2.904 -0.0036 -0.1564  0.1555
   64MOL   C24420530   6.897   3.742   2.892  0.6966  0.6370 -0.3933
   64MOL   C24520531   6.784   3.629   2.850 -0.4216  0.1860  0.9871
   64MOL   C24620532   6.667   3.624   2.945  0.0816 -0.5783 -0.2886
   64MOL   C24720533   6.925   4.087   2.922 -0.5815 -0.4236  0.4399
   64MOL   H24820534   7.037   3.918   2.975 -0.5743 -1.9746  1.1207
   64MOL   H24920535   6.979   3.724   2.821 -0.2271 -1.9777 -0.8792
   64MOL   H25020536   6.933   3.700   2.986 -0.5570 -0.7871 -0.5219
   64MOL   H25120537   6.830   3.530   2.844 -0.1584  0.4266 -1.9523
   64MOL   H25220538   6.746   3.640   2.748  0.3151 -0.1750  0.6644
   64MOL   H25320539   6.578   3.569   2.912 -1.0394  0.7307  0.5278
   64MOL   H25420540   6.650   3.721   2.990  0.1085 -0.6677 -0.0840
   64MOL   H25520541   6.703   3.563   3.028 -0.3563 -0.1701  0.2013
   64MOL   H25620542   6.822   4.122   2.916 -0.4081  0.4207  2.1452
   64MOL   H25720543   6.983   4.158   2.980  0.4989 -0.4582 -0.5953
   64MOL   C25820544   6.988   4.092   2.780  0.3809 -0.2664 -0.7296
   64MOL   O25920545   7.131   4.061   2.768  0.4805 -0.2151 -0.2861
   64MOL   C26020546   7.227   4.118   2.855  0.4274 -0.6560  0.0229
   64MOL   C26120547   7.374   4.073   2.830  0.0728 -0.1776  0.4174
   64MOL   C26220548   7.385   3.938   2.888  0.3114 -0.8385  0.1228
   64MOL   C26320549   6.907   4.007   2.678  1.0311  0.0295 -0.0299
   64MOL   H26420550   6.975   4.196   2.753 -1.5994 -0.6972 -1.5635
   64MOL   H26520551   7.225   4.223   2.825 -0.8059 -0.7505 -0.2580
   64MOL   H26620552   7.200   4.123   2.961  0.3202  0.1744 -0.0364
   64MOL   H26720553   7.441   4.138   2.886  1.5808 -0.2868 -1.2175
   64MOL   H26820554   7.409   4.082   2.728 -2.7827 -2.6207 -0.8813
   64MOL   H26920555   7.329   3.861   2.835 -1.3539 -0.3496  1.1423
   64MOL   H27020556   7.356   3.937   2.993  0.9382  1.9495  0.3667
   64MOL   H27120557   7.491   3.915   2.877  0.3566 -0.1127 -1.0512
   64MOL   H27220558   6.943   3.904   2.670  0.5673 -0.0508 -1.1616
   64MOL   H27320559   6.803   3.986   2.704  1.1458  0.1774  0.5674
   64MOL   C27420560   6.897   4.067   2.538  0.1128 -0.6363  0.4200
   64MOL   O27520561   6.840   4.198   2.534 -0.6681  0.3751 -0.4145
   64MOL   C27620562   6.704   4.200   2.570 -0.3361 -0.0255  0.4430
   64MOL   C27720563   6.653   4.340   2.532 -0.4811  0.6470  0.1427
   64MOL   C27820564   6.511   4.366   2.576  0.2140  0.5782 -0.1245
   64MOL   C27920565   7.038   4.086   2.477  0.1171 -0.0660 -0.1221
   64MOL   H28020566   6.843   3.995   2.476 -0.1134 -0.1932  0.1020
   64MOL   H28120567   6.642   4.117   2.537 -0.5892 -0.1676  1.2516
   64MOL   H28220568   6.693   4.198   2.678 -2.5313  0.5453  0.2405
   64MOL   H28320569   6.672   4.361   2.427  0.0427  1.2731  0.3610
   64MOL   H28420570   6.724   4.410   2.576 -0.5971  2.2395 -2.1279
   64MOL   H28520571   6.441   4.298   2.527  1.5402 -0.4345 -0.6628
   64MOL   H28620572   6.494   4.472   2.556 -0.0709  0.2874 -1.4613
   64MOL   H28720573   6.497   4.339   2.681  0.8218 -1.4102 -0.5341
   64MOL   H28820574   7.086   4.161   2.539 -0.7431 -0.6281  1.2338
   64MOL   H28920575   7.100   4.000   2.501  0.2038  0.0164 -0.0526
   64MOL   C29020576   7.055   4.123   2.326 -0.4649  0.5520  0.2452
   64MOL   O29120577   7.178   4.182   2.302  0.3061 -0.4980 -0.1386
   64MOL   C29220578   7.174   4.324   2.311 -0.4704 -0.2369 -1.0177
   64MOL   C29320579   7.319   4.379   2.300  0.3849  0.3925 -0.0821
   64MOL   C29420580   7.418   4.363   2.417 -0.1846  1.0368 -0.3066
   64MOL   C29520581   7.051   3.990   2.239  0.1935 -0.0717  0.1159
   64MOL   H29620582   6.979   4.200   2.318 -1.4107 -0.1847  1.7920
   64MOL   H29720583   7.102   4.367   2.241 -1.0709  0.7992  0.2299
   64MOL   H29820584   7.136   4.342   2.411  1.7196 -0.8928 -0.0330
   64MOL   H29920585   7.298   4.486   2.294  1.2086  0.4772 -2.0030
   64MOL   H30020586   7.361   4.345   2.205 -1.4007  0.0133 -0.7524
   64MOL   H30120587   7.446   4.465   2.442  0.7932  1.0621 -1.4796
   64MOL   H30220588   7.499   4.299   2.383 -1.7286 -1.2063  0.1207
   64MOL   H30320589   7.383   4.319   2.511  2.1414  1.5901  0.8564
   64MOL   H30420590   7.144   3.935   2.252  1.7258  2.3512 -0.2223
   64MOL   H30520591   6.972   3.921   2.268 -1.6511  1.1415 -1.8612
   64MOL   C30620592   7.036   4.005   2.083 -0.1524  0.4039  0.4787
   64MOL   O30720593   6.907   4.063   2.055  0.6150 -0.3360 -0.3145
   64MOL   C30820594   6.794   3.997   2.091 -0.2401 -0.1140  0.1665
   64MOL   C30920595   6.658   4.060   2.049 -0.1097  0.2320 -0.1152
   64MOL   C31020596   6.549   4.029   2.162  0.2201  0.7663  0.2745
   64MOL   C31120597   7.156   4.078   2.015  0.5478  0.5486 -0.2498
   64MOL   H31220598   7.029   3.903   2.046  1.1865  0.5331 -0.1563
   64MOL   H31320599   6.802   3.895   2.054  0.3356  0.5200 -1.5009
   64MOL   H31420600   6.788   3.973   2.197 -1.5047  0.5846  0.2576
   64MOL   H31520601   6.630   4.027   1.949  3.9949 -0.5420 -1.1050
   64MOL   H31620602   6.667   4.168   2.042 -0.5893  0.2575 -0.3548
   64MOL   H31720603   6.524   3.924   2.175 -1.5416  0.9025 -1.7120
   64MOL   H31820604   6.462   4.095   2.156 -1.0704 -0.9194  0.0910
   64MOL   H31920605   6.571   4.056   2.265 -0.3725 -1.5040  1.0144
   64MOL   H32020606   7.250   4.022   2.017 -0.5460 -1.2700  1.3196
   64MOL   H32120607   7.136   4.095   1.909 -1.3544 -2.9647 -0.5320
   64MOL   H32220608   7.185   4.174   2.057 -0.7794  0.7104  0.3186
   65MOL     C120609   3.721   2.708   2.568 -0.3774  0.6443  0.0220
   65MOL     O220610   3.855   2.737   2.543 -0.1229 -0.5670  0.5509
   65MOL     C320611   3.955   2.678   2.623  0.5870  0.4431 -0.0495
   65MOL     C420612   4.089   2.737   2.572 -0.1005 -0.3334 -0.2231
   65MOL     C520613   4.201   2.725   2.670  0.1990  0.0930 -0.0817
   65MOL     C620614   3.650   2.756   2.445  1.0270  0.0807 -0.0116
   65MOL     H720615   3.687   2.756   2.660 -0.2088 -0.4284  0.6505
   65MOL     H820616   3.924   2.701   2.725 -2.9331 -2.1273 -0.4324
   65MOL     H920617   3.952   2.570   2.607 -0.9654  0.7002 -1.7067
   65MOL    H1020618   4.073   2.840   2.541 -1.1920 -0.8044 -1.2464
   65MOL    H1120619   4.119   2.688   2.480  1.9898 -0.0304  0.2804
   65MOL    H1220620   4.221   2.623   2.703  0.1459 -0.1310 -0.7344
   65MOL    H1320621   4.185   2.796   2.751 -0.2634  1.8467 -1.6799
   65MOL    H1420622   4.294   2.756   2.623  1.6392 -3.7492 -0.0046
   65MOL    H1520623   3.683   2.859   2.432  1.6292 -0.2261 -0.9283
   65MOL    H1620624   3.684   2.693   2.363 -2.2721 -0.7338 -0.8622
   65MOL    H1720625   3.710   2.601   2.583  1.0467  0.5928  0.8006
   65MOL    C1820626   3.498   2.737   2.459 -0.0686 -0.8154 -0.2314
   65MOL    O1920627   3.458   2.823   2.564  0.2041  0.0378  0.6003
   65MOL    C2020628   3.318   2.815   2.593  0.6683  0.4195 -0.3456
   65MOL    C2120629   3.293   2.689   2.684  0.5692  0.4611  0.0175
   65MOL    C2220630   3.374   2.691   2.816 -0.7626 -0.6274 -0.4811
   65MOL    C2320631   3.423   2.777   2.326  0.2799  0.7563  0.1441
   65MOL    H2420632   3.479   2.633   2.482  1.6479 -1.0329  0.2861
   65MOL    H2520633   3.285   2.900   2.653 -1.6999  1.4213 -2.9412
   65MOL    H2620634   3.254   2.815   2.505  1.4773  0.9473 -0.9457
   65MOL    H2720635   3.310   2.601   2.622 -2.2842  0.0203 -0.2149
   65MOL    H2820636   3.186   2.686   2.703  0.5833  1.8380  0.3581
   65MOL    H2920637   3.354   2.599   2.871  0.7869 -0.1172  0.9637
   65MOL    H3020638   3.334   2.773   2.876  1.5121  0.1701  0.0021
   65MOL    H3120639   3.480   2.701   2.791 -0.9153  1.9153 -0.2752
   65MOL    H3220640   3.356   2.862   2.331 -0.2440  0.2778  1.2497
   65MOL    H3320641   3.500   2.812   2.257  1.2149 -1.0196  0.2545
   65MOL    C3420642   3.353   2.655   2.259 -0.0812  0.0369 -0.1274
   65MOL    O3520643   3.250   2.612   2.344 -0.6574  0.4342 -0.2821
   65MOL    C3620644   3.202   2.480   2.318 -0.3663  0.3614  0.2664
   65MOL    C3720645   3.091   2.440   2.410 -0.9085  0.0375 -0.3219
   65MOL    C3820646   2.978   2.539   2.415 -0.0655  0.7617  0.2006
   65MOL    C3920647   3.311   2.708   2.122 -0.4004  0.2167  0.3552
   65MOL    H4020648   3.431   2.578   2.261 -2.5175 -2.4715  1.4032
   65MOL    H4120649   3.154   2.481   2.220 -2.1863 -1.5006  1.1054
   65MOL    H4220650   3.283   2.407   2.313 -1.6011 -1.3598  3.8829
   65MOL    H4320651   3.138   2.427   2.507  1.2254 -1.5150 -1.5085
   65MOL    H4420652   3.064   2.339   2.379 -1.0574  0.3451 -1.2095
   65MOL    H4520653   2.941   2.559   2.315 -1.0379  3.9898  1.1326
   65MOL    H4620654   2.992   2.642   2.447  2.2990  0.2170  1.0060
   65MOL    H4720655   2.893   2.501   2.471  0.8617  1.5852  2.2188
   65MOL    H4820656   3.393   2.724   2.052 -2.1258  0.5959 -1.6389
   65MOL    H4920657   3.260   2.630   2.066  1.2537 -1.9798  1.8789
   65MOL    C5020658   3.228   2.844   2.107 -0.4096  0.8499 -0.0193
   65MOL    O5120659   3.223   2.901   1.972  0.0188 -0.6593 -0.0650
   65MOL    C5220660   3.343   2.960   1.924  1.0268  0.4831  0.3269
   65MOL    C5320661   3.319   2.983   1.777 -0.0086 -0.0544 -0.3856
   65MOL    C5420662   3.345   2.855   1.697  0.3295  1.1778 -0.4642
   65MOL    C5520663   3.086   2.835   2.169  0.0841  0.2725 -0.0292
   65MOL    H5620664   3.289   2.918   2.159  0.3295  0.8822 -0.9090
   65MOL    H5720665   3.381   3.046   1.981 -2.5667  2.1715  0.3325
   65MOL    H5820666   3.422   2.885   1.927 -0.3310 -1.0030 -0.7443
   65MOL    H5920667   3.385   3.061   1.741  1.3374 -0.8548  0.3305
   65MOL    H6020668   3.217   3.015   1.755  0.6293  0.5617 -2.5280
   65MOL    H6120669   3.290   2.776   1.747 -0.7899  1.3543 -1.3986
   65MOL    H6220670   3.447   2.817   1.685 -0.7403 -2.2194  0.7559
   65MOL    H6320671   3.299   2.863   1.598 -1.5627  1.6833  0.4374
   65MOL    H6420672   3.028   2.760   2.115  1.1573 -0.5061 -0.1171
   65MOL    H6520673   3.106   2.787   2.265  1.7493 -0.7910 -0.8906
   65MOL    C6620674   3.017   2.966   2.213 -0.2014 -0.1327 -0.1186
   65MOL    O6720675   2.911   2.936   2.306 -0.3547  0.0012  0.0169
   65MOL    C6820676   2.799   2.880   2.254  0.1681 -1.4275  0.1293
   65MOL    C6920677   2.702   2.869   2.365  0.6869 -0.0766 -0.7241
   65MOL    C7020678   2.634   2.998   2.405 -0.0730  0.0668 -0.6997
   65MOL    C7120679   3.119   3.069   2.273 -0.2316  0.7958  0.0781
   65MOL    H7220680   2.975   3.018   2.127 -0.5663 -2.3304 -1.3054
   65MOL    H7320681   2.760   2.946   2.177 -1.2450 -0.5475  1.5709
   65MOL    H7420682   2.826   2.784   2.209  1.2962 -1.3941  0.7044
   65MOL    H7520683   2.740   2.802   2.443 -1.5480 -1.2722 -0.6375
   65MOL    H7620684   2.622   2.814   2.315 -0.3991  0.2617  0.6246
   65MOL    H7720685   2.702   3.051   2.471 -1.0619  1.7824 -1.0304
   65MOL    H7820686   2.545   2.985   2.466 -0.0898 -0.2576 -0.7934
   65MOL    H7920687   2.607   3.066   2.324 -0.7827 -0.1859 -0.6779
   65MOL    H8020688   3.180   3.003   2.335  0.1749 -0.2814 -1.4484
   65MOL    H8120689   3.182   3.109   2.193 -0.7588  0.5427 -0.4643
   65MOL    C8220690   3.058   3.186   2.348 -0.0625 -0.2824 -0.7735
   65MOL    O8320691   3.159   3.281   2.385  0.1027  0.2624  0.2023
   65MOL    C8420692   3.257   3.258   2.488 -0.3532 -0.5065 -0.3628
   65MOL    C8520693   3.315   3.380   2.559  0.0246 -0.3484 -0.1782
   65MOL    C8620694   3.404   3.452   2.463  0.0821 -0.2303  0.0940
   65MOL    C8720695   2.957   3.267   2.264 -0.1588  0.5491  0.5195
   65MOL    H8820696   3.012   3.144   2.437 -3.2230  1.1609 -1.6709
   65MOL    H8920697   3.206   3.194   2.560 -1.2801  1.6429  0.9747
   65MOL    H9020698   3.339   3.195   2.455  0.2210 -0.5255  1.0759
   65MOL    H9120699   3.377   3.359   2.646 -1.0837  0.5199  0.8472
   65MOL    H9220700   3.246   3.455   2.599  0.0867 -1.0838  1.3163
   65MOL    H9320701   3.499   3.399   2.462  0.9773  1.3185  0.5728
   65MOL    H9420702   3.413   3.555   2.496  1.3366  0.4083 -2.1136
   65MOL    H9520703   3.352   3.452   2.367  0.1415  1.5110  0.0453
   65MOL    H9620704   3.011   3.299   2.174 -0.7579  0.0638 -0.0154
   65MOL    H9720705   2.872   3.210   2.227  0.0897  1.4938 -1.5803
   65MOL    C9820706   2.899   3.395   2.330 -0.2019 -0.2565  0.0728
   65MOL    O9920707   2.847   3.471   2.221 -0.1395 -0.7500  0.2797
   65MOL   C10020708   2.923   3.591   2.208 -0.1136 -0.0666 -0.1004
   65MOL   C10120709   2.858   3.673   2.093  0.1239 -0.2580 -0.3634
   65MOL   C10220710   2.735   3.751   2.139  0.3568  0.6352 -0.6097
   65MOL   C10320711   2.771   3.367   2.425 -0.6736 -0.0604  0.4294
   65MOL   H10420712   2.978   3.446   2.385 -1.4137  1.8516 -0.0930
   65MOL   H10520713   2.931   3.660   2.292  1.1626  0.0775 -0.3183
   65MOL   H10620714   3.021   3.571   2.164 -1.3691  0.7807 -3.3696
   65MOL   H10720715   2.815   3.619   2.009  0.3174  2.1649 -2.0672
   65MOL   H10820716   2.922   3.750   2.051 -0.7241  0.5424 -0.1962
   65MOL   H10920717   2.700   3.832   2.075  0.7815  0.7051 -0.7568
   65MOL   H11020718   2.749   3.805   2.233  0.5153 -2.4272  1.1778
   65MOL   H11120719   2.650   3.684   2.156  2.2372 -1.1327  2.3353
   65MOL   H11220720   2.693   3.324   2.363  0.0457 -2.0328  0.8578
   65MOL   H11320721   2.800   3.288   2.494  1.0228  0.5184  0.4100
   65MOL   C11420722   2.705   3.493   2.497 -0.0814  0.4131  0.3016
   65MOL   O11520723   2.593   3.450   2.568 -0.3681 -0.1574 -0.4822
   65MOL   C11620724   2.476   3.411   2.494  0.9951 -0.6774  0.2205
   65MOL   C11720725   2.422   3.506   2.378 -0.2656  0.4491  0.1666
   65MOL   C11820726   2.280   3.474   2.336 -0.2156  0.3346  0.0547
   65MOL   C11920727   2.799   3.576   2.581 -0.0960 -0.1287 -0.0439
   65MOL   H12020728   2.664   3.559   2.421  0.7715 -0.7411 -1.1946
   65MOL   H12120729   2.497   3.316   2.446  0.8982  1.1816 -3.6989
   65MOL   H12220730   2.391   3.396   2.561 -0.2323 -2.1049 -1.6335
   65MOL   H12320731   2.490   3.518   2.293  3.1680  1.5260  2.9463
   65MOL   H12420732   2.425   3.607   2.418  1.0734  0.7768 -0.7064
   65MOL   H12520733   2.244   3.530   2.250 -1.6992 -2.3179 -1.0755
   65MOL   H12620734   2.210   3.493   2.417  1.4422 -0.2424  1.6735
   65MOL   H12720735   2.277   3.370   2.304 -1.4258  0.7921 -1.3607
   65MOL   H12820736   2.884   3.610   2.521  0.8493 -1.0218  0.7730
   65MOL   H12920737   2.749   3.672   2.599 -1.0913 -0.4720 -0.9160
   65MOL   C13020738   2.831   3.510   2.710 -0.2268  0.1665  0.2108
   65MOL   O13120739   2.915   3.405   2.681 -0.6813 -0.3723 -0.3202
   65MOL   C13220740   2.906   3.304   2.785 -0.6484  0.5757  0.8766
   65MOL   C13320741   3.005   3.186   2.772 -0.0291 -0.2796  0.0514
   65MOL   C13420742   3.146   3.234   2.829 -0.3973  0.3603 -0.4621
   65MOL   C13520743   2.914   3.602   2.792  0.3536 -0.0594 -0.1960
   65MOL   H13620744   2.741   3.480   2.763 -0.3761 -0.8446 -0.5894
   65MOL   H13720745   2.914   3.341   2.887  1.0647 -0.2898  1.0870
   65MOL   H13820746   2.807   3.259   2.780 -1.8762  3.3078 -0.2551
   65MOL   H13920747   3.007   3.159   2.667  0.9260  1.0455 -0.2797
   65MOL   H14020748   2.974   3.094   2.822 -0.1760  0.0539  0.5784
   65MOL   H14120749   3.152   3.235   2.938 -0.4810  0.7220 -0.4602
   65MOL   H14220750   3.173   3.332   2.788  0.2512  1.4323  2.4198
   65MOL   H14320751   3.217   3.154   2.808 -0.0295  0.6230 -0.2428
   65MOL   H14420752   2.983   3.554   2.861 -1.3015  1.8165  2.8909
   65MOL   H14520753   2.975   3.661   2.723 -0.0569  1.0011  0.3365
   65MOL   C14620754   2.824   3.692   2.887  0.0028  0.0311 -0.7582
   65MOL   O14720755   2.786   3.613   2.997  0.3305 -0.4610  0.4747
   65MOL   C14820756   2.676   3.666   3.068  0.4781 -0.6593  0.3911
   65MOL   C14920757   2.676   3.599   3.203  0.3969 -0.3995 -0.8895
   65MOL   C15020758   2.551   3.648   3.278 -0.1709 -0.2684 -0.0085
   65MOL   C15120759   2.906   3.813   2.934 -0.0130 -0.4853 -0.2332
   65MOL   H15220760   2.737   3.722   2.830 -1.0149 -0.7724  0.3366
   65MOL   H15320761   2.694   3.771   3.093 -1.5681 -0.5161  1.3473
   65MOL   H15420762   2.578   3.667   3.021  0.8227  2.5432 -0.4188
   65MOL   H15520763   2.774   3.621   3.244 -1.4427  1.1387  2.8902
   65MOL   H15620764   2.669   3.491   3.190  0.0694 -0.3983 -0.7327
   65MOL   H15720765   2.530   3.595   3.371  0.7344 -3.0377 -1.3459
   65MOL   H15820766   2.462   3.653   3.216  0.1375 -3.0908 -0.7264
   65MOL   H15920767   2.562   3.753   3.306  0.2803 -0.6915  1.4677
   65MOL   H16020768   2.875   3.868   3.023  1.4560  1.2324 -0.7541
   65MOL   H16120769   3.010   3.785   2.950  0.2373 -0.0177 -0.9979
   65MOL   C16220770   2.903   3.924   2.827 -0.3273  0.2871 -0.2925
   65MOL   O16320771   2.774   3.951   2.776  0.1204  0.4575  0.0462
   65MOL   C16420772   2.774   3.981   2.634 -0.2113 -0.2142 -0.0395
   65MOL   C16520773   2.628   4.006   2.594  0.1542  0.0424 -0.3325
   65MOL   C16620774   2.544   3.877   2.589 -0.7387  0.4697 -0.4671
   65MOL   C16720775   2.956   4.061   2.875  0.3928  0.2787 -0.0209
   65MOL   H16820776   2.972   3.883   2.753  0.7716  0.8510  0.3935
   65MOL   H16920777   2.818   4.080   2.620 -1.9282  1.0731  3.1027
   65MOL   H17020778   2.812   3.908   2.564  1.0825  0.4374 -0.0247
   65MOL   H17120779   2.644   4.030   2.489  0.2620  1.8476  0.0677
   65MOL   H17220780   2.565   4.083   2.640 -0.5271  0.8624 -2.5592
   65MOL   H17320781   2.564   3.824   2.496 -1.8882 -0.7925 -0.0051
   65MOL   H17420782   2.436   3.891   2.589 -0.5832  1.7618 -0.6946
   65MOL   H17520783   2.563   3.803   2.667  2.1873  0.8908 -0.7216
   65MOL   H17620784   2.950   4.136   2.796  0.4713 -0.0026 -0.2949
   65MOL   H17720785   2.882   4.088   2.951 -0.3250 -0.7908 -0.3238
   65MOL   C17820786   3.100   4.083   2.931 -0.0047  0.0990  0.2463
   65MOL   O17920787   3.124   4.024   3.060 -0.6109 -0.0403 -0.2195
   65MOL   C18020788   3.094   4.101   3.175 -0.5730  0.2048  0.6412
   65MOL   C18120789   3.091   4.018   3.305 -0.1232 -0.2927  0.1078
   65MOL   C18220790   2.970   3.928   3.320  0.1859  0.7076  0.2840
   65MOL   C18320791   3.210   4.020   2.840 -0.3858  0.1491 -0.1595
   65MOL   H18420792   3.135   4.186   2.942  2.6381 -0.7608  0.0913
   65MOL   H18520793   3.153   4.193   3.180  0.5455 -0.4996  0.6296
   65MOL   H18620794   2.994   4.143   3.163  0.4467  2.1447 -1.3871
   65MOL   H18720795   3.077   4.086   3.389 -0.2304  0.6131 -0.6236
   65MOL   H18820796   3.191   3.977   3.319  1.1547  3.0092  1.3320
   65MOL   H18920797   2.999   3.848   3.389  0.2055  0.7605  0.3383
   65MOL   H19020798   2.954   3.877   3.225  1.0286  1.2208 -0.1373
   65MOL   H19120799   2.878   3.971   3.359  0.5713  2.5186 -0.7835
   65MOL   H19220800   3.196   3.912   2.848  1.0384  0.0189  0.6266
   65MOL   H19320801   3.188   4.050   2.738 -0.4295  0.8641  0.0575
   65MOL   C19420802   3.356   4.055   2.862 -0.3341 -0.1068  0.6287
   65MOL   O19520803   3.371   4.194   2.840  0.0976  0.3378  0.3295
   65MOL   C19620804   3.499   4.233   2.781 -0.9654 -0.0973  0.4720
   65MOL   C19720805   3.495   4.224   2.627  0.1655 -0.8218  0.0943
   65MOL   C19820806   3.639   4.205   2.569  0.0192  0.3669 -0.0797
   65MOL   C19920807   3.427   4.008   2.994 -0.0974 -0.6946 -0.7310
   65MOL   H20020808   3.404   4.009   2.775  0.9786  0.7233  0.8983
   65MOL   H20120809   3.509   4.337   2.809 -2.3602  0.1870 -0.0547
   65MOL   H20220810   3.586   4.181   2.821  0.9456 -0.7380 -4.1434
   65MOL   H20320811   3.450   4.309   2.575  1.3975  0.0516  0.4171
   65MOL   H20420812   3.433   4.140   2.597 -0.9674  1.8126 -5.5892
   65MOL   H20520813   3.710   4.150   2.630  1.5143  0.5635 -1.6037
   65MOL   H20620814   3.682   4.305   2.557 -0.0294  0.7022  2.3123
   65MOL   H20720815   3.635   4.168   2.466 -0.0666 -0.2863  0.1552
   65MOL   H20820816   3.523   4.059   2.998  0.2124 -1.1662 -2.0398
   65MOL   H20920817   3.381   4.043   3.087  2.7277 -2.1094  1.2686
   65MOL   C21020818   3.456   3.859   2.998 -0.2558  0.9451 -0.3544
   65MOL   O21120819   3.546   3.841   2.888  0.4137 -0.1692 -0.4474
   65MOL   C21220820   3.555   3.711   2.830 -0.4245 -0.2877 -0.4412
   65MOL   C21320821   3.644   3.709   2.709  0.2896  0.3637 -0.3970
   65MOL   C21420822   3.596   3.801   2.594  0.1501 -0.1588  0.4848
   65MOL   C21520823   3.531   3.820   3.134 -1.0224 -0.4555  0.2386
   65MOL   H21620824   3.365   3.799   2.987 -1.2391  2.0698  1.4565
   65MOL   H21720825   3.610   3.647   2.899 -1.0305  1.2979  1.5788
   65MOL   H21820826   3.469   3.650   2.803  0.1815 -1.6499  0.6965
   65MOL   H21920827   3.654   3.611   2.663 -1.4943 -0.2748  0.5476
   65MOL   H22020828   3.744   3.740   2.742 -0.8257  0.4191  3.0620
   65MOL   H22120829   3.649   3.778   2.501  3.2976  2.4642  1.5283
   65MOL   H22220830   3.610   3.908   2.611 -0.7651 -0.0759  0.7090
   65MOL   H22320831   3.489   3.785   2.580  0.3756 -2.6349  1.3982
   65MOL   H22420832   3.592   3.731   3.118  1.9691  2.0405 -2.8718
   65MOL   H22520833   3.614   3.889   3.147  0.3212 -1.9878 -0.1021
   65MOL   C22620834   3.446   3.801   3.267  0.1046 -0.3976  0.4781
   65MOL   O22720835   3.380   3.678   3.242 -0.5359  0.1645 -0.1623
   65MOL   C22820836   3.245   3.687   3.250  0.2437 -0.5388  0.0585
   65MOL   C22920837   3.184   3.554   3.192 -0.0593 -0.5444  0.5028
   65MOL   C23020838   3.030   3.555   3.193 -0.4905 -0.1364 -0.6906
   65MOL   C23120839   3.527   3.781   3.393  0.4301  0.1760 -0.1618
   65MOL   H23220840   3.390   3.894   3.281  2.8407  1.4942 -0.6962
   65MOL   H23320841   3.220   3.700   3.356  1.6102 -0.3672  0.3687
   65MOL   H23420842   3.211   3.762   3.179  3.2953  0.8376 -0.0172
   65MOL   H23520843   3.228   3.463   3.234 -0.1773 -0.2828  1.1969
   65MOL   H23620844   3.221   3.555   3.089 -0.1200  1.2093  0.4800
   65MOL   H23720845   3.001   3.540   3.297 -2.7182 -2.4943 -1.5862
   65MOL   H23820846   2.986   3.480   3.127  0.4510 -1.4138  0.0874
   65MOL   H23920847   2.998   3.649   3.150  0.5106 -0.5540 -2.3972
   65MOL   H24020848   3.582   3.687   3.381 -0.8318 -0.7629  1.3271
   65MOL   H24120849   3.607   3.855   3.388  2.1958 -1.7517 -1.5464
   65MOL   C24220850   3.457   3.796   3.531 -0.9720  0.6256 -0.6455
   65MOL   O24320851   3.534   3.727   3.627 -0.4009  0.2162  0.5381
   65MOL   C24420852   3.484   3.598   3.652 -0.0875 -0.0960 -0.3465
   65MOL   C24520853   3.592   3.510   3.727  0.3138 -0.2796 -0.4361
   65MOL   C24620854   3.633   3.573   3.856  0.1938  0.1163 -0.6394
   65MOL   C24720855   3.446   3.942   3.575  0.1858 -0.5903 -0.7555
   65MOL   H24820856   3.359   3.750   3.520  0.2273 -1.9378 -0.8467
   65MOL   H24920857   3.393   3.610   3.711  0.5333  3.1500  0.0214
   65MOL   H25020858   3.466   3.533   3.567  3.2901 -1.7997  0.1521
   65MOL   H25120859   3.673   3.505   3.655  1.0145 -0.2949  0.3421
   65MOL   H25220860   3.564   3.407   3.746  0.4815  0.0862  1.9451
   65MOL   H25320861   3.547   3.611   3.911 -0.2427 -0.5516 -0.8407
   65MOL   H25420862   3.700   3.652   3.822 -0.8520  2.1342  1.8574
   65MOL   H25520863   3.692   3.504   3.917  1.4442  0.5896 -1.2961
   65MOL   H25620864   3.545   3.976   3.607  0.6054 -1.0159 -1.5917
   65MOL   H25720865   3.409   4.006   3.495 -0.9162 -1.1293 -0.6898
   65MOL   C25820866   3.358   3.959   3.705  0.1831  0.4413 -0.9827
   65MOL   O25920867   3.353   4.094   3.751 -0.2942 -0.4077  0.5042
   65MOL   C26020868   3.458   4.117   3.845  1.0441 -0.7976 -0.8690
   65MOL   C26120869   3.475   4.270   3.834 -0.1713  0.3134 -0.3252
   65MOL   C26220870   3.551   4.300   3.702  0.0130  0.0651  0.1569
   65MOL   C26320871   3.215   3.918   3.683 -0.1117 -0.0890  0.2533
   65MOL   H26420872   3.389   3.886   3.779 -1.6303  0.5560 -0.1026
   65MOL   H26520873   3.416   4.096   3.943  2.9799  0.9574  0.3782
   65MOL   H26620874   3.550   4.067   3.815  0.5552 -2.3278  0.1594
   65MOL   H26720875   3.538   4.312   3.913  0.2104  0.4208 -0.6863
   65MOL   H26820876   3.377   4.318   3.832 -0.8262 -1.0288 -0.9997
   65MOL   H26920877   3.508   4.259   3.611 -1.7242  2.0993  0.0229
   65MOL   H27020878   3.654   4.264   3.702 -0.3661 -1.0630 -0.8976
   65MOL   H27120879   3.552   4.409   3.691  0.2438 -0.0004 -0.4824
   65MOL   H27220880   3.178   3.974   3.597  0.3734  0.4070  0.3617
   65MOL   H27320881   3.209   3.813   3.655  0.0512  0.6620 -2.6892
   65MOL   C27420882   3.116   3.933   3.798 -0.7748 -0.5076 -0.3609
   65MOL   O27520883   2.991   3.890   3.756 -0.4195 -0.3064 -0.3890
   65MOL   C27620884   2.916   3.986   3.672 -0.4138 -0.2372  0.0127
   65MOL   C27720885   2.768   3.961   3.676  0.0644 -0.1381 -0.5175
   65MOL   C27820886   2.729   3.825   3.625  0.4519 -0.4459 -0.0114
   65MOL   C27920887   3.169   3.850   3.918 -0.4310 -0.0543 -0.4075
   65MOL   H28020888   3.112   4.036   3.833  0.0610 -0.2659 -0.9622
   65MOL   H28120889   2.944   4.087   3.702 -1.0984 -0.7921  2.7193
   65MOL   H28220890   2.951   3.977   3.570  0.2327  0.5575  0.1598
   65MOL   H28320891   2.709   4.038   3.626  1.2819  0.7251 -0.6268
   65MOL   H28420892   2.732   3.964   3.779 -0.8420  2.2393 -0.8661
   65MOL   H28520893   2.794   3.741   3.652  0.7130 -0.1126  0.4027
   65MOL   H28620894   2.710   3.826   3.518 -1.3812 -0.3219  0.2978
   65MOL   H28720895   2.635   3.793   3.669  0.3620  0.3626  0.3819
   65MOL   H28820896   3.176   3.744   3.895 -1.3382 -0.4242  0.9019
   65MOL   H28920897   3.266   3.888   3.949 -0.4029  0.5882 -1.2700
   65MOL   C29020898   3.081   3.868   4.045  0.2271  0.5263 -0.7160
   65MOL   O29120899   2.964   3.796   4.037 -0.4665  0.1877  0.0116
   65MOL   C29220900   2.840   3.866   4.076 -0.2678 -0.1102  0.3175
   65MOL   C29320901   2.722   3.770   4.108  0.4169  0.6340  0.7504
   65MOL   C29420902   2.657   3.696   3.989 -0.1062 -0.5752 -0.1067
   65MOL   C29520903   3.155   3.819   4.172 -0.1726 -0.2591  0.1657
   65MOL   H29620904   3.058   3.973   4.060 -0.8769  0.1707  0.1392
   65MOL   H29720905   2.862   3.926   4.165  0.5090 -0.6522  0.5005
   65MOL   H29820906   2.815   3.923   3.988  1.0842  0.3814  0.2360
   65MOL   H29920907   2.643   3.833   4.149  1.6607  2.9767 -0.3072
   65MOL   H30020908   2.746   3.705   4.192 -1.8897  1.2209  1.9135
   65MOL   H30120909   2.604   3.614   4.036  0.0825 -1.2345 -1.0487
   65MOL   H30220910   2.732   3.662   3.918  1.2752 -0.8027  1.4190
   65MOL   H30320911   2.592   3.758   3.927 -1.0846  0.0914  1.5369
   65MOL   H30420912   3.171   3.713   4.151 -0.7626  0.0149 -1.7105
   65MOL   H30520913   3.249   3.873   4.172  0.1263 -0.7714  0.3132
   65MOL   C30620914   3.092   3.842   4.305  0.0468 -0.0755 -0.3639
   65MOL   O30720915   3.183   3.781   4.391 -0.3077 -0.0716  0.0784
   65MOL   C30820916   3.132   3.731   4.509  0.1174 -0.4348  0.0903
   65MOL   C30920917   3.249   3.668   4.586 -0.6799 -0.1567 -0.8299
   65MOL   C31020918   3.297   3.533   4.545  0.1122  0.2573  0.3870
   65MOL   C31120919   3.088   3.987   4.347 -0.4706  0.3964 -0.0560
   65MOL   H31220920   2.992   3.799   4.310 -1.1939  2.9088  1.8619
   65MOL   H31320921   3.102   3.813   4.575  0.9933  1.1032 -1.3925
   65MOL   H31420922   3.053   3.658   4.499  0.1288 -0.5291  0.6591
   65MOL   H31520923   3.214   3.648   4.688  2.6286 -0.6536  0.2565
   65MOL   H31620924   3.332   3.737   4.602  0.1963 -1.4692  0.4527
   65MOL   H31720925   3.212   3.467   4.529  0.3138 -0.0985  0.8003
   65MOL   H31820926   3.350   3.478   4.622 -0.0491 -2.1324 -1.1515
   65MOL   H31920927   3.372   3.542   4.466  0.6676 -2.4399  0.5717
   65MOL   H32020928   3.045   4.000   4.446  0.1394 -1.0167  0.4140
   65MOL   H32120929   3.188   4.028   4.365 -0.9222  2.3364 -1.8348
   65MOL   H32220930   3.030   4.054   4.284  1.5700  1.5112 -0.7914
   66MOL     C120931   6.517   1.066   3.103 -0.4554  0.2388 -0.5887
   66MOL     O220932   6.532   1.084   3.246  0.4623  0.2374 -0.7909
   66MOL     C320933   6.531   0.954   3.312  0.2626  0.0022 -0.6770
   66MOL     C420934   6.535   0.978   3.464  0.0109  0.5742 -1.1126
   66MOL     C520935   6.572   0.853   3.553  0.4267  0.3980 -0.4681
   66MOL     C620936   6.528   1.202   3.024 -0.1255 -0.2608  0.6278
   66MOL     H720937   6.422   1.015   3.086 -0.5512  0.4274 -0.6159
   66MOL     H820938   6.442   0.900   3.281  0.9840 -1.2775 -0.5252
   66MOL     H920939   6.615   0.899   3.268  2.3295  2.9767 -0.6029
   66MOL    H1020940   6.433   1.007   3.490  0.0314  0.8019 -1.2779
   66MOL    H1120941   6.609   1.057   3.476 -2.0847  2.4402 -0.1113
   66MOL    H1220942   6.537   0.757   3.516  1.4557  0.6100 -2.0090
   66MOL    H1320943   6.543   0.858   3.658  1.2864 -0.4684 -0.1752
   66MOL    H1420944   6.680   0.839   3.553  0.6529  1.6099  2.6738
   66MOL    H1520945   6.624   1.247   3.048  0.5943 -2.2974  1.6841
   66MOL    H1620946   6.529   1.185   2.916 -0.4846  0.0565  0.5736
   66MOL    H1720947   6.601   1.001   3.077 -0.2371  0.2896 -0.0142
   66MOL    C1820948   6.427   1.299   3.086  1.3843  0.2964  0.5725
   66MOL    O1920949   6.428   1.419   3.006 -0.2501  0.0293  0.4171
   66MOL    C2020950   6.484   1.541   3.054  0.1516  0.6402  0.2936
   66MOL    C2120951   6.453   1.651   2.954  0.2391 -0.3539 -0.6034
   66MOL    C2220952   6.301   1.696   2.971  0.1054 -0.1362  0.0889
   66MOL    C2320953   6.279   1.254   3.081 -0.0647 -0.4031  0.3375
   66MOL    H2420954   6.451   1.326   3.189  2.0084  2.9408 -0.2220
   66MOL    H2520955   6.442   1.584   3.145  0.6004 -1.4661  1.5463
   66MOL    H2620956   6.591   1.523   3.052 -0.2583 -1.7835 -2.2124
   66MOL    H2720957   6.459   1.624   2.849 -4.0567  0.7118 -1.1891
   66MOL    H2820958   6.521   1.730   2.986  0.3211 -0.8505  0.4777
   66MOL    H2920959   6.230   1.614   2.957 -1.3302  0.7852  1.7402
   66MOL    H3020960   6.291   1.775   2.896  0.5395  0.4532  0.6501
   66MOL    H3120961   6.274   1.732   3.070 -0.1170 -4.3600  1.6703
   66MOL    H3220962   6.226   1.319   3.012  1.5526  0.6541  0.0886
   66MOL    H3320963   6.271   1.154   3.038  0.9882  0.4773 -1.9942
   66MOL    C3420964   6.205   1.231   3.211 -0.3211  0.2824  0.3105
   66MOL    O3520965   6.173   1.348   3.277  0.1145 -0.4189 -0.2311
   66MOL    C3620966   6.238   1.366   3.396 -0.3302 -0.9537 -0.3079
   66MOL    C3720967   6.189   1.499   3.464 -0.0201 -0.3309 -0.1514
   66MOL    C3820968   6.199   1.485   3.614 -0.5987 -0.1835  0.9552
   66MOL    C3920969   6.076   1.152   3.187 -0.2479 -0.4658 -0.7206
   66MOL    H4020970   6.266   1.166   3.275 -0.8340  0.0749  0.5938
   66MOL    H4120971   6.227   1.277   3.458  1.3920 -0.2904  1.0034
   66MOL    H4220972   6.345   1.374   3.377 -0.0721  0.2937  1.5628
   66MOL    H4320973   6.083   1.513   3.442 -0.8108 -0.8800  3.0924
   66MOL    H4420974   6.240   1.589   3.430 -1.0425  1.5868  3.2114
   66MOL    H4520975   6.303   1.482   3.649 -0.3502 -0.2547  0.2241
   66MOL    H4620976   6.142   1.397   3.644 -1.7671  0.5942  1.0119
   66MOL    H4720977   6.145   1.567   3.660  1.4340  0.6544  1.9041
   66MOL    H4820978   6.024   1.223   3.123 -1.2206  1.2902  1.9227
   66MOL    H4920979   6.099   1.065   3.125  0.1558 -0.6585 -0.3043
   66MOL    C5020980   5.986   1.102   3.303  0.9149  0.3651 -0.2091
   66MOL    O5120981   6.068   1.026   3.389 -0.3561 -0.2203 -0.1527
   66MOL    C5220982   5.998   0.954   3.486 -0.3530 -0.6219  0.2769
   66MOL    C5320983   6.088   0.854   3.561 -0.4672  0.0100  0.1723
   66MOL    C5420984   6.131   0.733   3.477 -0.6403 -0.0537  0.6502
   66MOL    C5520985   5.904   1.215   3.367 -0.9405 -0.0901  0.0663
   66MOL    H5620986   5.920   1.032   3.251  0.3046 -0.1767  1.2885
   66MOL    H5720987   5.949   1.018   3.558  1.9367  0.8541  0.5890
   66MOL    H5820988   5.919   0.895   3.439  0.4425 -1.2002 -0.3743
   66MOL    H5920989   6.041   0.815   3.651  0.7687 -1.0074  0.3936
   66MOL    H6020990   6.175   0.903   3.605  0.9874 -2.2245 -0.0962
   66MOL    H6120991   6.178   0.783   3.393 -0.2140 -2.4406 -0.5798
   66MOL    H6220992   6.052   0.670   3.436  0.7556 -0.9641 -0.7098
   66MOL    H6320993   6.199   0.669   3.534 -0.1459  1.4144  1.7515
   66MOL    H6420994   5.874   1.189   3.468  0.8460  2.0148  1.1727
   66MOL    H6520995   5.959   1.301   3.403  0.9745 -1.5092  0.6281
   66MOL    C6620996   5.786   1.267   3.283 -0.4134 -0.6558 -0.3135
   66MOL    O6720997   5.683   1.168   3.299  0.3149 -0.0562 -0.2305
   66MOL    C6820998   5.627   1.116   3.182 -0.1766 -0.0379  0.0021
   66MOL    C6920999   5.531   1.001   3.216  0.4197 -0.0402 -0.0086
   66MOL    C7021000   5.463   0.942   3.094 -0.3338  0.5749 -0.7216
   66MOL    C7121001   5.723   1.403   3.328  0.1818  0.6509  0.2732
   66MOL    H7221002   5.808   1.281   3.178 -2.2973 -1.6193 -0.8627
   66MOL    H7321003   5.583   1.200   3.128 -0.7887  0.7348  1.6566
   66MOL    H7421004   5.718   1.087   3.130  0.7522  1.4215  0.7659
   66MOL    H7521005   5.457   1.046   3.282  0.8010 -1.0048  1.0914
   66MOL    H7621006   5.570   0.924   3.282 -1.4940 -1.6345 -0.7017
   66MOL    H7721007   5.528   0.888   3.025 -3.0803 -1.9215 -1.4374
   66MOL    H7821008   5.400   1.012   3.038 -0.7264 -0.1413 -1.1793
   66MOL    H7921009   5.403   0.854   3.116  0.5184  0.2259  0.2219
   66MOL    H8021010   5.627   1.417   3.278 -0.2048  3.3516  1.7020
   66MOL    H8121011   5.692   1.387   3.432 -0.7598 -0.4734 -0.1635
   66MOL    C8221012   5.811   1.530   3.298  0.3627  0.5562  0.3207
   66MOL    O8321013   5.832   1.566   3.155  0.6743 -0.2620  0.3260
   66MOL    C8421014   5.954   1.519   3.103  0.3234 -0.2138  1.1456
   66MOL    C8521015   5.946   1.538   2.948  0.1035  0.2915 -0.2307
   66MOL    C8621016   5.833   1.460   2.885 -0.4610  0.9181  0.7203
   66MOL    C8721017   5.758   1.664   3.368  0.3640 -0.5413 -0.7136
   66MOL    H8821018   5.907   1.516   3.347  0.1398 -1.8853  0.1293
   66MOL    H8921019   6.039   1.575   3.143  1.7368 -2.7063  1.7427
   66MOL    H9021020   5.977   1.417   3.134  1.8579  0.1184  1.1230
   66MOL    H9121021   6.040   1.519   2.898  0.0730  2.0153 -0.9767
   66MOL    H9221022   5.930   1.645   2.933  1.7396  0.1336 -3.4447
   66MOL    H9321023   5.745   1.474   2.947 -1.0912  3.3940 -0.6659
   66MOL    H9421024   5.865   1.356   2.893  1.3619  1.5337  1.7147
   66MOL    H9521025   5.818   1.467   2.777 -2.9975 -1.6869  0.8491
   66MOL    H9621026   5.658   1.697   3.342  0.0116 -2.4553 -1.9365
   66MOL    H9721027   5.761   1.644   3.475 -0.2888 -0.7334 -0.7288
   66MOL    C9821028   5.844   1.791   3.363 -0.1467  0.2185  0.2463
   66MOL    O9921029   5.780   1.879   3.453  0.2700  0.2646  0.3667
   66MOL   C10021030   5.700   1.979   3.399 -0.4915 -0.1902  0.0479
   66MOL   C10121031   5.635   2.063   3.512 -0.0541 -0.4447 -1.0626
   66MOL   C10221032   5.527   2.156   3.457 -0.5345  0.2242 -1.0265
   66MOL   C10321033   5.989   1.778   3.405 -0.1797 -0.4681 -0.4762
   66MOL   H10421034   5.827   1.828   3.261 -1.3459  0.4637  0.5256
   66MOL   H10521035   5.756   2.048   3.336 -0.3721  1.2053  1.6416
   66MOL   H10621036   5.620   1.934   3.341 -0.2638 -1.0739  0.4055
   66MOL   H10721037   5.714   2.119   3.561  0.4811 -0.4750 -1.8836
   66MOL   H10821038   5.583   1.997   3.582  0.6089  0.7655  0.5936
   66MOL   H10921039   5.579   2.225   3.391  0.8454 -0.3254 -0.5364
   66MOL   H11021040   5.486   2.226   3.530  0.9091 -0.6610  0.6816
   66MOL   H11121041   5.445   2.105   3.407 -1.1352  0.1758 -0.0077
   66MOL   H11221042   5.989   1.742   3.508  2.6471  0.8760  0.0687
   66MOL   H11321043   6.043   1.718   3.332  2.2655  1.2795 -0.1802
   66MOL   C11421044   6.065   1.917   3.404  0.3238 -0.2443  0.3107
   66MOL   O11521045   6.196   1.898   3.475 -0.0775 -0.2005 -0.4144
   66MOL   C11621046   6.193   1.918   3.617  0.3312 -0.1972  0.0250
   66MOL   C11721047   6.333   1.918   3.668  0.0599  0.6367  0.2427
   66MOL   C11821048   6.425   2.034   3.620  0.7366 -0.6909 -0.2332
   66MOL   C11921049   6.103   1.983   3.264  0.4167  1.1608 -0.4729
   66MOL   H12021050   5.999   1.980   3.463 -0.0483  0.3665 -0.7433
   66MOL   H12121051   6.150   2.014   3.646 -1.7846 -0.9455 -0.4881
   66MOL   H12221052   6.128   1.845   3.666 -1.8537  1.1116 -0.8526
   66MOL   H12321053   6.369   1.817   3.646 -0.4569  0.6047 -0.4668
   66MOL   H12421054   6.322   1.931   3.776  3.8908  2.8732  0.4378
   66MOL   H12521055   6.383   2.131   3.648  0.9817 -0.9280  0.9843
   66MOL   H12621056   6.437   2.030   3.512  2.4028  0.5551 -0.1167
   66MOL   H12721057   6.522   2.025   3.668  0.2380 -0.9593  0.7615
   66MOL   H12821058   6.148   1.893   3.220 -0.8686 -0.0874  0.7088
   66MOL   H12921059   6.015   2.005   3.203 -0.3635 -1.2719 -0.2815
   66MOL   C13021060   6.187   2.107   3.278 -1.2634  0.6276 -0.5266
   66MOL   O13121061   6.231   2.154   3.152 -0.2790  0.2320  0.9669
   66MOL   C13221062   6.335   2.089   3.097 -0.2224 -0.6498 -0.2546
   66MOL   C13321063   6.385   2.184   2.983 -0.0315  0.3813 -0.3958
   66MOL   C13421064   6.427   2.322   3.033  0.2067  0.9936 -0.2569
   66MOL   C13521065   6.122   2.221   3.363 -0.3933  0.4618  0.3065
   66MOL   H13621066   6.272   2.076   3.338 -3.0316 -1.8376  0.7729
   66MOL   H13721067   6.422   2.083   3.161 -0.6137 -1.5786  0.2113
   66MOL   H13821068   6.299   1.988   3.078 -1.0170 -0.4963  0.4245
   66MOL   H13921069   6.300   2.188   2.916 -1.9680  2.5225  2.1200
   66MOL   H14021070   6.467   2.128   2.938 -0.4858 -0.7172  0.1384
   66MOL   H14121071   6.460   2.388   2.952  0.9358  1.8809  0.7436
   66MOL   H14221072   6.501   2.315   3.113 -1.4244  0.5475  1.2427
   66MOL   H14321073   6.345   2.381   3.076 -1.8801 -1.3307 -0.9325
   66MOL   H14421074   6.017   2.238   3.338 -1.1801 -2.0768  1.7246
   66MOL   H14521075   6.105   2.181   3.463 -1.2366 -0.5531 -0.2270
   66MOL   C14621076   6.185   2.359   3.381  0.0103 -0.8680  0.4022
   66MOL   O14721077   6.126   2.418   3.497 -0.1624 -0.2175  0.4757
   66MOL   C14821078   5.993   2.475   3.482  0.2240 -0.5427 -0.0022
   66MOL   C14921079   5.945   2.539   3.609 -0.1884 -0.0075 -0.0555
   66MOL   C15021080   5.820   2.627   3.591  0.1544 -0.0245  0.3255
   66MOL   C15121081   6.335   2.360   3.427  0.2142 -0.3490 -0.2282
   66MOL   H15221082   6.173   2.422   3.293 -0.5810 -0.0708  1.0500
   66MOL   H15321083   6.002   2.548   3.402 -1.0026  1.1588  1.3822
   66MOL   H15421084   5.914   2.405   3.455  0.1049  0.1417 -1.4305
   66MOL   H15521085   6.022   2.599   3.658 -1.7093  0.7850  1.3907
   66MOL   H15621086   5.931   2.461   3.683  2.0070 -0.8228 -0.4441
   66MOL   H15721087   5.842   2.727   3.555  0.1408  0.6359  2.1231
   66MOL   H15821088   5.767   2.625   3.686 -0.1921 -0.4722  0.1266
   66MOL   H15921089   5.746   2.578   3.527  1.9413 -1.1117 -0.9386
   66MOL   H16021090   6.343   2.310   3.524  0.5275 -1.1604 -0.6692
   66MOL   H16121091   6.404   2.298   3.371  1.5437  0.4492  0.4976
   66MOL   C16221092   6.407   2.495   3.444 -0.5142  0.0145  0.7368
   66MOL   O16321093   6.542   2.466   3.506 -0.4238  0.7262  0.3040
   66MOL   C16421094   6.551   2.489   3.648  0.0701  0.1722  0.0164
   66MOL   C16521095   6.690   2.453   3.716  0.1549 -0.1391  0.6995
   66MOL   C16621096   6.731   2.309   3.687  0.1043  0.4217  0.3082
   66MOL   C16721097   6.444   2.570   3.311  0.0308 -1.0915  0.2684
   66MOL   H16821098   6.340   2.550   3.509 -0.3626 -0.7525  1.5433
   66MOL   H16921099   6.513   2.588   3.674  0.0861  0.5743 -1.4258
   66MOL   H17021100   6.486   2.420   3.701 -0.1106  1.2038  1.1419
   66MOL   H17121101   6.682   2.465   3.824 -1.5046  1.2551  0.4340
   66MOL   H17221102   6.768   2.521   3.682 -2.0867  1.0919 -2.1854
   66MOL   H17321103   6.679   2.235   3.748 -0.3922  0.3415 -0.1986
   66MOL   H17421104   6.836   2.300   3.713 -0.4380 -0.9171  2.1326
   66MOL   H17521105   6.723   2.279   3.582  0.7670  1.8341 -0.1496
   66MOL   H17621106   6.514   2.512   3.251  0.5760 -1.7367  1.4876
   66MOL   H17721107   6.357   2.584   3.247  1.8401  1.5607 -1.6933
   66MOL   C17821108   6.492   2.718   3.316 -0.2666  0.2864 -0.6073
   66MOL   O17921109   6.612   2.733   3.393  0.4122 -0.0967 -0.3248
   66MOL   C18021110   6.636   2.857   3.455  0.0825  0.5295 -1.0293
   66MOL   C18121111   6.776   2.834   3.513  1.3212 -0.0816  0.2741
   66MOL   C18221112   6.886   2.849   3.411 -0.2062 -0.2423  0.2641
   66MOL   C18321113   6.513   2.781   3.181  0.0057 -0.6097  0.1504
   66MOL   H18421114   6.413   2.776   3.365 -0.8484 -0.4692 -0.6536
   66MOL   H18521115   6.636   2.945   3.391  1.2144  2.1466  1.1266
   66MOL   H18621116   6.558   2.885   3.525  0.7781 -0.5759  0.2352
   66MOL   H18721117   6.791   2.735   3.556 -1.0722 -0.0632  1.1811
   66MOL   H18821118   6.787   2.907   3.593 -0.8829  1.8125 -1.0916
   66MOL   H18921119   6.875   2.780   3.327 -1.5566  1.1983 -0.7755
   66MOL   H19021120   6.990   2.846   3.444  0.8683  2.0960 -2.6623
   66MOL   H19121121   6.889   2.951   3.373 -1.7487 -1.3283 -2.9697
   66MOL   H19221122   6.431   2.742   3.121  0.1543 -1.6877  0.6312
   66MOL   H19321123   6.495   2.887   3.197  0.3750 -0.4915 -0.2311
   66MOL   C19421124   6.647   2.761   3.104  0.1484 -0.3352  0.7009
   66MOL   O19521125   6.620   2.680   2.990  0.1979 -0.0459 -0.1234
   66MOL   C19621126   6.690   2.561   2.981 -0.0789 -0.3999 -0.1380
   66MOL   C19721127   6.663   2.509   2.833  0.2423  0.0174 -0.2553
   66MOL   C19821128   6.714   2.369   2.801 -0.1366  0.7514  0.7134
   66MOL   C19921129   6.708   2.897   3.059  0.1660 -0.4033 -0.3447
   66MOL   H20021130   6.711   2.719   3.181  1.1031  1.1579  0.7461
   66MOL   H20121131   6.799   2.572   2.987 -0.0072 -1.8018  1.6840
   66MOL   H20221132   6.666   2.484   3.054  1.8956 -1.4815 -0.5906
   66MOL   H20321133   6.721   2.581   2.776  0.9266 -0.2377  0.1129
   66MOL   H20421134   6.559   2.517   2.802 -0.8859  0.0604  3.2763
   66MOL   H20521135   6.658   2.303   2.867 -2.0498 -0.1274 -1.7146
   66MOL   H20621136   6.818   2.362   2.831 -0.0093 -0.4756  0.0298
   66MOL   H20721137   6.697   2.342   2.697  1.8830 -0.1145  0.5775
   66MOL   H20821138   6.628   2.942   3.000  0.9188 -0.8091 -1.7176
   66MOL   H20921139   6.710   2.960   3.147 -0.2016 -0.4777 -0.2813
   66MOL   C21021140   6.834   2.889   2.979  0.4247  0.4643 -0.3942
   66MOL   O21121141   6.840   3.021   2.958  0.4181 -0.3050 -0.0729
   66MOL   C21221142   6.846   3.067   2.823 -0.0127 -0.8147  0.5663
   66MOL   C21321143   6.907   3.211   2.829  0.3924 -0.9320  0.4396
   66MOL   C21421144   6.932   3.278   2.685  0.2737 -0.2691  0.0386
   66MOL   C21521145   6.957   2.844   3.052  0.0824  0.1093  0.4984
   66MOL   H21621146   6.815   2.841   2.883 -2.2222 -0.9736  0.7918
   66MOL   H21721147   6.918   3.001   2.773 -1.8422 -0.0357 -3.2886
   66MOL   H21821148   6.753   3.053   2.769 -1.4150 -2.0934  3.1897
   66MOL   H21921149   7.004   3.212   2.879  0.8794  0.7072 -0.5160
   66MOL   H22021150   6.838   3.268   2.891  0.6007  0.2313 -0.3877
   66MOL   H22121151   6.983   3.372   2.702 -1.4654  1.1422 -2.2282
   66MOL   H22221152   6.840   3.304   2.633  0.8400  0.6481 -0.5100
   66MOL   H22321153   6.988   3.213   2.618  1.0664  0.0173  0.4135
   66MOL   H22421154   6.973   2.916   3.133  2.3023  2.5609 -2.0012
   66MOL   H22521155   6.942   2.744   3.095 -0.4781 -0.6205 -1.3534
   66MOL   C22621156   7.098   2.835   2.976 -0.1998  0.0871 -0.8548
   66MOL   O22721157   7.163   2.959   2.965  0.8781  0.0879 -0.1539
   66MOL   C22821158   7.248   2.958   2.851 -0.9772  0.0895  0.0503
   66MOL   C22921159   7.343   3.070   2.888 -0.0428 -0.3456  0.8086
   66MOL   C23021160   7.409   3.047   3.026 -0.0789 -0.6880  0.4418
   66MOL   C23121161   7.191   2.734   3.049  0.1458  0.3985  0.0160
   66MOL   H23221162   7.065   2.793   2.881 -1.3160  0.9289 -0.8589
   66MOL   H23321163   7.307   2.867   2.848 -2.9324 -1.1810 -1.0933
   66MOL   H23421164   7.211   2.980   2.750 -1.6420 -1.0778  0.0313
   66MOL   H23521165   7.298   3.165   2.860  0.4063  0.0355  1.3839
   66MOL   H23621166   7.425   3.066   2.816  0.4132  1.8567  1.1648
   66MOL   H23721167   7.456   2.949   3.040  0.9902 -0.1768  0.4143
   66MOL   H23821168   7.340   3.076   3.105 -0.1813  0.6042 -0.1098
   66MOL   H23921169   7.494   3.114   3.034  0.3359 -0.7598 -2.7918
   66MOL   H24021170   7.295   2.758   3.025  0.3643 -0.1895  0.3815
   66MOL   H24121171   7.175   2.737   3.156 -2.8199 -1.6378 -0.3137
   66MOL   C24221172   7.150   2.591   3.006  0.6830 -0.8476  0.3728
   66MOL   O24321173   7.172   2.580   2.866  0.1718 -0.4124 -0.3608
   66MOL   C24421174   7.069   2.493   2.814 -0.0021 -0.6078 -0.6958
   66MOL   C24521175   7.081   2.495   2.666 -0.0641 -0.5041  0.4797
   66MOL   C24621176   7.055   2.639   2.603  0.4280  0.2009  0.0375
   66MOL   C24721177   7.254   2.496   3.068 -0.0919  0.0041  0.0641
   66MOL   H24821178   7.047   2.572   3.033 -0.2700  0.7572 -1.9490
   66MOL   H24921179   7.058   2.389   2.846  0.4172 -1.7037 -3.9588
   66MOL   H25021180   6.970   2.533   2.836  0.4518 -0.3548  0.9895
   66MOL   H25121181   7.029   2.418   2.609  0.0816  0.3625 -0.8515
   66MOL   H25221182   7.185   2.478   2.639 -0.1512 -0.3872  0.0543
   66MOL   H25321183   7.121   2.719   2.637 -1.1067  1.7501 -0.5785
   66MOL   H25421184   6.955   2.671   2.629  0.8356 -1.0028  3.3886
   66MOL   H25521185   7.067   2.636   2.495  0.0934  1.4624 -0.0371
   66MOL   H25621186   7.234   2.396   3.028 -0.9367  0.8057 -1.5778
   66MOL   H25721187   7.349   2.538   3.037  0.2375 -1.3939 -0.8781
   66MOL   C25821188   7.244   2.490   3.224  0.2754  0.2149 -0.1210
   66MOL   O25921189   7.127   2.414   3.238 -0.4219  0.4964 -0.2250
   66MOL   C26021190   7.055   2.437   3.360 -0.6055  0.4424 -0.0690
   66MOL   C26121191   6.917   2.367   3.377 -0.3219  0.1070  0.1754
   66MOL   C26221192   6.808   2.389   3.272  0.4634  0.0890 -0.0125
   66MOL   C26321193   7.363   2.414   3.293 -0.0475  1.0932 -0.0192
   66MOL   H26421194   7.234   2.588   3.271 -1.0450  0.0558 -0.0490
   66MOL   H26521195   7.114   2.391   3.439 -2.7603 -0.0287  1.3026
   66MOL   H26621196   7.039   2.544   3.377 -1.4731  0.6195 -1.9489
   66MOL   H26721197   6.883   2.374   3.481 -2.3665  1.0372 -0.5247
   66MOL   H26821198   6.944   2.261   3.380 -0.9242 -0.0086  1.9641
   66MOL   H26921199   6.752   2.478   3.296 -2.6441 -2.1301  1.2582
   66MOL   H27021200   6.742   2.303   3.280 -1.2144  1.5480  2.0703
   66MOL   H27121201   6.856   2.393   3.174  0.7695  2.1863  0.2164
   66MOL   H27221202   7.335   2.390   3.395 -1.4635 -0.0671 -0.6557
   66MOL   H27321203   7.379   2.325   3.232  0.1967 -0.1033  1.7681
   66MOL   C27421204   7.487   2.501   3.295 -0.1336  0.5931 -0.7960
   66MOL   O27521205   7.444   2.593   3.396 -0.2393  0.0632  0.5684
   66MOL   C27621206   7.528   2.702   3.430 -0.5277 -0.2614 -0.1834
   66MOL   C27721207   7.444   2.811   3.499  0.1016  0.2013 -0.7731
   66MOL   C27821208   7.326   2.847   3.415  0.2300  1.0084 -0.2096
   66MOL   C27921209   7.609   2.417   3.335  0.4391  0.0861 -0.3614
   66MOL   H28021210   7.507   2.543   3.196 -0.5352 -3.7598 -2.8581
   66MOL   H28121211   7.608   2.668   3.496 -0.2506 -0.0854 -0.4316
   66MOL   H28221212   7.572   2.731   3.335 -1.8986 -0.1168 -0.7935
   66MOL   H28321213   7.510   2.891   3.532  0.7858  0.4639 -2.7185
   66MOL   H28421214   7.412   2.777   3.597  0.3710  1.7976 -0.1281
   66MOL   H28521215   7.339   2.858   3.307 -3.4270  2.1628 -0.6180
   66MOL   H28621216   7.285   2.939   3.457 -2.4508  0.0520 -0.5967
   66MOL   H28721217   7.247   2.772   3.419  1.3318 -0.2559 -1.6585
   66MOL   H28821218   7.693   2.473   3.375  0.2487  0.8036 -0.9727
   66MOL   H28921219   7.587   2.362   3.427 -0.5769 -0.5273 -0.9611
   66MOL   C29021220   7.660   2.322   3.220 -0.3728 -0.0882 -0.6785
   66MOL   O29121221   7.723   2.405   3.122  0.5286 -0.1841  0.0335
   66MOL   C29221222   7.725   2.365   2.983 -0.4883 -0.2759 -0.5043
   66MOL   C29321223   0.009   2.424   2.908 -0.0533 -0.1540  0.4451
   66MOL   C29421224   0.016   2.357   2.769  0.0587  0.2476  0.1226
   66MOL   C29521225   7.756   2.204   3.262 -0.1005  1.3235 -0.3184
   66MOL   H29621226   7.571   2.278   3.175 -2.7707 -0.8226  4.3978
   66MOL   H29721227   7.737   2.256   2.989 -0.1297 -0.2373 -0.5106
   66MOL   H29821228   7.625   2.378   2.942 -0.6041  2.2634  0.4938
   66MOL   H29921229   0.094   2.395   2.970 -0.9906  0.4091  2.0317
   66MOL   H30021230   0.010   2.533   2.908  0.6513 -0.1232  2.8517
   66MOL   H30121231   0.028   2.249   2.764 -0.8599  0.1598 -0.2561
   66MOL   H30221232   0.101   2.398   2.715  1.1394 -0.5978  1.1620
   66MOL   H30321233   7.748   2.387   2.727 -0.7889  1.2879  2.6668
   66MOL   H30421234   7.804   2.175   3.169  0.0027  1.8777 -0.4394
   66MOL   H30521235   0.016   2.235   3.319  0.4712  1.3166 -1.1819
   66MOL   C30621236   7.681   2.095   3.341  0.1391  0.7133  0.3795
   66MOL   O30721237   7.583   2.041   3.254  0.1469  0.0596 -0.0198
   66MOL   C30821238   7.470   1.989   3.327  0.0029  0.1608  0.5528
   66MOL   C30921239   7.371   1.919   3.240 -0.0221  0.0734  0.0131
   66MOL   C31021240   7.310   2.010   3.141  0.1766 -0.2127 -0.4736
   66MOL   C31121241   7.776   1.979   3.384 -0.1711  0.6107 -0.1407
   66MOL   H31221242   7.632   2.134   3.430  1.6189  4.1376 -0.2345
   66MOL   H31321243   7.484   1.912   3.404 -2.4376  0.1346  1.0115
   66MOL   H31421244   7.429   2.082   3.365 -0.6201 -0.3543  1.1548
   66MOL   H31521245   7.291   1.880   3.304 -0.3345  0.8405  0.0925
   66MOL   H31621246   7.415   1.833   3.190 -1.0943  0.1457 -1.0848
   66MOL   H31721247   7.397   2.027   3.077 -0.4300 -2.5125 -1.9896
   66MOL   H31821248   7.276   2.108   3.173  0.6763 -0.0232 -0.5203
   66MOL   H31921249   7.230   1.956   3.089 -0.0583 -0.8687  0.5637
   66MOL   H32021250   0.049   2.015   3.406  0.5492 -0.4528 -1.6449
   66MOL   H32121251   7.748   1.924   3.474  1.4642 -1.1094 -0.6510
   66MOL   H32221252   7.796   1.909   3.303  2.3770  0.0529  0.8971
   67MOL     C121253   0.519   7.098   3.478  0.4858 -0.5308 -0.4737
   67MOL     O221254   0.593   7.105   3.602  0.2727  0.5297 -0.8052
   67MOL     C321255   0.660   7.222   3.640 -0.1748  0.1969  0.0380
   67MOL     C421256   0.768   7.202   3.744 -0.2425 -0.7803  0.1794
   67MOL     C521257   0.878   7.112   3.694 -0.1774 -0.5127  0.4754
   67MOL     C621258   0.482   6.955   3.464  0.0575  0.0868 -0.2647
   67MOL     H721259   0.579   7.123   3.391  1.0035 -1.3483 -0.3519
   67MOL     H821260   0.699   7.270   3.550  0.8300  0.7402  0.7559
   67MOL     H921261   0.584   7.294   3.672 -0.8343 -1.7919  3.2235
   67MOL    H1021262   0.726   7.171   3.839  0.7987 -1.8318  0.3076
   67MOL    H1121263   0.812   7.299   3.763 -1.5504 -0.2925  0.7903
   67MOL    H1221264   0.900   7.144   3.592 -1.7073  2.5998  1.0763
   67MOL    H1321265   0.845   7.008   3.693  0.3935 -0.7377  2.6523
   67MOL    H1421266   0.969   7.118   3.752 -0.9612  1.0565  1.5614
   67MOL    H1521267   0.572   6.894   3.453  0.6945  0.9762 -0.1412
   67MOL    H1621268   0.426   6.935   3.555 -0.2076  3.0845  0.2772
   67MOL    H1721269   0.437   7.170   3.477 -0.9649 -2.0924 -5.4219
   67MOL    C1821270   0.392   6.926   3.346 -0.4481  0.2161  0.3593
   67MOL    O1921271   0.451   6.980   3.227 -0.3280  0.5060 -0.5366
   67MOL    C2021272   0.372   7.075   3.156  0.4189  0.6617  0.0333
   67MOL    C2121273   0.445   7.125   3.032  0.1607  0.1040  0.6621
   67MOL    C2221274   0.357   7.222   2.946 -0.7052  0.1965  0.4209
   67MOL    C2321275   0.355   6.774   3.325 -0.3292 -0.2396 -0.1551
   67MOL    H2421276   0.298   6.980   3.355 -0.3379  0.7176 -1.4483
   67MOL    H2521277   0.269   7.046   3.136  0.5462 -0.4014  0.8723
   67MOL    H2621278   0.355   7.154   3.228  0.9166 -0.0704  0.9589
   67MOL    H2721279   0.468   7.044   2.962 -0.6288  0.8234 -0.4447
   67MOL    H2821280   0.536   7.180   3.052  0.3419 -0.4381  1.3666
   67MOL    H2921281   0.267   7.168   2.919  1.9215 -4.1219 -0.2505
   67MOL    H3021282   0.409   7.245   2.853  1.8668 -0.0741  1.7402
   67MOL    H3121283   0.332   7.308   3.008  0.0350  0.5739  0.2067
   67MOL    H3221284   0.299   6.756   3.233  1.1514  0.5086 -1.2314
   67MOL    H3321285   0.450   6.722   3.310 -0.1163  0.2550 -0.5673
   67MOL    C3421286   0.275   6.710   3.432  0.2984 -0.8360  0.5038
   67MOL    O3521287   0.133   6.737   3.419 -0.2752 -0.4628  0.1270
   67MOL    C3621288   0.071   6.738   3.546  0.3679 -0.2654  0.0275
   67MOL    C3721289   7.747   6.744   3.533 -0.5785  0.6511  0.0636
   67MOL    C3821290   7.667   6.775   3.662  0.4938 -0.7424 -0.0213
   67MOL    C3921291   0.306   6.561   3.434 -0.2701 -0.0532 -0.8321
   67MOL    H4021292   0.322   6.754   3.520  0.3786  1.4351 -0.6193
   67MOL    H4121293   0.097   6.652   3.607  0.4918 -1.1366 -1.2495
   67MOL    H4221294   0.102   6.823   3.607 -0.4981 -0.7485  1.1354
   67MOL    H4321295   7.715   6.647   3.492  2.0674 -0.2800  0.1151
   67MOL    H4421296   7.736   6.827   3.463 -0.7515  1.2421  0.7929
   67MOL    H4521297   7.558   6.767   3.658  0.3026  1.6574 -0.2595
   67MOL    H4621298   7.690   6.877   3.694  1.5719 -0.4796 -1.5974
   67MOL    H4721299   7.705   6.710   3.741  0.7351 -1.2956 -0.5910
   67MOL    H4821300   0.405   6.552   3.477 -0.5552 -1.3323 -0.4296
   67MOL    H4921301   0.250   6.519   3.517  0.3710 -0.0609 -0.4023
   67MOL    C5021302   0.294   6.467   3.308  0.0057  0.1047 -0.7338
   67MOL    O5121303   0.292   6.334   3.358 -0.2004  0.1531  0.3956
   67MOL    C5221304   0.420   6.282   3.370  0.0810  0.5035  0.1104
   67MOL    C5321305   0.414   6.145   3.432 -0.0512 -0.0727  0.1059
   67MOL    C5421306   0.347   6.039   3.343  0.1232  0.1003  0.5342
   67MOL    C5521307   0.162   6.498   3.237 -0.5582  0.8106 -0.0316
   67MOL    H5621308   0.378   6.480   3.241 -0.0990  1.0096 -0.6997
   67MOL    H5721309   0.466   6.286   3.272 -1.1237 -1.5443 -0.5462
   67MOL    H5821310   0.479   6.347   3.436  0.4938  0.4095 -0.1637
   67MOL    H5921311   0.359   6.154   3.525 -0.1182  1.1657 -0.0457
   67MOL    H6021312   0.513   6.118   3.470  0.7037  0.8283 -1.1543
   67MOL    H6121313   0.254   6.077   3.300 -0.2853  0.8818  2.0722
   67MOL    H6221314   0.318   5.956   3.407  0.0160 -1.6707 -1.7352
   67MOL    H6321315   0.399   6.009   3.251 -1.1580 -0.4446 -0.0274
   67MOL    H6421316   0.085   6.467   3.308 -1.2172  1.1637 -0.5765
   67MOL    H6521317   0.154   6.606   3.227 -0.5934  0.6132 -2.4591
   67MOL    C6621318   0.132   6.436   3.099 -0.2975 -0.3817  0.2845
   67MOL    O6721319   7.825   6.459   3.069 -0.0247  0.8192  0.1746
   67MOL    C6821320   7.748   6.350   3.033 -0.0301  0.3463 -0.4044
   67MOL    C6921321   7.607   6.393   2.986  0.2909 -0.9821 -0.3906
   67MOL    C7021322   7.500   6.288   2.983 -0.2216  0.2820 -0.0110
   67MOL    C7121323   0.208   6.487   2.978  0.5152 -0.0365 -1.1479
   67MOL    H7221324   0.159   6.332   3.118  2.5674  0.1107 -0.7074
   67MOL    H7321325   7.794   6.292   2.953  0.7489 -0.1106  0.3625
   67MOL    H7421326   7.746   6.279   3.116 -1.1022 -1.4068 -1.8937
   67MOL    H7521327   7.630   6.432   2.887 -2.0812 -0.8670 -0.9338
   67MOL    H7621328   7.575   6.477   3.048  0.7116 -2.3935  1.7888
   67MOL    H7721329   7.516   6.218   2.901 -0.3204  0.6160 -0.3182
   67MOL    H7821330   7.404   6.330   2.952 -0.7089 -2.0119 -1.7292
   67MOL    H7921331   7.473   6.241   3.078  0.1005 -1.0541 -0.5829
   67MOL    H8021332   0.197   6.595   2.968 -0.7476 -0.1671 -1.2581
   67MOL    H8121333   0.310   6.479   3.016 -0.0873  1.4987  0.8876
   67MOL    C8221334   0.194   6.411   2.843  0.0730 -0.6952  0.2163
   67MOL    O8321335   0.079   6.447   2.759 -0.3091 -0.1069 -0.7860
   67MOL    C8421336   0.038   6.585   2.754  0.3704 -0.1895 -0.3104
   67MOL    C8521337   7.777   6.622   2.633  0.1022  0.1019 -0.1408
   67MOL    C8621338   7.752   6.772   2.640  0.0373 -0.3375  0.0688
   67MOL    C8721339   0.315   6.429   2.743  0.7320 -0.5095  0.9351
   67MOL    H8821340   0.182   6.308   2.875  0.3267  0.6148  4.7497
   67MOL    H8921341   7.813   6.613   2.846 -0.2465 -3.6037  0.4232
   67MOL    H9021342   0.122   6.655   2.755 -0.0693  0.3445  0.0672
   67MOL    H9121343   7.686   6.562   2.638  0.2057 -0.2411 -1.8451
   67MOL    H9221344   7.820   6.587   2.539  0.7008  2.5166 -0.8110
   67MOL    H9321345   7.718   6.805   2.542  0.9565 -0.1596 -0.1943
   67MOL    H9421346   0.006   6.840   2.661 -0.1956 -0.4170  1.2681
   67MOL    H9521347   7.671   6.795   2.710 -1.3114 -2.5793 -0.6707
   67MOL    H9621348   0.278   6.364   2.664 -0.5224  3.2200 -1.7152
   67MOL    H9721349   0.322   6.531   2.703  1.3579 -0.0592  2.1730
   67MOL    C9821350   0.444   6.373   2.804 -0.0732 -0.6888  0.3247
   67MOL    O9921351   0.418   6.239   2.819 -0.3742  0.6282 -0.3841
   67MOL   C10021352   0.470   6.182   2.936 -0.8549 -0.3406 -0.0473
   67MOL   C10121353   0.428   6.036   2.946  0.1005 -0.2088 -0.2158
   67MOL   C10221354   0.280   6.024   2.989 -0.0611  0.2154  0.4065
   67MOL   C10321355   0.568   6.381   2.712 -0.1964  0.1843  0.5102
   67MOL   H10421356   0.465   6.425   2.897 -2.1100  0.3224  0.2331
   67MOL   H10521357   0.579   6.181   2.934 -0.8796 -1.1051 -1.0838
   67MOL   H10621358   0.444   6.243   3.024 -0.6325  2.3876 -1.8106
   67MOL   H10721359   0.504   5.987   3.007 -0.0251 -1.9547 -1.4362
   67MOL   H10821360   0.432   5.996   2.845 -0.9305 -0.4558 -0.1669
   67MOL   H10921361   0.248   6.066   3.085  0.3241 -3.3157  2.1556
   67MOL   H11021362   0.265   5.917   3.001  0.3992  0.3500  2.4053
   67MOL   H11121363   0.214   6.057   2.909  1.5408 -2.0723 -1.9228
   67MOL   H11221364   0.656   6.334   2.756 -1.5290 -1.5752  1.3648
   67MOL   H11321365   0.564   6.346   2.609 -0.7590  1.4094  0.1068
   67MOL   C11421366   0.617   6.523   2.674 -0.1103 -0.2037 -0.1522
   67MOL   O11521367   0.653   6.578   2.803  0.4516 -0.7013 -0.2808
   67MOL   C11621368   0.602   6.705   2.824  0.3222 -0.1122 -0.5698
   67MOL   C11721369   0.660   6.758   2.958 -1.0028  0.2562 -0.3610
   67MOL   C11821370   0.564   6.723   3.076  0.0910  0.5057  0.4343
   67MOL   C11921371   0.744   6.529   2.589  1.0092  0.0865  0.1003
   67MOL   H12021372   0.530   6.577   2.637 -0.2286 -0.9785 -1.0340
   67MOL   H12121373   0.642   6.766   2.743 -0.7424 -1.1813 -1.9234
   67MOL   H12221374   0.493   6.694   2.824  0.1011  1.9492  0.1218
   67MOL   H12321375   0.659   6.866   2.953  0.3458  0.3865  1.4977
   67MOL   H12421376   0.764   6.731   2.974 -1.8528 -3.4947 -0.6145
   67MOL   H12521377   0.575   6.616   3.094 -1.1243  0.5080  1.2279
   67MOL   H12621378   0.459   6.744   3.058 -0.2236  0.3456  2.0770
   67MOL   H12721379   0.593   6.781   3.163 -0.5479  0.5056  0.6468
   67MOL   H12821380   0.775   6.633   2.595  1.3828 -0.0555  0.6369
   67MOL   H12921381   0.820   6.464   2.632  1.1058  0.2911  0.2363
   67MOL   C13021382   0.709   6.505   2.439  0.5271  0.5528  0.7006
   67MOL   O13121383   0.609   6.598   2.398  0.6208  0.5891 -0.3837
   67MOL   C13221384   0.516   6.544   2.298  0.0609 -0.5844 -0.3946
   67MOL   C13321385   0.384   6.624   2.301 -0.2629 -0.5604 -0.3635
   67MOL   C13421386   0.297   6.611   2.425  0.6855 -0.0781 -0.1314
   67MOL   C13521387   0.828   6.515   2.345 -0.2946  0.0973 -0.1541
   67MOL   H13621388   0.664   6.406   2.433 -1.3673  1.5083 -1.5227
   67MOL   H13721389   0.560   6.555   2.199 -1.0250  0.4865 -0.7624
   67MOL   H13821390   0.495   6.438   2.317  1.6363 -0.7818  0.3762
   67MOL   H13921391   0.318   6.603   2.216 -0.7957  0.4722 -0.2162
   67MOL   H14021392   0.398   6.730   2.278 -1.6516  0.4919  3.3043
   67MOL   H14121393   0.238   6.520   2.435  0.7231 -0.0298  0.5831
   67MOL   H14221394   0.221   6.689   2.424  0.3978 -0.3417  0.8860
   67MOL   H14321395   0.357   6.620   2.516  0.0710 -0.3618  0.3066
   67MOL   H14421396   0.794   6.505   2.242 -0.1924  1.3643 -0.3187
   67MOL   H14521397   0.864   6.617   2.357 -1.6878  0.3246  2.5288
   67MOL   C14621398   0.945   6.417   2.360 -0.3882  0.4362  0.1515
   67MOL   O14721399   0.889   6.290   2.338 -1.1031 -0.1680 -0.2916
   67MOL   C14821400   0.945   6.182   2.423  0.4885  0.0014  1.0179
   67MOL   C14921401   0.939   6.046   2.351  0.8120 -0.3434 -0.7054
   67MOL   C15021402   0.796   5.996   2.328 -0.0318  0.1231 -0.2566
   67MOL   C15121403   1.063   6.441   2.259 -0.2847  0.3341 -0.2500
   67MOL   H15221404   0.989   6.427   2.460 -0.8147 -1.0772  0.5030
   67MOL   H15321405   1.048   6.196   2.455  0.6469  0.3825  0.3357
   67MOL   H15421406   0.889   6.172   2.516 -0.7179  0.0834  0.3148
   67MOL   H15521407   1.002   5.976   2.406 -0.0252  0.1405  0.8806
   67MOL   H15621408   0.996   6.038   2.258 -1.3280 -0.2190 -2.0750
   67MOL   H15721409   0.799   5.901   2.275  1.1798  0.4282 -0.7631
   67MOL   H15821410   0.739   6.068   2.269 -1.2430 -1.2030 -0.7422
   67MOL   H15921411   0.740   5.978   2.419 -2.1165 -0.6626 -1.6464
   67MOL   H16021412   1.126   6.352   2.265  1.2370  1.4969  1.6523
   67MOL   H16121413   1.027   6.447   2.156 -1.8549 -0.9888  0.1973
   67MOL   C16221414   1.157   6.560   2.291 -0.2763  0.0393 -1.0617
   67MOL   O16321415   1.228   6.535   2.411  0.0995 -0.1840 -0.1695
   67MOL   C16421416   1.221   6.630   2.515 -0.0520  0.1155 -0.2568
   67MOL   C16521417   1.322   6.594   2.615 -0.4099  0.5728 -0.5031
   67MOL   C16621418   1.456   6.660   2.594 -0.1116 -0.3369 -0.2986
   67MOL   C16721419   1.251   6.585   2.175 -0.0597 -0.1171 -0.6108
   67MOL   H16821420   1.090   6.644   2.309  0.0973  0.6077 -2.2633
   67MOL   H16921421   1.243   6.732   2.484  1.2791  0.5667  2.0698
   67MOL   H17021422   1.121   6.621   2.558 -0.1000 -1.8161 -0.7221
   67MOL   H17121423   1.331   6.487   2.635  0.8323 -0.0401 -3.9490
   67MOL   H17221424   1.290   6.628   2.714 -0.3984 -2.8261  0.7192
   67MOL   H17321425   1.459   6.769   2.608  1.9990 -0.4548  0.2597
   67MOL   H17421426   1.477   6.619   2.496 -0.3071  2.0175 -1.3670
   67MOL   H17521427   1.529   6.617   2.662 -0.0356  1.5515  0.8689
   67MOL   H17621428   1.313   6.497   2.157 -0.5599 -0.6807  0.3499
   67MOL   H17721429   1.187   6.600   2.088  0.4872 -2.2463 -1.4030
   67MOL   C17821430   1.334   6.711   2.187  0.3193 -0.0289 -0.0079
   67MOL   O17921431   1.407   6.736   2.072 -0.1285  0.0895 -0.3597
   67MOL   C18021432   1.517   6.652   2.036 -0.2727  0.7258  0.0408
   67MOL   C18121433   1.653   6.699   2.088  0.2568  0.3989 -0.1314
   67MOL   C18221434   1.713   6.809   2.004  0.0777  0.7117 -0.1240
   67MOL   C18321435   1.250   6.834   2.192  0.2977 -0.1786 -0.1014
   67MOL   H18421436   1.400   6.704   2.274 -0.1293 -2.4591  0.1745
   67MOL   H18521437   1.499   6.548   2.065 -1.6333  0.7314 -0.6965
   67MOL   H18621438   1.517   6.640   1.928  2.2357  1.7995 -0.0931
   67MOL   H18721439   1.726   6.618   2.077  1.3243  1.3559 -0.1452
   67MOL   H18821440   1.652   6.731   2.192 -1.0752 -1.7304  0.5384
   67MOL   H18921441   1.664   6.905   2.024  1.4841  1.3048  0.5060
   67MOL   H19021442   1.708   6.786   1.897  0.5359  0.0440 -0.0034
   67MOL   H19121443   1.818   6.811   2.032 -0.1283  0.9244  0.6518
   67MOL   H19221444   1.192   6.832   2.099 -0.1044 -1.9127  0.1584
   67MOL   H19321445   1.176   6.829   2.272 -1.4136  1.5244 -1.5127
   67MOL   C19421446   1.332   6.964   2.211 -0.3065 -0.1350 -0.1079
   67MOL   O19521447   1.236   7.071   2.208 -0.3340  0.1049  0.6335
   67MOL   C19621448   1.189   7.113   2.079 -0.2516 -0.0542  0.7149
   67MOL   C19721449   1.076   7.223   2.102  0.0610  0.2834  0.2709
   67MOL   C19821450   1.103   7.331   2.205 -0.1883 -0.0504 -0.4408
   67MOL   C19921451   1.420   6.970   2.344  0.1214  0.2830  0.4915
   67MOL   H20021452   1.398   6.973   2.125 -1.6003  0.3413 -1.0674
   67MOL   H20121453   1.278   7.142   2.023 -0.1753  1.6398  1.6967
   67MOL   H20221454   1.150   7.031   2.019  0.6170 -0.5008  0.7532
   67MOL   H20321455   0.983   7.179   2.138  0.9616  0.7808  3.3984
   67MOL   H20421456   1.040   7.270   2.011  1.2032  0.0390 -0.3047
   67MOL   H20521457   1.139   7.292   2.301 -0.7877  2.4169  0.8247
   67MOL   H20621458   1.016   7.393   2.227 -0.6659 -1.5091  1.9718
   67MOL   H20721459   1.177   7.392   2.153 -0.9542  0.6348 -0.7416
   67MOL   H20821460   1.354   6.939   2.425  0.3026  1.8902  1.2814
   67MOL   H20921461   1.505   6.901   2.335  0.5819  0.6760  1.7626
   67MOL   C21021462   1.461   7.120   2.379  0.6798 -0.0245 -0.2148
   67MOL   O21121463   1.501   7.114   2.516 -0.4385  0.5006 -0.3939
   67MOL   C21221464   1.631   7.059   2.540  0.1141 -0.3633 -0.3453
   67MOL   C21321465   1.633   7.037   2.693 -0.1931 -0.2511  0.1431
   67MOL   C21421466   1.771   6.976   2.744 -0.1230 -0.5587  0.1309
   67MOL   C21521467   1.555   7.189   2.281  0.3477 -0.4318  0.1162
   67MOL   H21621468   1.372   7.182   2.372 -0.9990 -2.3641  0.1161
   67MOL   H21721469   1.643   6.960   2.497  0.6285  0.4288 -2.0773
   67MOL   H21821470   1.718   7.120   2.518 -0.6766  0.7103 -0.5535
   67MOL   H21921471   1.549   6.973   2.721  0.3928 -1.3509 -0.5714
   67MOL   H22021472   1.613   7.130   2.747 -1.8099 -0.8888  0.6561
   67MOL   H22121473   1.851   7.048   2.727 -0.6232 -0.4222 -1.7079
   67MOL   H22221474   1.797   6.890   2.683 -1.6169 -0.2702 -0.9451
   67MOL   H22321475   1.765   6.951   2.850  0.2270 -0.8820  0.0748
   67MOL   H22421476   1.636   7.118   2.264 -0.4654 -1.0111 -1.3471
   67MOL   H22521477   1.511   7.190   2.182 -1.8875  4.0746  1.0218
   67MOL   C22621478   1.594   7.337   2.312  0.4966  0.2232  0.0987
   67MOL   O22721479   1.714   7.371   2.235 -0.5887 -0.5744  0.2400
   67MOL   C22821480   1.830   7.344   2.305  0.1249 -0.0857 -0.3083
   67MOL   C22921481   1.947   7.396   2.223  0.0346  0.3666  0.1170
   67MOL   C23021482   1.959   7.551   2.215 -0.3410 -0.2945  0.6160
   67MOL   C23121483   1.475   7.432   2.272  0.4326  0.6262  0.1129
   67MOL   H23221484   1.602   7.354   2.419 -0.0976  2.4960 -0.1861
   67MOL   H23321485   1.829   7.395   2.402 -0.4559 -0.7440  0.0310
   67MOL   H23421486   1.836   7.236   2.318  4.3210 -0.4857 -4.2926
   67MOL   H23521487   1.933   7.347   2.126  1.4620  0.0798  0.0492
   67MOL   H23621488   2.040   7.354   2.262 -1.4379 -2.4329  0.7220
   67MOL   H23721489   2.049   7.582   2.162  1.1064 -2.8547  1.4689
   67MOL   H23821490   1.953   7.609   2.307 -2.6027  1.8189 -0.8213
   67MOL   H23921491   1.879   7.585   2.150  0.7784  1.0053 -0.1125
   67MOL   H24021492   1.486   7.461   2.168 -0.7225 -0.9753 -0.4845
   67MOL   H24121493   1.379   7.380   2.280  0.2257  0.4824 -2.9033
   67MOL   C24221494   1.472   7.557   2.361  0.3618 -0.0490 -0.4087
   67MOL   O24321495   1.436   7.515   2.488  0.5790  0.0638  0.1032
   67MOL   C24421496   1.299   7.506   2.527  0.4293 -0.4271  0.4867
   67MOL   C24521497   1.271   7.633   2.616 -0.4240 -0.0011  0.3892
   67MOL   C24621498   1.123   7.645   2.662 -0.7140  0.1284 -0.3248
   67MOL   C24721499   1.612   7.634   2.369 -0.0484  0.4187 -0.0404
   67MOL   H24821500   1.401   7.625   2.315  0.0699  1.8640  2.7816
   67MOL   H24921501   1.233   7.501   2.440  2.2595  0.8110 -1.0150
   67MOL   H25021502   1.288   7.415   2.587  0.8047 -1.6819 -1.3004
   67MOL   H25121503   1.275   7.714   2.543  1.9335  0.5798  1.1179
   67MOL   H25221504   1.344   7.665   2.690  0.0600 -1.6810  0.6770
   67MOL   H25321505   1.098   7.623   2.765  1.3803 -0.8401 -0.0063
   67MOL   H25421506   1.046   7.586   2.611 -1.4099 -1.5533  2.5865
   67MOL   H25521507   1.095   7.747   2.636 -0.5242  0.1283 -0.5321
   67MOL   H25621508   1.685   7.561   2.405  0.6373  0.5397 -1.1699
   67MOL   H25721509   1.648   7.658   2.270 -1.5883  0.4846 -0.5992
   67MOL   C25821510   1.622   7.763   2.448  0.4246  0.0815  0.1927
   67MOL   O25921511   1.759   7.778   2.476  0.3406 -0.0979  0.0971
   67MOL   C26021512   1.798   0.066   2.549 -0.2419 -0.0795  0.3384
   67MOL   C26121513   1.939   0.036   2.590 -0.2879 -0.2717  0.1706
   67MOL   C26221514   2.019   0.139   2.668  0.0675 -0.0956  0.2705
   67MOL   C26321515   1.550   0.057   2.378 -0.3606  0.8658  0.2886
   67MOL   H26421516   1.577   7.743   2.545 -1.5187  4.7356  0.3752
   67MOL   H26521517   1.789   0.154   2.485  1.1579 -0.5825 -0.5633
   67MOL   H26621518   1.731   0.074   2.635 -1.2466 -0.4540 -0.4065
   67MOL   H26721519   2.000   0.023   2.501 -0.7951 -0.4466 -0.1481
   67MOL   H26821520   1.941   7.769   2.644 -1.4935  0.7132  2.0377
   67MOL   H26921521   1.970   0.163   2.763  0.5451 -1.6455  0.9353
   67MOL   H27021522   2.038   0.224   2.603 -0.5706 -0.7445 -0.7843
   67MOL   H27121523   2.117   0.101   2.699  0.9773  1.4272 -0.7216
   67MOL   H27221524   1.626   0.126   2.340  0.1217  0.9344  1.3498
   67MOL   H27321525   1.503   0.007   2.293 -0.3187  0.3536  0.5627
   67MOL   C27421526   1.430   0.121   2.469 -0.0109  0.0609  0.0253
   67MOL   O27521527   1.498   0.202   2.564 -0.2162  0.2599 -0.8287
   67MOL   C27621528   1.454   0.188   2.697  0.3623 -0.2548 -0.1176
   67MOL   C27721529   1.516   0.295   2.793  0.1907  0.0057 -0.7686
   67MOL   C27821530   1.664   0.306   2.794 -0.8424 -0.0603 -0.0041
   67MOL   C27921531   1.345   0.207   2.381 -0.1054  0.4401  0.0595
   67MOL   H28021532   1.376   0.041   2.520 -0.2306  1.1641  1.5570
   67MOL   H28121533   1.346   0.202   2.694  0.6559  1.9155 -1.7914
   67MOL   H28221534   1.473   0.088   2.738  1.4898  0.1828  0.4556
   67MOL   H28321535   1.483   0.280   2.896  1.2904 -0.6641 -0.5162
   67MOL   H28421536   1.474   0.390   2.759  0.0194  0.8700  1.7564
   67MOL   H28521537   1.718   0.222   2.838  0.1369  0.0468 -0.9645
   67MOL   H28621538   1.692   0.387   2.861 -3.4132  0.0503  0.9895
   67MOL   H28721539   1.699   0.322   2.692  2.2310  0.5259  1.0778
   67MOL   H28821540   1.306   0.289   2.442  1.5508  0.2263  1.4719
   67MOL   H28921541   1.412   0.256   2.310 -2.0115  0.3125 -1.8333
   67MOL   C29021542   1.231   0.142   2.305 -0.0261 -0.0365  1.0555
   67MOL   O29121543   1.129   0.078   2.383  0.2292 -0.2860 -0.1051
   67MOL   C29221544   1.069   7.796   2.319 -0.4632  0.3107 -0.2017
   67MOL   C29321545   0.923   7.793   2.353  0.3264  0.4779  0.5296
   67MOL   C29421546   0.856   7.654   2.343  0.2897  0.2823 -0.4004
   67MOL   C29521547   1.168   0.237   2.197 -0.3147  0.1302  0.1264
   67MOL   H29621548   1.290   0.070   2.248  1.4083  1.0445  1.1290
   67MOL   H29721549   1.076   7.787   2.211 -2.5596 -0.8655 -0.2842
   67MOL   H29821550   1.117   7.702   2.345  2.5232  2.1370  1.0545
   67MOL   H29921551   0.875   0.037   2.286 -4.4252 -2.0296  1.0158
   67MOL   H30021552   0.910   0.014   2.449  2.0538  2.4200 -0.1954
   67MOL   H30121553   0.752   7.665   2.373  0.4765  0.2920  0.2387
   67MOL   H30221554   0.914   7.597   2.415 -0.0519  1.1126  0.5381
   67MOL   H30321555   0.856   7.611   2.243  0.9296  2.7844 -1.5247
   67MOL   H30421556   1.240   0.288   2.133 -0.3844  0.0792  0.0076
   67MOL   H30521557   1.118   0.172   2.126 -1.6909  0.8842  0.3950
   67MOL   C30621558   1.071   0.348   2.249  0.1118  0.1001  0.2752
   67MOL   O30721559   1.138   0.415   2.348 -0.3365 -0.5923  0.0829
   67MOL   C30821560   1.059   0.427   2.463 -0.0440  0.1534  0.3132
   67MOL   C30921561   1.138   0.502   2.568 -0.0759  0.8354 -0.2941
   67MOL   C31021562   1.174   0.639   2.521  0.6153 -0.3890  0.2588
   67MOL   C31121563   1.035   0.458   2.144  0.1038  0.5179 -0.1906
   67MOL   H31221564   0.980   0.300   2.285 -1.0283  0.9619 -1.4031
   67MOL   H31321565   0.960   0.468   2.444 -0.0858 -0.0886 -0.0052
   67MOL   H31421566   1.059   0.328   2.511  0.2565  0.8241  1.7248
   67MOL   H31521567   1.234   0.452   2.582 -0.3441  0.5753  0.6364
   67MOL   H31621568   1.098   0.504   2.670  0.9706  1.4805  0.1187
   67MOL   H31721569   1.236   0.686   2.597  0.6653 -0.4622  0.2632
   67MOL   H31821570   1.087   0.703   2.509 -0.7807 -2.3249 -0.0986
   67MOL   H31921571   1.227   0.634   2.425 -0.5326  0.2565 -0.4259
   67MOL   H32021572   0.957   0.526   2.178  1.0927  0.5505  2.0893
   67MOL   H32121573   1.123   0.509   2.105 -0.6051  1.1965 -0.8999
   67MOL   H32221574   0.997   0.404   2.057  0.5839 -0.7828  0.3829
   68MOL     C121575   6.629   1.433   7.221 -0.4844 -0.2761 -0.2562
   68MOL     O221576   6.675   1.463   7.087  0.1618 -0.1154  0.6520
   68MOL     C321577   6.811   1.437   7.058 -0.2156  0.5289  0.4994
   68MOL     C421578   6.843   1.473   6.919  0.4181 -0.1523 -0.6193
   68MOL     C521579   6.772   1.385   6.820  0.1395 -0.4501  0.2993
   68MOL     C621580   6.493   1.506   7.231 -0.5995  0.5279 -0.1065
   68MOL     H721581   6.690   1.476   7.301 -0.5873  0.3799 -0.5195
   68MOL     H821582   6.862   1.502   7.131 -2.3910 -0.0401  2.5934
   68MOL     H921583   6.838   1.335   7.086  0.0773  0.6972  0.8335
   68MOL    H1021584   6.950   1.461   6.903 -0.0347 -3.8474 -1.2441
   68MOL    H1121585   6.842   1.579   6.895  0.3704 -0.5716 -2.5805
   68MOL    H1221586   6.798   1.280   6.821  0.7475 -0.3512 -1.9351
   68MOL    H1321587   6.782   1.420   6.717  0.6944  2.5202  1.3157
   68MOL    H1421588   6.664   1.396   6.827  0.2409  1.1435 -0.2784
   68MOL    H1521589   6.505   1.614   7.220 -0.2089  0.5715  0.7872
   68MOL    H1621590   6.438   1.484   7.139 -3.8016  2.2947  1.2984
   68MOL    H1721591   6.628   1.325   7.233 -0.3220 -0.0989  1.4968
   68MOL    C1821592   6.421   1.458   7.359 -0.7726 -0.1191  0.9796
   68MOL    O1921593   6.496   1.508   7.471 -0.0390 -0.3568 -0.2983
   68MOL    C2021594   6.487   1.428   7.587  0.3866 -0.3492 -0.3793
   68MOL    C2121595   6.615   1.465   7.666 -0.3021 -1.2274 -0.0559
   68MOL    C2221596   6.747   1.433   7.597  0.4484 -0.3429 -0.0280
   68MOL    C2321597   6.269   1.508   7.364 -0.3196 -0.0476 -0.8298
   68MOL    H2421598   6.423   1.349   7.349 -3.7961 -0.2370  1.1256
   68MOL    H2521599   6.396   1.456   7.641  1.1499  1.0496  0.2161
   68MOL    H2621600   6.490   1.321   7.567  0.1233 -0.0900 -1.8524
   68MOL    H2721601   6.614   1.410   7.761  0.4909 -1.5932 -0.2546
   68MOL    H2821602   6.614   1.571   7.691 -0.4126 -0.8647 -1.5929
   68MOL    H2921603   6.739   1.346   7.533 -0.1632 -0.3557  0.0592
   68MOL    H3021604   6.831   1.444   7.665 -0.3626  1.2950  0.7427
   68MOL    H3121605   6.762   1.508   7.520  0.8122 -1.2552 -0.8431
   68MOL    H3221606   6.223   1.487   7.460  1.3332 -1.0804 -0.2471
   68MOL    H3321607   6.279   1.616   7.360 -0.5360  0.1378  2.6328
   68MOL    C3421608   6.174   1.432   7.264  0.3724 -0.2577 -0.0022
   68MOL    O3521609   6.178   1.288   7.286 -0.1064  1.0889  0.3667
   68MOL    C3621610   6.104   1.206   7.187  0.3214 -0.6369  0.6900
   68MOL    C3721611   6.183   1.072   7.192 -0.3778 -0.6896  0.3142
   68MOL    C3821612   6.127   0.967   7.105  0.5846  0.3465 -0.6142
   68MOL    C3921613   6.036   1.485   7.292  0.5889  0.1855 -0.0922
   68MOL    H4021614   6.199   1.467   7.164 -1.9909 -1.1990 -0.9613
   68MOL    H4121615   5.999   1.193   7.211  0.5571  0.0120  2.1416
   68MOL    H4221616   6.117   1.250   7.088 -0.9871 -2.0066 -0.1002
   68MOL    H4321617   6.195   1.030   7.292  0.2583  0.2573  0.6520
   68MOL    H4421618   6.286   1.087   7.159 -0.5368  0.8222  0.4526
   68MOL    H4521619   6.021   0.951   7.125  1.1440 -1.9923  0.6439
   68MOL    H4621620   6.188   0.877   7.111  2.9380  1.7160 -2.8510
   68MOL    H4721621   6.127   1.007   7.004  0.4007  0.7440 -0.4589
   68MOL    H4821622   5.963   1.437   7.226  0.0536  2.6749 -1.3745
   68MOL    H4921623   6.011   1.466   7.396  0.1413  1.0334 -0.0431
   68MOL    C5021624   6.010   1.633   7.273 -0.5846  0.3960 -0.0665
   68MOL    O5121625   6.033   1.656   7.135  0.2385  0.0873 -0.7775
   68MOL    C5221626   6.081   1.784   7.103  0.3809 -0.5147 -0.0898
   68MOL    C5321627   6.047   1.809   6.951  0.8099 -0.4356  0.5211
   68MOL    C5421628   5.902   1.860   6.944 -0.3239  0.2736 -0.0295
   68MOL    C5521629   5.872   1.698   7.325  0.1527 -0.3918  0.5623
   68MOL    H5621630   6.086   1.695   7.321  1.6210 -1.4033 -1.1217
   68MOL    H5721631   6.045   1.856   7.176  0.5889 -0.6958  0.1905
   68MOL    H5821632   6.189   1.789   7.115  0.3056 -0.5464  0.6247
   68MOL    H5921633   6.061   1.717   6.895 -1.2556  0.4743 -1.5708
   68MOL    H6021634   6.109   1.886   6.906 -1.9191  2.5481  1.6053
   68MOL    H6121635   5.869   1.856   6.840  1.6951 -1.7281 -0.6361
   68MOL    H6221636   5.888   1.963   6.977 -0.7466  0.1318  0.2372
   68MOL    H6321637   5.829   1.794   6.991 -0.7129  1.0249  0.4338
   68MOL    H6421638   5.883   1.806   7.322 -0.1313 -0.4174 -1.5464
   68MOL    H6521639   5.791   1.691   7.253 -1.4841 -0.2474  2.3548
   68MOL    C6621640   5.844   1.650   7.468 -0.4356  0.1094  0.2662
   68MOL    O6721641   5.958   1.679   7.543  0.3112 -0.1266  0.4655
   68MOL    C6821642   5.968   1.597   7.662  0.3545  0.5573 -0.1314
   68MOL    C6921643   6.096   1.619   7.747 -0.1920  0.3193 -0.4236
   68MOL    C7021644   6.097   1.752   7.825  0.8530 -0.6728  0.3144
   68MOL    C7121645   5.715   1.711   7.517  0.1838  0.8215  0.2781
   68MOL    H7221646   5.818   1.546   7.445  0.4201  0.4485 -2.3673
   68MOL    H7321647   5.880   1.595   7.727 -0.5194 -0.6404 -1.3250
   68MOL    H7421648   5.976   1.496   7.620 -1.5195 -0.8629  2.6860
   68MOL    H7521649   6.183   1.622   7.680  0.3109  0.7472  0.2467
   68MOL    H7621650   6.090   1.539   7.821  0.2887 -0.6869 -1.4434
   68MOL    H7721651   6.107   1.832   7.751 -1.0402 -0.3982  0.3315
   68MOL    H7821652   6.177   1.750   0.071 -1.0005  1.5196  2.4625
   68MOL    H7921653   6.002   1.769   0.049  0.7833  0.9716 -0.3139
   68MOL    H8021654   5.638   1.692   7.441 -0.7916  0.0579  1.4330
   68MOL    H8121655   5.677   1.652   7.600  1.6725 -0.9752 -0.2913
   68MOL    C8221656   5.718   1.854   7.573  0.2756 -0.0196  0.2838
   68MOL    O8321657   5.796   1.937   7.486  0.0114 -0.0933 -0.4087
   68MOL    C8421658   5.906   2.000   7.561  0.2002  0.4400 -0.1646
   68MOL    C8521659   6.021   2.068   7.482 -0.2217  0.4639  0.6055
   68MOL    C8621660   5.971   2.197   7.422 -0.5903  0.6822 -0.1212
   68MOL    C8721661   5.578   1.920   7.588  0.4334  0.5947  0.3401
   68MOL    H8821662   5.766   1.849   7.671 -2.0954  0.2825  1.4831
   68MOL    H8921663   5.874   2.073   7.635 -2.0791 -1.8489  1.2110
   68MOL    H9021664   5.956   1.921   7.617  1.4558  1.3082 -0.0541
   68MOL    H9121665   6.059   2.007   7.400 -1.7140 -0.2704  0.4347
   68MOL    H9221666   6.106   2.091   7.546  1.0870 -1.1959 -0.4882
   68MOL    H9321667   5.944   2.264   7.503 -0.6864  0.1960  0.2553
   68MOL    H9421668   5.880   2.175   7.366  0.0969 -0.1568 -0.9420
   68MOL    H9521669   6.043   2.239   7.353  1.5945 -1.5793  0.6792
   68MOL    H9621670   5.541   1.945   7.489  0.8586 -0.5277 -0.1085
   68MOL    H9721671   5.502   1.846   7.614  2.6348 -1.2638  1.6896
   68MOL    C9821672   5.573   2.039   7.688 -0.0289  0.1199  0.1388
   68MOL    O9921673   5.442   2.088   7.686 -0.0558  0.0657 -0.1673
   68MOL   C10021674   5.418   2.203   7.602  0.1665  0.0709  0.3004
   68MOL   C10121675   5.274   2.204   7.575  0.2263 -0.6042 -0.2739
   68MOL   C10221676   5.219   2.082   7.506  0.0400  0.1865  0.0096
   68MOL   C10321677   5.599   1.990   0.005  0.1083  0.2945 -0.2561
   68MOL   H10421678   5.642   2.122   7.669  0.2498  0.6397  3.2339
   68MOL   H10521679   5.438   2.292   7.661  1.3106  0.1705 -0.2262
   68MOL   H10621680   5.473   2.213   7.509 -0.8398  1.0810 -0.2089
   68MOL   H10721681   5.252   2.286   7.506 -0.6753 -1.4081 -0.9528
   68MOL   H10821682   5.219   2.215   7.668  0.2610 -1.8647 -0.1011
   68MOL   H10921683   5.246   2.055   7.404  1.0905 -0.7806  0.5331
   68MOL   H11021684   5.111   2.091   7.498  0.0148 -0.9835 -1.1255
   68MOL   H11121685   5.240   2.002   7.577 -2.2696 -0.2333  0.2621
   68MOL   H11221686   5.568   1.886   0.016 -0.1992  0.2657 -1.3355
   68MOL   H11321687   5.706   1.993   0.026 -0.2557 -1.3219  1.9722
   68MOL   C11421688   5.529   2.067   0.117 -0.0670 -0.0702 -0.1860
   68MOL   O11521689   5.571   2.010   0.248  0.3864 -0.0556  0.6612
   68MOL   C11621690   5.510   1.881   0.274 -0.7188 -0.4134 -0.4572
   68MOL   C11721691   5.565   1.830   0.412 -0.0720 -0.2103  1.3160
   68MOL   C11821692   5.474   1.720   0.470  0.3966 -0.1663 -0.5180
   68MOL   C11921693   5.556   2.218   0.129  0.1731 -0.3608  0.2058
   68MOL   H12021694   5.421   2.054   0.125 -0.2033  1.6640  1.0285
   68MOL   H12121695   5.401   1.884   0.268 -0.8219 -0.6541  1.1143
   68MOL   H12221696   5.539   1.806   0.201  1.0918  2.8128 -3.1726
   68MOL   H12321697   5.579   1.910   0.484  0.6183  0.6719  0.2115
   68MOL   H12421698   5.666   1.791   0.403  0.0635  0.5532 -0.8306
   68MOL   H12521699   5.530   1.676   0.552 -0.2014  0.5274  0.2637
   68MOL   H12621700   5.446   1.639   0.402 -0.9011  0.8228 -1.1893
   68MOL   H12721701   5.381   1.765   0.503 -0.7865 -1.1025 -2.4631
   68MOL   H12821702   5.662   2.244   0.127  0.0325  0.1124 -2.4363
   68MOL   H12921703   5.524   2.261   0.034 -1.2614  1.8958  1.6669
   68MOL   C13021704   5.483   2.294   0.251 -0.0363  0.1067  0.3789
   68MOL   O13121705   5.545   2.420   0.263  0.3733  0.0967  0.1768
   68MOL   C13221706   5.635   2.440   0.372 -0.4347  0.7495  0.6569
   68MOL   C13321707   5.670   2.590   0.350  0.2413  0.4001  0.0789
   68MOL   C13421708   5.554   2.688   0.337 -0.2154 -0.7560  0.2012
   68MOL   C13521709   5.334   2.318   0.226 -0.3776  0.0260  0.4795
   68MOL   H13621710   5.497   2.238   0.344  0.9639 -0.0331  0.1455
   68MOL   H13721711   5.604   2.419   0.474  1.3506  2.2134  1.5352
   68MOL   H13821712   5.728   2.391   0.344 -2.0399  0.2789 -4.3322
   68MOL   H13921713   5.714   2.593   0.251  3.3701 -2.8495  1.2181
   68MOL   H14021714   5.746   2.632   0.416 -1.2744  2.7996  0.3088
   68MOL   H14121715   5.490   2.693   0.425 -1.1120  1.3059 -0.5447
   68MOL   H14221716   5.481   2.660   0.260 -2.0216 -0.4662  1.7578
   68MOL   H14321717   5.584   2.788   0.307 -0.9928 -1.2839 -2.4791
   68MOL   H14421718   5.330   2.397   0.152 -1.3931 -3.2737 -3.1316
   68MOL   H14521719   5.291   2.243   0.160 -1.9156  0.3226  1.1358
   68MOL   C14621720   5.244   2.340   0.340 -0.3254  0.7913  0.2929
   68MOL   O14721721   5.120   2.398   0.308 -0.0079  0.2717 -0.1984
   68MOL   C14821722   5.089   2.526   0.364  0.0663  0.1778 -0.0304
   68MOL   C14921723   4.974   2.577   0.279  0.2012 -0.0074  0.5296
   68MOL   C15021724   4.841   2.505   0.307  0.3143  0.2593 -0.2408
   68MOL   C15121725   5.221   2.197   0.401  0.0755  1.0355  0.2287
   68MOL   H15221726   5.294   2.400   0.416  0.1131  0.2801  0.4125
   68MOL   H15321727   5.069   2.514   0.471  2.3255 -2.1464  0.1803
   68MOL   H15421728   5.165   2.601   0.341  1.4858 -1.6363 -1.4375
   68MOL   H15521729   4.998   2.562   0.173 -0.5453 -0.5301  0.4328
   68MOL   H15621730   4.962   2.682   0.302  1.2122  0.7122 -1.9960
   68MOL   H15721731   4.859   2.402   0.278  1.8441  0.9326 -1.8671
   68MOL   H15821732   4.763   2.554   0.248 -1.6053  1.6277  3.2951
   68MOL   H15921733   4.810   2.507   0.411  2.8126  0.6669  0.5474
   68MOL   H16021734   5.160   2.140   0.332 -2.0926 -1.0312  3.6916
   68MOL   H16121735   5.317   2.149   0.424 -1.3023 -0.5573  2.9227
   68MOL   C16221736   5.153   2.201   0.538 -0.0841  0.0362  0.0217
   68MOL   O16321737   5.029   2.131   0.535 -0.1909 -0.1023 -0.4089
   68MOL   C16421738   4.928   2.205   0.461  0.3758 -0.0961  0.3773
   68MOL   C16521739   4.786   2.173   0.516  0.4436  0.3662 -0.0673
   68MOL   C16621740   4.775   2.210   0.658  0.7140  0.8550  0.0185
   68MOL   C16721741   5.230   2.146   0.657  0.4077 -0.0688  0.0144
   68MOL   H16821742   5.129   2.305   0.563 -1.6103 -0.4877  0.8128
   68MOL   H16921743   4.949   2.312   0.470  0.6954 -0.1428  0.1853
   68MOL   H17021744   4.938   2.169   0.359  0.4742  0.5124  0.1743
   68MOL   H17121745   4.769   2.066   0.501 -0.7630  0.6359 -0.7186
   68MOL   H17221746   4.707   2.216   0.454  1.1363  0.3873 -0.9305
   68MOL   H17321747   4.844   2.154   0.721  1.0929 -0.5695 -1.6036
   68MOL   H17421748   4.672   2.200   0.691  0.2437  0.6688 -1.4473
   68MOL   H17521749   4.779   2.318   0.672 -2.0571  1.6673 -4.4156
   68MOL   H17621750   5.244   2.041   0.634 -0.2996  0.0710 -1.1123
   68MOL   H17721751   5.328   2.195   0.659 -0.6238  2.1008 -0.4145
   68MOL   C17821752   5.158   2.170   0.788 -0.6246  0.3248  0.2844
   68MOL   O17921753   5.252   2.110   0.884 -0.0623  0.3764  0.5718
   68MOL   C18021754   5.225   1.975   0.919 -0.0507  0.3614 -0.1008
   68MOL   C18121755   5.343   1.915   0.999  0.5846  0.0972  0.2595
   68MOL   C18221756   5.480   1.924   0.935 -0.0623  0.1389  0.4224
   68MOL   C18321757   5.137   2.316   0.825 -0.3834 -0.5872  0.7572
   68MOL   H18421758   5.067   2.110   0.782  0.3180 -1.1435  0.1881
   68MOL   H18521759   5.136   1.962   0.981  0.4691 -2.1343  0.1719
   68MOL   H18621760   5.211   1.913   0.831  1.8737  0.2533 -0.3514
   68MOL   H18721761   5.327   1.811   1.028  1.1150 -0.9228 -2.8837
   68MOL   H18821762   5.347   1.959   1.099  2.0390  0.4702  0.0406
   68MOL   H18921763   5.469   1.871   0.841 -1.3347  2.6482 -0.9009
   68MOL   H19021764   5.567   1.888   0.990  1.4121 -1.7580 -2.9922
   68MOL   H19121765   5.498   2.031   0.923  2.4989 -0.2646  0.4013
   68MOL   H19221766   5.230   2.373   0.822 -1.1527  0.5903 -2.2144
   68MOL   H19321767   5.073   2.381   0.766  2.6270 -1.8730 -4.2701
   68MOL   C19421768   5.090   2.329   0.975 -0.3571  0.0786 -0.1977
   68MOL   O19521769   5.106   2.458   1.020 -0.4785 -0.7241  0.2062
   68MOL   C19621770   5.232   2.510   1.042  0.1413  0.4778  0.3794
   68MOL   C19721771   5.219   2.629   1.135  0.0362 -0.5718 -0.3382
   68MOL   C19821772   5.106   2.728   1.100 -0.6254 -0.2088  0.1017
   68MOL   C19921773   4.940   2.291   0.988  0.1043  0.2961  0.0450
   68MOL   H20021774   5.142   2.265   1.047 -1.7890  0.9318  1.6341
   68MOL   H20121775   5.296   2.440   1.097  1.1758  1.4343  0.4199
   68MOL   H20221776   5.290   2.534   0.953 -0.4294 -2.1309 -0.7371
   68MOL   H20321777   5.319   2.672   1.131  0.4020 -1.5009 -1.5007
   68MOL   H20421778   5.206   2.597   1.238 -0.6892 -0.7006 -0.4659
   68MOL   H20521779   5.108   2.811   1.171  0.6391  0.5461 -0.7952
   68MOL   H20621780   5.005   2.689   1.112 -0.7513  0.7079  2.3020
   68MOL   H20721781   5.113   2.754   0.995 -0.9823 -0.7002 -0.0459
   68MOL   H20821782   4.891   2.371   0.932  1.4231  3.1359  2.7573
   68MOL   H20921783   4.918   2.197   0.938  1.8050 -0.0062 -0.1712
   68MOL   C21021784   4.875   2.302   1.136  0.4390  0.1104 -0.3491
   68MOL   O21121785   4.738   2.334   1.124  0.3525 -0.2403  0.7134
   68MOL   C21221786   4.709   2.467   1.177  0.1018  0.1159  0.1429
   68MOL   C21321787   4.559   2.500   1.151  0.1234  0.2935 -0.6003
   68MOL   C21421788   4.544   2.562   1.016 -0.6932 -0.6713 -0.1217
   68MOL   C21521789   4.881   2.174   1.227 -0.1566 -0.0293  0.2526
   68MOL   H21621790   4.936   2.387   1.166 -1.1094  0.6606  1.2998
   68MOL   H21721791   4.731   2.460   1.283  1.8270 -1.0644 -0.2792
   68MOL   H21821792   4.766   2.547   1.130 -1.5411  1.3085  0.1066
   68MOL   H21921793   4.516   2.573   1.219  1.2724  0.8541 -0.4599
   68MOL   H22021794   4.503   2.408   1.170 -0.4870  0.4469 -1.6577
   68MOL   H22121795   4.566   2.489   0.937 -1.6470 -0.8503 -0.2292
   68MOL   H22221796   4.610   2.649   1.018 -0.7652 -0.4426 -3.4928
   68MOL   H22321797   4.446   2.598   0.987  0.1681  0.0111 -2.3455
   68MOL   H22421798   4.799   2.172   1.299 -0.5627  2.6199 -0.0928
   68MOL   H22521799   4.856   2.089   1.164 -1.0875  0.6716 -0.3414
   68MOL   C22621800   5.013   2.143   1.295  0.4529 -0.2424 -0.8429
   68MOL   O22721801   5.024   2.239   1.398  0.6098  0.1234  0.0776
   68MOL   C22821802   5.125   2.336   1.378  0.8247 -0.0173  0.0373
   68MOL   C22921803   5.126   2.422   1.506  0.2417 -0.4706  0.1016
   68MOL   C23021804   4.991   2.488   1.535  0.9454 -0.3441 -0.9379
   68MOL   C23121805   5.014   2.012   1.373 -0.1679  0.1489  0.7291
   68MOL   H23221806   5.085   2.137   1.213  0.4729 -0.5134 -0.8072
   68MOL   H23321807   5.223   2.295   1.353 -0.0202 -1.9520 -0.1256
   68MOL   H23421808   5.101   2.392   1.287 -0.0681 -0.7230 -0.1624
   68MOL   H23521809   5.203   2.499   1.506 -0.2408  0.0262  1.1238
   68MOL   H23621810   5.143   2.362   1.596 -0.1692 -0.1124  0.4186
   68MOL   H23721811   4.965   2.565   1.462 -2.1499  0.1887  0.6288
   68MOL   H23821812   4.992   2.525   1.638 -0.8019 -3.3379  0.2158
   68MOL   H23921813   4.904   2.423   1.526 -1.2459  2.1340  1.4980
   68MOL   H24021814   4.924   2.018   1.434 -1.0062 -1.7964 -0.2453
   68MOL   H24121815   4.984   1.942   1.295 -2.3164  1.0408  0.7180
   68MOL   C24221816   5.134   1.964   1.457  0.3938 -0.1872  0.4954
   68MOL   O24321817   5.101   1.832   1.502  0.0820 -0.5905  0.5235
   68MOL   C24421818   5.081   1.826   1.640 -0.2554  0.3636  0.9636
   68MOL   C24521819   5.039   1.688   1.697  0.7252  0.5791 -0.0341
   68MOL   C24621820   5.143   1.585   1.687  0.1650  0.2421 -0.2372
   68MOL   C24721821   5.263   1.947   1.375 -0.4198 -0.5069  0.0922
   68MOL   H24821822   5.159   2.027   1.543  1.4416 -0.0672  0.1046
   68MOL   H24921823   5.156   1.871   1.705  1.6894 -1.6934  0.2048
   68MOL   H25021824   4.988   1.882   1.651  0.5528  1.8371  0.4443
   68MOL   H25121825   4.946   1.669   1.644  1.1419  0.7688 -0.8456
   68MOL   H25221826   5.008   1.699   1.801  1.1778  3.5130 -0.1697
   68MOL   H25321827   5.107   1.496   1.739  0.6161  1.2976  1.9486
   68MOL   H25421828   5.238   1.623   1.725 -0.1769  1.3862 -0.5330
   68MOL   H25521829   5.154   1.564   1.581 -1.3240 -0.7048 -0.2128
   68MOL   H25621830   5.232   1.880   1.295 -0.0652 -0.4666 -0.0778
   68MOL   H25721831   5.290   2.043   1.330 -2.9091  0.3013  0.2532
   68MOL   C25821832   5.380   1.885   1.454  0.3056  0.0474  0.1867
   68MOL   O25921833   5.480   1.830   1.369 -0.2763 -0.2155  0.3388
   68MOL   C26021834   5.470   1.693   1.337  0.3586  0.6111  0.2522
   68MOL   C26121835   5.599   1.637   1.270  0.1358 -0.1490  0.7009
   68MOL   C26221836   5.715   1.651   1.372 -0.6011  0.7879  0.0848
   68MOL   C26321837   5.442   1.989   1.544 -0.1508 -0.6759  0.1862
   68MOL   H26421838   5.346   1.800   1.513  2.2610 -0.4457  0.6354
   68MOL   H26521839   5.435   1.626   1.415 -1.9312  0.9673 -0.4289
   68MOL   H26621840   5.389   1.685   1.264  1.8632 -1.1488 -1.2912
   68MOL   H26721841   5.620   1.696   1.181  2.7661  0.2784  1.5768
   68MOL   H26821842   5.566   1.537   1.242 -0.7309  0.1801  0.5072
   68MOL   H26921843   5.790   1.573   1.364 -0.9232  0.3460  1.2831
   68MOL   H27021844   5.680   1.627   1.473  1.8455 -4.8502 -0.2876
   68MOL   H27121845   5.747   1.755   1.359 -2.3534  1.0728 -2.3700
   68MOL   H27221846   5.462   2.073   1.476  1.2349 -0.0114  1.3848
   68MOL   H27321847   5.364   2.024   1.612 -0.2452 -1.6148  0.5682
   68MOL   C27421848   5.561   1.965   1.639  0.1320 -0.1467  0.1605
   68MOL   O27521849   5.601   2.092   1.690  0.6960 -0.3873 -0.4102
   68MOL   C27621850   5.692   2.148   1.599 -0.2757 -0.1129  0.1537
   68MOL   C27721851   5.778   2.245   1.676 -1.2356  0.1624  0.1177
   68MOL   C27821852   5.896   2.176   1.749  0.3200  0.3046 -0.0373
   68MOL   C27921853   5.521   1.872   1.759  0.2900 -0.0801  0.0682
   68MOL   H28021854   5.629   1.906   1.578 -1.9633  0.0359 -2.4320
   68MOL   H28121855   5.757   2.073   1.554  0.3454 -0.5393  1.7314
   68MOL   H28221856   5.627   2.207   1.534 -0.1867 -0.1614  0.0200
   68MOL   H28321857   5.726   2.309   1.747 -1.1763 -1.0057  1.2306
   68MOL   H28421858   5.823   2.307   1.599 -1.0933 -0.1912 -0.0861
   68MOL   H28521859   5.979   2.241   1.775 -0.0297  0.4238  0.7908
   68MOL   H28621860   5.921   2.086   1.692  1.7152  1.7065 -1.6793
   68MOL   H28721861   5.851   2.134   1.839  0.4396 -0.4625 -0.3322
   68MOL   H28821862   5.448   1.935   1.810  2.1078  1.4577  0.8469
   68MOL   H28921863   5.478   1.783   1.713  0.2265  0.2576 -0.5381
   68MOL   C29021864   5.651   1.836   1.838  0.1583 -0.5281 -0.0396
   68MOL   O29121865   5.612   1.744   1.935 -0.1314  0.2839 -0.2220
   68MOL   C29221866   5.567   1.809   2.055  0.4764  0.2321  0.2617
   68MOL   C29321867   5.469   1.710   2.129 -0.5807 -0.8445 -0.8406
   68MOL   C29421868   5.348   1.676   2.043  0.0188 -0.1215  0.5341
   68MOL   C29521869   5.764   1.775   1.754  0.6120 -0.1190  0.6146
   68MOL   H29621870   5.688   1.930   1.880  0.5900 -1.3799  1.5030
   68MOL   H29721871   5.647   1.857   2.112  1.2046 -0.5154 -0.1121
   68MOL   H29821872   5.507   1.896   2.028  1.0693 -0.1216 -2.3625
   68MOL   H29921873   5.437   1.757   2.223  1.0141  0.6145 -1.0038
   68MOL   H30021874   5.526   1.620   2.152 -1.0121 -0.9514 -0.1597
   68MOL   H30121875   5.297   1.587   2.079 -1.6739 -0.0187 -1.4755
   68MOL   H30221876   5.370   1.652   1.939 -0.1361  2.0161 -0.0166
   68MOL   H30321877   5.273   1.755   2.057  1.6463  1.3950  0.8178
   68MOL   H30421878   5.711   1.702   1.692 -0.0732  0.6662  0.2719
   68MOL   H30521879   5.807   1.850   1.688  1.1199  0.1534  1.2476
   68MOL   C30621880   5.875   1.706   1.833 -0.4241  0.6409  0.4707
   68MOL   O30721881   5.961   1.656   1.735  0.3903  0.4222 -0.7215
   68MOL   C30821882   5.963   1.521   1.707 -0.0743  0.1292  0.1961
   68MOL   C30921883   6.096   1.505   1.631  0.5145  0.3633  0.5487
   68MOL   C31021884   6.201   1.485   1.733  0.1013  0.0244  0.5579
   68MOL   C31121885   5.955   1.797   1.929 -0.3397 -0.3937 -0.0908
   68MOL   H31221886   5.836   1.624   1.893  1.0147 -2.2394 -2.3600
   68MOL   H31321887   5.961   1.454   1.793  2.4499 -0.3675 -0.0901
   68MOL   H31421888   5.876   1.489   1.650  1.6133 -2.0332 -1.2250
   68MOL   H31521889   6.101   1.594   1.569 -1.2831 -0.2989 -0.6033
   68MOL   H31621890   6.096   1.425   1.556 -2.0304  1.6958 -0.9306
   68MOL   H31721891   6.212   1.557   1.815  2.1042 -0.7069  0.9706
   68MOL   H31821892   6.295   1.486   1.677 -0.0743 -1.4841  0.2123
   68MOL   H31921893   6.203   1.390   1.786 -1.2682 -1.0569 -1.2923
   68MOL   H32021894   5.971   1.893   1.880  1.3602 -0.9233 -0.6308
   68MOL   H32121895   5.905   1.803   2.026  3.7356  0.8600  2.0831
   68MOL   H32221896   6.056   1.759   1.946  0.1037  1.3748  1.3728
   69MOL     C121897   5.859   0.031   0.909 -0.2100 -0.4681  0.1130
   69MOL     O221898   5.962   7.826   0.820  0.0880 -0.0381 -1.1725
   69MOL     C321899   5.934   7.730   0.718 -0.2358 -0.3311  0.4030
   69MOL     C421900   5.874   7.804   0.601  0.5070 -0.8237 -0.2746
   69MOL     C521901   5.946   0.094   0.538  0.0001 -0.4550  0.3301
   69MOL     C621902   5.898   0.159   0.989 -0.0568 -0.0926  0.5405
   69MOL     H721903   5.846   7.773   0.975 -0.6994 -0.4273  0.0741
   69MOL     H821904   6.025   7.682   0.682  0.2576  1.7455 -1.2317
   69MOL     H921905   5.863   7.654   0.750 -0.7215  0.4824  1.2957
   69MOL    H1021906   5.772   7.828   0.630  0.3645 -1.2265 -0.4430
   69MOL    H1121907   5.867   7.730   0.521  0.2880 -0.2151 -0.8236
   69MOL    H1221908   5.885   0.139   0.459  0.3104  1.0744  0.9475
   69MOL    H1321909   6.047   0.080   0.499  0.5704  3.7049  0.1230
   69MOL    H1421910   5.944   0.167   0.618 -0.2571 -2.7715  2.4975
   69MOL    H1521911   5.994   0.150   1.040  0.1241 -2.0402 -0.0993
   69MOL    H1621912   5.901   0.239   0.915  0.7837 -1.3177 -0.7746
   69MOL    H1721913   5.765   0.057   0.861 -1.6469 -0.6434  2.7309
   69MOL    C1821914   5.789   0.201   1.087  0.8588  0.5195 -0.0450
   69MOL    O1921915   5.769   0.103   1.192  0.0352 -0.2794 -0.0331
   69MOL    C2021916   5.641   0.087   1.238 -0.4763 -0.3042 -0.0618
   69MOL    C2121917   5.639   7.814   1.357 -0.5785 -0.6917  0.0642
   69MOL    C2221918   5.740   0.024   1.466  0.2948 -0.0675 -0.7127
   69MOL    C2321919   5.827   0.336   1.151  0.0837  0.1681  0.1115
   69MOL    H2421920   5.697   0.214   1.030  0.6903 -0.0783  0.0924
   69MOL    H2521921   5.604   0.183   1.275 -0.2540 -0.0547 -0.4963
   69MOL    H2621922   5.572   0.058   1.159 -0.6858 -1.6780  0.6174
   69MOL    H2721923   5.657   7.715   1.313  0.8279 -0.7238  0.6687
   69MOL    H2821924   5.537   7.816   1.395 -0.5360 -1.8101  0.2734
   69MOL    H2921925   5.714   0.121   1.508 -0.4289  1.0277 -3.6062
   69MOL    H3021926   5.845   0.031   1.437  0.4803  1.8928  0.3891
   69MOL    H3121927   5.729   7.777   1.545 -3.4128  0.3750 -0.7178
   69MOL    H3221928   5.790   0.324   1.253  2.4869 -1.2155  0.8628
   69MOL    H3321929   5.933   0.342   1.176  0.1130 -0.6757  0.2098
   69MOL    C3421930   5.772   0.461   1.075 -0.7567 -0.2844 -0.0502
   69MOL    O3521931   5.650   0.488   1.145 -0.3272 -0.1742 -0.2299
   69MOL    C3621932   5.535   0.503   1.063  0.3886 -0.4205  0.5521
   69MOL    C3721933   5.503   0.654   1.043 -0.7839  0.1177  0.6048
   69MOL    C3821934   5.449   0.717   1.170  0.2291 -0.4986  0.1209
   69MOL    C3921935   5.868   0.588   1.101  0.5900  0.3446  0.1669
   69MOL    H4021936   5.763   0.437   0.969  0.5752  2.6681 -0.8575
   69MOL    H4121937   5.535   0.441   0.973 -1.0233 -0.9379  0.8940
   69MOL    H4221938   5.445   0.465   1.111 -0.1124 -1.0699 -0.8725
   69MOL    H4321939   5.427   0.661   0.965  1.0846 -0.0425 -1.2479
   69MOL    H4421940   5.587   0.706   0.998 -1.5163  2.1863  1.5596
   69MOL    H4521941   5.517   0.691   1.251  1.6156 -2.0611 -1.4833
   69MOL    H4621942   5.351   0.678   1.198 -0.7119  1.3113 -0.6113
   69MOL    H4721943   5.440   0.822   1.141  0.1340 -0.6228 -0.3098
   69MOL    H4821944   5.815   0.674   1.061 -0.3735  0.7483  2.3042
   69MOL    H4921945   5.875   0.602   1.208 -0.3753  1.1138  0.1287
   69MOL    C5021946   6.011   0.574   1.040 -0.0778 -0.4498 -0.2443
   69MOL    O5121947   5.979   0.563   0.909 -0.3530 -0.2916 -0.8111
   69MOL    C5221948   6.079   0.486   0.834 -0.0347 -0.6054 -0.5853
   69MOL    C5321949   6.012   0.456   0.709 -0.3796 -0.4925 -0.3229
   69MOL    C5421950   6.111   0.388   0.623 -0.2815 -1.0260  0.2233
   69MOL    C5521951   6.103   0.698   1.066  0.1839 -0.1209  0.2808
   69MOL    H5621952   6.051   0.484   1.088  0.5842  0.4357  0.9037
   69MOL    H5721953   6.168   0.549   0.823 -1.0352  0.1609 -5.2846
   69MOL    H5821954   6.089   0.390   0.883 -0.6709 -0.3838 -0.0111
   69MOL    H5921955   5.967   0.546   0.666  0.8271  0.7591  0.9688
   69MOL    H6021956   5.936   0.380   0.728  0.9549 -2.2566 -1.9356
   69MOL    H6121957   6.150   0.291   0.655  1.2839 -0.1946  0.8468
   69MOL    H6221958   6.195   0.453   0.601  0.9267 -2.7962 -0.5146
   69MOL    H6321959   6.067   0.377   0.524 -1.3237  1.0914  0.4215
   69MOL    H6421960   6.191   0.687   1.003 -1.1900 -0.2478 -1.6505
   69MOL    H6521961   6.061   0.794   1.038 -0.7793 -0.4308  0.6557
   69MOL    C6621962   6.143   0.720   1.217 -0.7349  0.4062 -0.2501
   69MOL    O6721963   6.191   0.601   1.268 -0.2463  0.4866  0.1688
   69MOL    C6821964   6.135   0.556   1.390 -0.9349 -0.2665  0.0858
   69MOL    C6921965   6.162   0.404   1.382 -0.4110 -0.3851 -0.2415
   69MOL    C7021966   6.123   0.331   1.500  0.0781 -0.2650  0.2653
   69MOL    C7121967   6.242   0.836   1.245 -0.2575  0.2060  0.2788
   69MOL    H7221968   6.047   0.745   1.263 -0.5824  1.0593 -0.2758
   69MOL    H7321969   6.182   0.601   1.478 -1.5067  2.8377 -1.1355
   69MOL    H7421970   6.028   0.576   1.394 -1.0033 -0.5929 -0.1313
   69MOL    H7521971   6.269   0.389   1.366 -0.0922  0.7405  0.7406
   69MOL    H7621972   6.113   0.365   1.293  0.3524  2.2935 -1.9156
   69MOL    H7721973   6.016   0.342   1.516  0.0226 -1.2768  0.5940
   69MOL    H7821974   6.180   0.355   1.590  2.2020  1.3420 -1.4507
   69MOL    H7921975   6.139   0.228   1.470  1.1860 -0.5138  1.6259
   69MOL    H8021976   6.191   0.928   1.217  0.5163  0.3003 -0.8588
   69MOL    H8121977   6.257   0.840   1.353 -0.5844  0.8162  0.3073
   69MOL    C8221978   6.367   0.818   1.163  0.4091  0.3106 -1.0152
   69MOL    O8321979   6.344   0.860   1.031 -0.0056  0.2204 -0.6256
   69MOL    C8421980   6.436   0.797   0.937 -0.2353  0.6604  0.1741
   69MOL    C8521981   6.417   0.860   0.797  0.1994 -0.1992 -0.2687
   69MOL    C8621982   6.289   0.817   0.727 -0.3375 -0.2029  0.5767
   69MOL    C8721983   6.484   0.897   1.227  0.5659 -0.3083  0.0032
   69MOL    H8821984   6.394   0.713   1.175  2.9200  1.2153  1.9027
   69MOL    H8921985   6.540   0.799   0.968  0.2890 -4.3862 -0.7657
   69MOL    H9021986   6.414   0.691   0.921  2.1255  0.1591  0.1637
   69MOL    H9121987   6.508   0.843   0.739  1.7200  2.8986  1.0248
   69MOL    H9221988   6.413   0.968   0.811 -0.4846 -0.6658  4.0484
   69MOL    H9321989   6.198   0.841   0.782 -1.0852 -1.1314 -0.2317
   69MOL    H9421990   6.298   0.710   0.709 -0.1836 -0.1732  0.4803
   69MOL    H9521991   6.272   0.870   0.633  0.6899  0.4370  0.7490
   69MOL    H9621992   6.553   0.924   1.147  1.2632 -1.6838  0.1200
   69MOL    H9721993   6.442   0.990   1.265 -0.1655  1.2058 -4.3032
   69MOL    C9821994   6.552   0.827   1.349 -0.6739  0.5646  0.6454
   69MOL    O9921995   6.641   0.717   1.316  0.1365 -0.2481 -0.2014
   69MOL   C10021996   6.589   0.585   1.323 -0.6797 -0.0794 -0.1144
   69MOL   C10121997   6.690   0.469   1.311  0.0752 -0.3710 -0.2835
   69MOL   C10221998   6.806   0.501   1.408 -0.1621  0.3008  0.2243
   69MOL   C10321999   6.641   0.925   1.439 -0.3176  0.7412  0.2486
   69MOL   H10422000   6.477   0.801   1.424 -0.5680  1.9866  1.2565
   69MOL   H10522001   6.540   0.574   1.420 -0.8666 -1.7193 -0.3735
   69MOL   H10622002   6.514   0.569   1.246 -0.2871  1.4647 -0.8297
   69MOL   H10722003   6.734   0.465   1.211  0.6151 -1.0463 -0.0303
   69MOL   H10822004   6.643   0.371   1.318  0.5509 -0.5061  1.3153
   69MOL   H10922005   6.783   0.549   1.504  0.4895 -0.1470  0.6091
   69MOL   H11022006   6.890   0.549   1.358  1.7862 -4.5155 -1.4388
   69MOL   H11122007   6.852   0.406   1.434  2.2260  2.0962  2.9067
   69MOL   H11222008   6.570   0.971   1.509  1.5008  1.2943  1.7827
   69MOL   H11322009   6.708   0.871   1.506 -2.0990 -0.6991  0.9078
   69MOL   C11422010   6.740   1.020   1.365  0.2291  0.4827  0.2229
   69MOL   O11522011   6.654   1.118   1.299 -0.1838  0.3179  0.6142
   69MOL   C11622012   6.713   1.190   1.191  0.8398  0.4534 -0.2827
   69MOL   C11722013   6.617   1.286   1.123 -0.3258  0.0249 -0.1893
   69MOL   C11822014   6.505   1.215   1.050 -0.7766  0.5295  0.1245
   69MOL   C11922015   6.845   1.080   1.459 -0.2838 -0.0468  0.8869
   69MOL   H12022016   6.787   0.950   1.296  1.3071  2.1768 -0.8055
   69MOL   H12122017   6.790   1.253   1.237  3.3004 -0.2627 -3.2215
   69MOL   H12222018   6.767   1.132   1.117 -1.6938  1.3198 -2.9145
   69MOL   H12322019   6.667   1.355   1.056 -0.5329  1.3118  0.9576
   69MOL   H12422020   6.590   1.344   1.212  0.7393 -1.5637  1.2096
   69MOL   H12522021   6.445   1.156   1.119 -0.3027 -1.4245 -1.1022
   69MOL   H12622022   6.542   1.147   0.973  0.5875  0.1515  1.1009
   69MOL   H12722023   6.450   1.295   1.001 -0.2823 -0.4987 -2.1831
   69MOL   H12822024   6.889   1.168   1.413 -1.0072 -0.9083 -1.5301
   69MOL   H12922025   6.802   1.125   1.548 -1.7901  0.5144 -0.1117
   69MOL   C13022026   6.962   0.986   1.498  0.3984  0.5473 -0.0708
   69MOL   O13122027   7.040   0.972   1.382 -0.0900  0.0794  0.0704
   69MOL   C13222028   7.039   0.841   1.312 -0.1332 -0.1921  0.4420
   69MOL   C13322029   7.160   0.845   1.210 -0.4625  0.8322 -0.0980
   69MOL   C13422030   7.291   0.818   1.278 -0.2678 -0.1794 -0.7364
   69MOL   C13522031   7.055   1.048   1.607 -0.2634 -0.3326 -0.2282
   69MOL   H13622032   6.920   0.888   1.521  1.5009 -0.1193 -0.8619
   69MOL   H13722033   7.049   0.754   1.377 -0.8698 -1.3604 -0.9603
   69MOL   H13822034   6.946   0.830   1.256  0.4615  0.3325 -0.6667
   69MOL   H13922035   7.151   0.937   1.152 -1.8728 -0.5108 -2.0372
   69MOL   H14022036   7.127   0.765   1.144 -2.9429  1.1399  0.7377
   69MOL   H14122037   7.310   0.717   1.312 -1.4930 -0.5762 -1.1878
   69MOL   H14222038   7.299   0.853   1.381  0.2306 -3.2638  0.3306
   69MOL   H14322039   7.375   0.847   1.215  0.8755 -0.8272  0.4686
   69MOL   H14422040   7.079   1.149   1.573  1.6915 -0.3142  1.1351
   69MOL   H14522041   6.987   1.073   1.689  2.0378  2.2910  0.9563
   69MOL   C14622042   7.184   0.969   1.648 -0.1085  0.7206 -0.0620
   69MOL   O14722043   7.245   1.048   1.747 -0.3819  0.0903 -0.1270
   69MOL   C14822044   7.351   1.133   1.701  0.0989 -0.5414 -0.3655
   69MOL   C14922045   7.413   1.177   1.832 -0.5453  0.2658 -0.2401
   69MOL   C15022046   7.531   1.265   1.805 -0.2481  0.5590  0.2283
   69MOL   C15122047   7.147   0.833   1.713 -0.3258 -0.1436  0.5123
   69MOL   H15222048   7.256   0.957   1.568 -0.3986  0.0981 -0.2328
   69MOL   H15322049   7.417   1.078   1.633 -1.9521 -0.5226 -2.4257
   69MOL   H15422050   7.305   1.218   1.651 -0.0766 -0.5050 -0.1411
   69MOL   H15522051   7.455   1.089   1.881  0.9651  1.0599 -0.0863
   69MOL   H15622052   7.343   1.212   1.906  0.0768  0.7547  0.1240
   69MOL   H15722053   7.503   1.330   1.721 -1.7881 -0.2841  0.0768
   69MOL   H15822054   7.618   1.210   1.768 -0.3591 -0.4196  1.4087
   69MOL   H15922055   7.552   1.328   1.891  0.7829  0.9548 -0.2994
   69MOL   H16022056   7.080   0.783   1.642 -0.4847 -0.9563  1.2345
   69MOL   H16122057   7.240   0.777   1.707  0.1576  0.7642 -0.7529
   69MOL   C16222058   7.081   0.836   1.853  0.0105 -0.7641  0.7518
   69MOL   O16322059   6.942   0.827   1.840 -0.0221 -0.0033 -0.5498
   69MOL   C16422060   6.872   0.911   1.924 -0.2098  0.3011  0.0037
   69MOL   C16522061   6.729   0.856   1.933 -0.2981 -0.0270  0.2070
   69MOL   C16622062   6.716   0.722   2.003  0.3805  0.1829  0.6908
   69MOL   C16722063   7.125   0.715   1.941  0.5078  0.0834  0.1081
   69MOL   H16822064   7.110   0.925   1.909 -0.9747  0.4029 -0.5604
   69MOL   H16922065   6.905   0.923   2.027 -0.3719 -1.3242  0.2670
   69MOL   H17022066   6.860   1.002   1.866  0.9772  0.4628 -0.0003
   69MOL   H17122067   6.684   0.854   1.834  1.1217  3.1758 -0.5564
   69MOL   H17222068   6.664   0.927   1.984 -0.1801  1.9681 -2.3078
   69MOL   H17322069   6.745   0.732   2.107  0.9495  1.2335  0.4429
   69MOL   H17422070   6.784   0.659   1.945  1.1646 -0.0357  1.8406
   69MOL   H17522071   6.617   0.676   1.993 -0.1047  0.6438  3.2545
   69MOL   H17622072   7.054   0.709   2.024  0.6823 -1.2535  0.1754
   69MOL   H17722073   7.107   0.620   1.890  0.1195  0.1992  0.0286
   69MOL   C17822074   7.270   0.712   1.996 -0.1608 -0.3130 -0.3836
   69MOL   O17922075   7.251   0.790   2.115 -0.4945  0.9166  0.4295
   69MOL   C18022076   7.373   0.867   2.149 -0.4506  0.0807  0.3448
   69MOL   C18122077   7.380   0.917   2.288  0.5005 -0.5349 -0.7782
   69MOL   C18222078   7.515   0.984   2.309  0.0844 -0.5815  0.0708
   69MOL   C18322079   7.315   0.561   2.031  0.1015 -0.1578  0.2661
   69MOL   H18422080   7.339   0.759   1.926 -0.6104  1.6828  0.4990
   69MOL   H18522081   7.457   0.800   2.133 -1.2624 -0.3755 -2.2270
   69MOL   H18622082   7.393   0.948   2.078  1.0902  1.0958  1.9074
   69MOL   H18722083   7.377   0.836   2.361 -2.6377 -0.3986 -0.6965
   69MOL   H18822084   7.290   0.976   2.303 -0.5974 -2.2992 -0.2656
   69MOL   H18922085   7.597   0.912   2.310 -1.2732 -2.1847 -1.0743
   69MOL   H19022086   7.511   1.040   2.403 -0.6164 -1.0457  0.3253
   69MOL   H19122087   7.540   1.059   2.234  0.6296 -2.1234 -1.3078
   69MOL   H19222088   7.382   0.540   2.113 -0.5174 -0.7012  0.6406
   69MOL   H19322089   7.233   0.498   2.065  0.2162 -0.2890  0.2965
   69MOL   C19422090   7.374   0.495   1.901  0.3887 -0.0379  0.3439
   69MOL   O19522091   7.481   0.572   1.853  0.2228 -0.1941  0.3366
   69MOL   C19622092   7.510   0.574   1.711  0.3238  0.0708  0.3827
   69MOL   C19722093   7.626   0.667   1.678 -0.5211  0.4496  0.3052
   69MOL   C19822094   7.595   0.802   1.736 -0.5305 -0.4103  0.0002
   69MOL   C19922095   7.428   0.352   1.917 -0.0916 -0.1985 -0.4091
   69MOL   H20022096   7.293   0.504   1.828 -0.1007  0.3589  0.9311
   69MOL   H20122097   7.523   0.472   1.674  0.1283 -0.3019  1.3168
   69MOL   H20222098   7.419   0.612   1.666  1.3075  0.8966 -0.9606
   69MOL   H20322099   7.632   0.675   1.570  0.0094  3.1537  0.4953
   69MOL   H20422100   7.715   0.616   1.715 -1.3304 -0.9791  0.3250
   69MOL   H20522101   7.487   0.817   1.732 -0.3911  0.7240  0.2450
   69MOL   H20622102   7.652   0.883   1.690 -1.9998 -0.5011 -2.0482
   69MOL   H20722103   7.618   0.798   1.842  1.0403  0.8352 -0.2836
   69MOL   H20822104   7.452   0.313   1.818  0.5919  1.3570 -0.8577
   69MOL   H20922105   7.515   0.361   1.982  0.9236 -0.5981 -1.7046
   69MOL   C21022106   7.321   0.248   1.965 -0.1216  0.2481  0.0430
   69MOL   O21122107   7.216   0.230   1.869  0.4944  0.1704  0.0540
   69MOL   C21222108   7.104   0.156   1.927 -0.7793  0.0302 -0.0475
   69MOL   C21322109   6.979   0.191   1.853  0.4720  0.0425 -0.5185
   69MOL   C21422110   6.959   0.344   1.828 -0.3139 -0.0383 -0.1829
   69MOL   C21522111   7.393   0.112   1.970  0.3537 -0.3912  0.1066
   69MOL   H21622112   7.278   0.282   2.059 -0.4130 -1.4641  0.5548
   69MOL   H21722113   7.124   0.049   1.925 -0.2854  0.1156  0.3500
   69MOL   H21822114   7.089   0.193   2.029  0.2328 -0.8756  0.4444
   69MOL   H21922115   6.895   0.157   1.914 -0.4011  0.5143 -1.4354
   69MOL   H22022116   6.977   0.131   1.762  1.4027  0.1922 -0.6430
   69MOL   H22122117   6.889   0.362   1.747 -0.6992 -2.4134 -0.4064
   69MOL   H22222118   7.048   0.389   1.784 -0.3075  0.6316  0.4945
   69MOL   H22322119   6.937   0.394   1.922  0.9733 -0.9909  0.6540
   69MOL   H22422120   7.321   0.033   1.991 -0.3408  0.3228  0.4270
   69MOL   H22522121   7.424   0.095   1.867  1.6208 -0.2597  0.4592
   69MOL   C22622122   7.510   0.099   2.072 -0.3442  0.7462 -0.3458
   69MOL   O22722123   7.452   0.140   2.194 -0.4169  0.6529  0.1487
   69MOL   C22822124   7.543   0.191   2.295 -0.6893 -0.0446  0.9166
   69MOL   C22922125   7.450   0.256   2.401 -0.9840  0.1114  0.2473
   69MOL   C23022126   7.379   0.379   2.351 -0.5364 -0.3757 -0.4736
   69MOL   C23122127   7.552   7.770   2.081  0.4130  0.5837 -0.2002
   69MOL   H23222128   7.595   0.156   2.036  1.8086 -1.1404  1.5583
   69MOL   H23322129   7.603   0.112   2.340  1.7137  0.7557 -0.7886
   69MOL   H23422130   7.614   0.260   2.249  1.4194 -2.4465  0.4828
   69MOL   H23522131   7.511   0.288   2.485 -0.1264  0.4667 -0.5086
   69MOL   H23622132   7.380   0.181   2.437 -1.0792 -0.4481 -1.0579
   69MOL   H23722133   7.316   0.425   2.427  1.4158 -0.6372  1.3410
   69MOL   H23822134   7.310   0.359   2.269  0.8720  1.7351 -2.2476
   69MOL   H23922135   7.448   0.457   2.316 -0.8351  0.7975  1.5139
   69MOL   H24022136   7.616   7.758   2.169 -1.8024 -1.3372  1.1890
   69MOL   H24122137   7.468   7.703   2.094  0.3054  0.7937  0.2063
   69MOL   C24222138   7.639   7.727   1.963 -0.0378  0.9953 -0.6372
   69MOL   O24322139   7.771   7.705   1.998  0.1811  0.3489  0.4079
   69MOL   C24422140   0.022   7.826   2.021  0.4511  0.1522  0.0148
   69MOL   C24522141   0.149   7.785   2.090  0.3391  0.0341  0.4427
   69MOL   C24622142   0.146   7.734   2.230 -0.4574 -0.0256  0.4722
   69MOL   C24722143   7.589   7.591   1.904  0.0868 -0.1563  0.5458
   69MOL   H24822144   7.642   7.804   1.886  1.1733 -1.5173 -3.1938
   69MOL   H24922145   0.037   0.059   1.932 -0.6386 -0.7613 -0.8159
   69MOL   H25022146   7.785   0.065   2.078 -0.8571 -0.9011 -0.1906
   69MOL   H25122147   0.215   0.044   2.087  0.2306  0.1716  1.7333
   69MOL   H25222148   0.198   7.714   2.023 -0.1144 -1.7761  1.9915
   69MOL   H25322149   0.077   7.650   2.231  0.0181 -0.4957 -1.8044
   69MOL   H25422150   0.113   7.807   2.303 -0.4844 -0.5568  0.9889
   69MOL   H25522151   0.241   7.698   2.268 -1.8140 -2.5684  1.6033
   69MOL   H25622152   7.658   7.550   1.830 -0.3557 -1.7127  0.9636
   69MOL   H25722153   7.595   7.513   1.980 -2.5131  1.1309  2.1264
   69MOL   C25822154   7.454   7.596   1.824  0.3667 -0.0248  1.2845
   69MOL   O25922155   7.493   7.671   1.708 -0.5394 -0.1607 -0.1250
   69MOL   C26022156   7.386   7.741   1.642  0.1885 -0.1093 -0.0078
   69MOL   C26122157   7.428   0.014   1.532  0.7948 -0.1125  0.4252
   69MOL   C26222158   7.537   0.109   1.576 -0.0383 -0.2685 -0.5953
   69MOL   C26322159   7.411   7.460   1.772  0.2363  0.7163  0.3480
   69MOL   H26422160   7.373   7.643   1.879 -0.7734 -0.7827  0.2868
   69MOL   H26522161   7.327   7.667   1.589 -0.7223  0.7444 -0.1863
   69MOL   H26622162   7.313   7.784   1.711 -0.7872 -1.3683 -0.2478
   69MOL   H26722163   7.338   0.073   1.515  1.4462  0.2883 -1.6963
   69MOL   H26822164   7.453   7.791   1.439  1.2621 -0.1791  0.5850
   69MOL   H26922165   7.636   0.063   1.569  0.3075  0.4551 -0.4913
   69MOL   H27022166   7.531   0.129   1.682 -2.0840 -0.6243 -0.6304
   69MOL   H27122167   7.529   0.203   1.520 -0.0742  0.2585  0.2961
   69MOL   H27222168   7.324   7.483   1.711  0.1653  0.2606  0.2758
   69MOL   H27322169   7.491   7.438   1.702 -0.5140 -0.4501 -0.1499
   69MOL   C27422170   7.393   7.347   1.862  0.0892  0.1807  0.3920
   69MOL   O27522171   7.307   7.384   1.974  0.2096  0.7427  0.1939
   69MOL   C27622172   7.336   7.320   2.097  0.3444  0.3843 -0.5230
   69MOL   C27722173   7.236   7.366   2.205 -0.0741  0.1638 -0.3156
   69MOL   C27822174   7.207   7.518   2.228 -0.4826  0.3852 -0.6882
   69MOL   C27922175   7.332   7.226   1.797 -0.1182 -0.0175  0.0070
   69MOL   H28022176   7.495   7.319   1.887 -0.0791  0.2926  1.2118
   69MOL   H28122177   7.315   7.216   2.074  0.7208  0.2899 -0.4480
   69MOL   H28222178   7.438   7.338   2.130 -0.0808  0.8576  0.5637
   69MOL   H28322179   7.266   7.326   2.302 -1.8244  0.1945  0.2560
   69MOL   H28422180   7.140   7.320   2.180  0.3385 -1.2130  0.5707
   69MOL   H28522181   7.284   7.566   2.288 -0.2663 -1.9842  1.0129
   69MOL   H28622182   7.109   7.535   2.272 -0.0825 -0.2754  0.4787
   69MOL   H28722183   7.205   7.572   2.133 -1.2311  0.3996 -0.6717
   69MOL   H28822184   7.286   7.157   1.867 -0.2043 -1.3757 -1.3638
   69MOL   H28922185   7.244   7.253   1.738 -0.8393 -0.6763  0.7701
   69MOL   C29022186   7.419   7.148   1.693  0.7669 -0.3163 -0.7478
   69MOL   O29122187   7.450   7.229   1.579  0.1071  0.4814  0.1131
   69MOL   C29222188   7.352   7.210   1.477  0.4511 -0.3050  1.2765
   69MOL   C29322189   7.422   7.276   1.349  0.0587  0.1047  0.0955
   69MOL   C29422190   7.449   7.426   1.375 -0.3318 -0.4636 -0.0645
   69MOL   C29522191   7.554   7.097   1.755 -0.2034  0.3279 -0.3684
   69MOL   H29622192   7.359   7.065   1.655 -1.7084  1.0045  0.1511
   69MOL   H29722193   7.336   7.104   1.459  3.2863 -1.0591  3.0005
   69MOL   H29822194   7.260   7.267   1.495  1.2657  1.7923 -0.8707
   69MOL   H29922195   7.342   7.276   1.274 -0.3566  0.8493  0.5363
   69MOL   H30022196   7.509   7.216   1.321  0.5530  0.3294  1.1328
   69MOL   H30122197   7.469   7.492   1.291 -0.0087 -0.1204  0.2810
   69MOL   H30222198   7.538   7.427   1.438 -1.7553  0.2083  1.9693
   69MOL   H30322199   7.364   7.462   1.432 -0.4255 -2.0825  0.8432
   69MOL   H30422200   7.626   7.178   1.747  1.2198 -0.9757 -0.9258
   69MOL   H30522201   7.543   7.075   1.862  1.0287 -1.9046 -0.6614
   69MOL   C30622202   7.617   6.979   1.680 -0.6523  0.8332  0.6139
   69MOL   O30722203   7.753   6.965   1.723 -0.8118 -0.1186 -0.7270
   69MOL   C30822204   0.015   6.910   1.633 -0.2493 -0.5852 -0.2533
   69MOL   C30922205   0.152   6.876   1.690  0.3296 -0.0848 -0.0303
   69MOL   C31022206   0.137   6.764   1.789 -0.6512  0.2817  0.2169
   69MOL   C31122207   7.537   6.850   1.698 -0.0532 -1.1380 -0.6696
   69MOL   H31222208   7.619   7.004   1.574 -1.9447  0.2084  0.4301
   69MOL   H31322209   7.811   6.815   1.589  2.5237 -0.9850 -1.5756
   69MOL   H31422210   0.032   6.981   1.552  0.4405 -1.2231 -0.6829
   69MOL   H31522211   0.197   6.963   1.736  1.0752  1.0947 -2.8876
   69MOL   H31622212   0.226   6.846   1.616 -0.7547 -0.5313 -0.9491
   69MOL   H31722213   0.225   6.744   1.849 -1.4602  0.4370  1.4644
   69MOL   H31822214   0.116   6.673   1.733 -1.8267  1.3343 -1.0883
   69MOL   H31922215   0.051   6.781   1.853 -2.2898 -2.0241 -1.2892
   69MOL   H32022216   7.429   6.859   1.693 -0.0116 -0.5651 -0.5156
   69MOL   H32122217   7.565   6.782   1.618  1.8459 -0.5108 -0.5670
   69MOL   H32222218   7.561   6.801   1.793 -1.1857 -1.5388 -0.5839
   70MOL     C122219   6.884   3.275   6.392  0.3246  0.2756  0.8460
   70MOL     O222220   6.971   3.180   6.453 -0.4153 -0.3512  0.3626
   70MOL     C322221   7.107   3.217   6.439 -0.1196 -0.2801 -0.3906
   70MOL     C422222   7.194   3.119   6.515  0.2079 -0.1089  0.8741
   70MOL     C522223   7.340   3.154   6.512  0.5525  0.6278 -0.5285
   70MOL     C622224   6.740   3.222   6.384  0.0431 -0.0790  0.1596
   70MOL     H722225   6.926   3.301   6.295 -1.4820 -1.3371 -0.3902
   70MOL     H822226   7.134   3.217   6.334  3.2930  0.6450  0.4183
   70MOL     H922227   7.118   3.315   6.486 -0.3174 -0.4265 -0.0318
   70MOL    H1022228   7.188   3.019   6.472  1.6288  0.1007  0.1724
   70MOL    H1122229   7.163   3.119   6.619  0.7815  0.4292  1.0479
   70MOL    H1222230   7.364   3.155   6.406  0.9353 -0.1518 -0.4502
   70MOL    H1322231   7.392   3.081   6.575  0.0044  1.1766  0.5904
   70MOL    H1422232   7.352   3.252   6.558  2.0357 -0.7162  2.0523
   70MOL    H1522233   6.678   3.270   6.308 -1.7281 -1.7151  0.5176
   70MOL    H1622234   6.751   3.126   6.335 -0.9707 -0.5481  0.8204
   70MOL    H1722235   6.894   3.366   6.451 -0.1081  0.5710  0.4673
   70MOL    C1822236   6.678   3.197   6.522  0.3916  0.0311 -0.1865
   70MOL    O1922237   6.555   3.266   6.507  0.4483 -0.8535  0.5548
   70MOL    C2022238   6.527   3.318   6.637 -0.4701 -0.0559 -0.0499
   70MOL    C2122239   6.376   3.350   6.643 -0.3595 -0.0025 -0.1998
   70MOL    C2222240   6.331   3.443   6.529 -0.1767  0.0958  0.3052
   70MOL    C2322241   6.640   3.043   6.551 -0.6016  0.4260 -0.1459
   70MOL    H2422242   6.735   3.248   6.599  0.6358 -0.1898 -0.2214
   70MOL    H2522243   6.554   3.261   6.726 -1.5837 -0.0579  0.2986
   70MOL    H2622244   6.583   3.411   6.647 -0.4763  0.0491 -0.9085
   70MOL    H2722245   6.355   3.401   6.738  0.7354 -1.1873  0.6804
   70MOL    H2822246   6.317   3.259   6.647  0.0679 -0.4031 -2.4546
   70MOL    H2922247   6.373   3.541   6.553 -0.0653 -0.2767  1.6526
   70MOL    H3022248   6.224   3.453   6.516 -0.4669  0.6787  2.9263
   70MOL    H3122249   6.377   3.415   6.434  1.4751  1.4854  0.6655
   70MOL    H3222250   6.543   3.036   6.599 -1.1778 -0.5689 -1.4155
   70MOL    H3322251   6.619   2.999   6.454  3.9855  2.2851 -2.1649
   70MOL    C3422252   6.754   2.982   6.638  0.2981 -0.0332  0.9584
   70MOL    O3522253   6.745   3.058   6.754 -0.1763 -0.0281  0.8601
   70MOL    C3622254   6.865   3.079   6.824  0.6672  0.4850  0.0442
   70MOL    C3722255   6.828   3.145   6.954 -0.1561  0.6315  0.0495
   70MOL    C3822256   6.757   3.287   6.950 -0.1282 -0.0586 -0.4816
   70MOL    C3922257   6.736   2.829   6.657  0.4153 -0.0965 -0.2469
   70MOL    H4022258   6.846   3.014   6.589 -0.9131  0.3876 -1.0812
   70MOL    H4122259   6.916   2.989   6.859  0.9348  0.3206 -0.7583
   70MOL    H4222260   6.932   3.143   6.768 -0.2799  0.6635 -0.9116
   70MOL    H4322261   6.918   3.148   7.016  0.4398  1.0706 -0.8173
   70MOL    H4422262   6.757   3.079   7.003  0.1095 -0.1778 -0.6420
   70MOL    H4522263   6.731   3.324   7.049 -2.2996  3.2676 -2.2225
   70MOL    H4622264   6.667   3.280   6.889  0.8887 -2.2306 -1.8050
   70MOL    H4722265   6.830   3.358   6.914 -1.3671  1.0784 -0.7724
   70MOL    H4822266   6.785   2.801   6.750 -0.7034 -0.3228  0.2862
   70MOL    H4922267   6.631   2.814   6.681  0.6779  0.2779  1.1536
   70MOL    C5022268   6.794   2.753   6.532 -0.4203  0.3402 -0.4966
   70MOL    O5122269   6.928   2.708   6.559  0.3717  0.1669  0.0873
   70MOL    C5222270   7.039   2.790   6.526  0.1088  0.1065  0.1066
   70MOL    C5322271   7.167   2.713   6.558  0.0663  0.4689  0.1288
   70MOL    C5422272   7.186   2.656   6.698  0.8956  0.1416  0.3964
   70MOL    C5522273   6.716   2.628   6.485  0.1444 -0.2770  0.0970
   70MOL    H5622274   6.799   2.823   6.449  2.0060 -0.5386 -1.1246
   70MOL    H5722275   7.043   2.829   6.425  1.7246  0.2691  0.2182
   70MOL    H5822276   7.020   2.871   6.596  0.0125 -1.5989  2.1110
   70MOL    H5922277   7.253   2.777   6.538 -0.4522  1.5468  1.2948
   70MOL    H6022278   7.165   2.629   6.487 -0.0807  1.3556 -0.9234
   70MOL    H6122279   7.278   2.599   6.706  1.9679  1.5875 -1.1547
   70MOL    H6222280   7.106   2.594   6.738  0.7060 -0.8751 -1.5012
   70MOL    H6322281   7.192   2.743   6.764 -0.5864  0.0550  0.6757
   70MOL    H6422282   6.792   2.580   6.424  0.5081  1.2442 -0.6694
   70MOL    H6522283   6.709   2.551   6.562 -2.2901  0.9719  1.1782
   70MOL    C6622284   6.576   2.651   6.424 -0.4241 -0.5163 -1.0678
   70MOL    O6722285   6.587   2.705   6.296 -0.1820  0.1790 -0.2001
   70MOL    C6822286   6.497   2.808   6.277  0.1580  0.7091 -0.1850
   70MOL    C6922287   6.469   2.817   6.128 -0.0951  0.2355 -0.2606
   70MOL    C7022288   6.350   2.910   6.087  0.0933 -0.3260 -0.4463
   70MOL    C7122289   6.493   2.524   6.411  0.6275 -1.0795  0.3047
   70MOL    H7222290   6.532   2.727   6.488  0.3564 -1.7583  0.9846
   70MOL    H7322291   6.405   2.771   6.322 -0.0635  1.2297 -0.2132
   70MOL    H7422292   6.529   2.904   6.316  0.8259  0.3346  0.2148
   70MOL    H7522293   6.446   2.719   6.088  0.9296  0.2448 -0.8868
   70MOL    H7622294   6.559   2.849   6.076 -0.4957  1.4806 -0.2092
   70MOL    H7722295   6.359   3.007   6.135 -0.3833 -0.0935 -0.8185
   70MOL    H7822296   6.263   2.868   6.137 -0.0006  1.0995  0.6176
   70MOL    H7922297   6.336   2.911   5.979  0.7981 -0.4967 -0.5378
   70MOL    H8022298   6.417   2.536   6.333  0.5196 -1.8695  0.2783
   70MOL    H8122299   6.561   2.449   6.371  1.6731  0.3608 -0.6604
   70MOL    C8222300   6.423   2.476   6.544 -0.6929 -0.2502 -0.5313
   70MOL    O8322301   6.292   2.535   6.562 -0.1046  0.0831  0.5471
   70MOL    C8422302   6.287   2.655   6.637 -0.1360 -1.2750  0.4460
   70MOL    C8522303   6.140   2.683   6.678  0.1718  0.3009  0.5640
   70MOL    C8622304   6.125   2.803   6.766  0.5850 -0.4772 -0.0440
   70MOL    C8722305   6.415   2.324   6.552  0.6404 -0.8600 -0.7843
   70MOL    H8822306   6.487   2.501   6.629 -3.3728  0.4061  1.3686
   70MOL    H8922307   6.359   2.657   6.719  0.3367  0.0341  0.0233
   70MOL    H9022308   6.326   2.742   6.584  0.1801 -1.1963  0.8073
   70MOL    H9122309   6.088   2.603   6.731  0.3887 -1.8638 -2.4039
   70MOL    H9222310   6.080   2.683   6.586  0.7236 -1.1736  0.2000
   70MOL    H9322311   6.169   2.892   6.721 -0.5767  0.0638 -0.1323
   70MOL    H9422312   6.180   2.789   6.859  0.6847  2.1704  0.3119
   70MOL    H9522313   6.024   2.840   6.785  0.7707  1.4634 -2.5406
   70MOL    H9622314   6.314   2.285   6.544  0.7530 -0.9412 -1.9148
   70MOL    H9722315   6.471   2.286   6.466  0.1490 -2.9736 -0.1894
   70MOL    C9822316   6.466   2.261   6.683 -0.0799  0.2800  0.0780
   70MOL    O9922317   6.363   2.290   6.775  0.0866  0.3827 -0.2093
   70MOL   C10022318   6.390   2.286   6.915  0.4477  0.3046 -0.0015
   70MOL   C10122319   6.263   2.275   6.992  0.1105  0.0205 -0.8211
   70MOL   C10222320   6.188   2.405   6.986  0.3060 -0.3896  0.5124
   70MOL   C10322321   6.489   2.110   6.666 -1.0025  0.0284 -0.5904
   70MOL   H10422322   6.552   2.315   6.723 -2.1891  3.4155  0.5631
   70MOL   H10522323   6.444   2.198   6.950 -0.1247 -0.6620 -1.4774
   70MOL   H10622324   6.453   2.364   6.956  2.4657 -0.6566 -1.2119
   70MOL   H10722325   6.289   2.254   7.095  1.5431  2.2848 -0.6846
   70MOL   H10822326   6.202   2.188   6.965 -0.2406  0.0854 -0.2310
   70MOL   H10922327   6.255   2.489   7.007 -2.1530  1.5056  0.9467
   70MOL   H11022328   6.108   2.397   7.058  0.9648 -0.0252  1.2935
   70MOL   H11122329   6.163   2.418   6.881  1.1748 -1.4525  0.1568
   70MOL   H11222330   6.529   2.089   6.765 -1.2560 -0.3077 -0.5555
   70MOL   H11322331   6.400   2.050   6.646 -1.2115 -0.0429  0.4880
   70MOL   C11422332   6.608   2.079   6.568  0.6240 -0.7638 -0.4801
   70MOL   O11522333   6.719   2.169   6.586  0.1999 -0.1725  0.0398
   70MOL   C11622334   6.766   2.236   6.474  0.4722  0.5961 -0.5306
   70MOL   C11722335   6.905   2.301   6.494  0.4041 -0.1025  0.6230
   70MOL   C11822336   7.017   2.212   6.550  0.5557 -0.1519  0.3499
   70MOL   C11922337   6.667   1.936   6.595 -0.0108  0.6186 -0.1513
   70MOL   H12022338   6.575   2.086   6.464 -1.5102  4.1457  0.3693
   70MOL   H12122339   6.779   2.171   6.388  1.0624  0.5855 -0.4368
   70MOL   H12222340   6.689   2.307   6.445 -0.6105  0.6163  2.2859
   70MOL   H12322341   6.890   2.382   6.566  1.6198 -0.8750  1.7454
   70MOL   H12422342   6.930   2.357   6.404 -0.9254  1.6417  1.3112
   70MOL   H12522343   7.048   2.135   6.479 -2.1386  0.4134 -1.5316
   70MOL   H12622344   6.995   2.148   6.634  2.5017 -1.2593  0.0426
   70MOL   H12722345   7.100   2.268   6.592  0.0050 -1.3713  3.1360
   70MOL   H12822346   6.759   1.927   6.537 -0.4353  2.7921 -1.2080
   70MOL   H12922347   6.704   1.914   6.695  3.4804  0.4244 -1.4322
   70MOL   C13022348   6.570   1.809   6.563 -0.4893  0.1876 -0.0168
   70MOL   O13122349   6.494   1.801   6.677  0.0574  0.0879  0.4679
   70MOL   C13222350   6.468   1.673   6.733 -0.2369 -0.7898  0.4438
   70MOL   C13322351   6.390   1.701   6.862 -0.3842 -0.4085 -0.3958
   70MOL   C13422352   6.476   1.770   6.969 -0.2980 -0.4702  0.4022
   70MOL   C13522353   6.477   1.829   6.443  0.0253  0.0220 -0.3517
   70MOL   H13622354   6.631   1.720   6.550  0.3020  0.5512  1.0593
   70MOL   H13722355   6.398   1.616   6.672 -2.1351 -0.0979  1.9094
   70MOL   H13822356   6.567   1.627   6.735  0.3134  0.2582 -1.9381
   70MOL   H13922357   6.351   1.607   6.902  0.0880 -0.6607 -0.5184
   70MOL   H14022358   6.301   1.759   6.837  0.1042  0.6006  0.1878
   70MOL   H14122359   6.513   1.867   6.935 -1.3443  0.1306  0.9768
   70MOL   H14222360   6.556   1.705   7.003  0.3362 -0.6586 -1.3794
   70MOL   H14322361   6.420   1.787   7.061  0.6884 -2.8795  1.4691
   70MOL   H14422362   6.413   1.741   6.443  0.3453 -0.2517  2.0911
   70MOL   H14522363   6.419   1.921   6.447 -0.8709 -0.5098 -0.8695
   70MOL   C14622364   6.566   1.834   6.314 -0.6534 -0.0598 -0.7112
   70MOL   O14722365   6.598   1.700   6.270  0.5385 -0.1504 -0.0106
   70MOL   C14822366   6.723   1.680   6.214 -0.1403  0.4256  0.3997
   70MOL   C14922367   6.739   1.531   6.220  0.2945  0.1970  0.3172
   70MOL   C15022368   6.864   1.481   6.147  0.4652  0.1211  0.2973
   70MOL   C15122369   6.508   1.913   6.201 -0.3424  0.4570 -0.5983
   70MOL   H15222370   6.657   1.886   6.345 -0.4141 -1.1894  0.5319
   70MOL   H15322371   6.719   1.704   6.108 -4.2557  0.6683  0.5380
   70MOL   H15422372   6.794   1.739   6.271 -0.9822  1.7626  0.0982
   70MOL   H15522373   6.655   1.474   6.181  0.0588 -0.8100  2.2380
   70MOL   H15622374   6.741   1.502   6.325  0.1121 -1.0972 -0.0218
   70MOL   H15722375   6.850   1.472   6.039  2.7681  0.8734 -0.0936
   70MOL   H15822376   6.870   1.373   6.163  1.5427 -0.1446 -1.7310
   70MOL   H15922377   6.963   1.523   6.168  0.2888  0.7017 -0.0178
   70MOL   H16022378   6.494   2.014   6.237 -0.1698  0.7974 -1.4835
   70MOL   H16122379   6.585   1.899   6.124 -0.3940 -0.5003 -0.4881
   70MOL   C16222380   6.371   1.865   6.145  0.5805 -0.0824  0.0222
   70MOL   O16322381   6.269   1.922   6.231  0.3806  0.4681 -0.2338
   70MOL   C16422382   6.159   1.834   6.244  0.3214 -0.1586 -0.5167
   70MOL   C16522383   6.068   1.890   6.350  0.0117  0.1115 -0.6274
   70MOL   C16622384   6.109   1.881   6.493 -0.0376  0.2951  0.3082
   70MOL   C16722385   6.352   1.907   6.000  0.8328 -0.2057 -0.2349
   70MOL   H16822386   6.382   1.757   6.146 -0.1023 -0.2058 -2.1922
   70MOL   H16922387   6.103   1.835   6.151  0.6198 -0.5276 -0.7048
   70MOL   H17022388   6.188   1.730   6.260  2.9167  0.1584 -2.6794
   70MOL   H17122389   5.975   1.833   6.351 -0.4764  0.9125 -0.5155
   70MOL   H17222390   6.051   1.996   6.333 -4.3187 -0.4707 -0.4893
   70MOL   H17322391   6.117   1.780   6.535  2.6982 -0.0023 -0.7801
   70MOL   H17422392   6.042   1.938   6.557 -1.7859 -0.3031 -0.9788
   70MOL   H17522393   6.209   1.924   6.504 -0.6119  1.2268  2.1731
   70MOL   H17622394   6.251   1.898   5.960  0.6457 -0.7876  0.3530
   70MOL   H17722395   6.370   2.015   5.995  0.5637 -0.1852 -0.8275
   70MOL   C17822396   6.447   1.841   5.897 -0.0522 -0.0490  0.3230
   70MOL   O17922397   6.401   1.704   5.902  0.2868  0.4259  0.5434
   70MOL   C18022398   6.505   1.613   5.854 -0.8434 -0.0100  0.1105
   70MOL   C18122399   6.456   1.485   5.909  0.3626  0.6700  0.4616
   70MOL   C18222400   6.323   1.455   5.852  0.1483  0.1815  0.2518
   70MOL   C18322401   6.447   1.910   5.762  0.2883 -0.0966 -0.2225
   70MOL   H18422402   6.549   1.836   5.936 -0.6706 -0.4116  1.9224
   70MOL   H18522403   6.518   1.611   5.746 -2.0008  0.5869 -0.0483
   70MOL   H18622404   6.607   1.627   5.890 -0.7647 -0.2314 -0.0260
   70MOL   H18722405   6.453   1.477   6.018  1.0433 -2.1476  0.3068
   70MOL   H18822406   6.509   1.399   5.869 -1.0061  0.1859 -0.3341
   70MOL   H18922407   6.329   1.450   5.743  1.3969  1.6311  0.2360
   70MOL   H19022408   6.250   1.529   5.883  0.7996  0.2465  1.6584
   70MOL   H19122409   6.297   1.352   5.876 -3.5169  1.1622  0.7584
   70MOL   H19222410   6.479   1.847   5.678  0.0081  0.0992 -0.4747
   70MOL   H19322411   6.350   1.948   5.732  2.0062  2.6114 -2.6339
   70MOL   C19422412   6.547   2.023   5.749 -0.7380  0.1580  0.1460
   70MOL   O19522413   6.681   1.968   5.758 -0.2628  0.6082  0.4427
   70MOL   C19622414   6.766   2.016   5.859  0.2361 -0.0127  0.2042
   70MOL   C19722415   6.891   1.924   5.867  0.2149 -0.2507  0.5137
   70MOL   C19822416   6.994   1.950   5.976  0.2619  0.2914 -0.0120
   70MOL   C19922417   6.539   2.104   5.623 -0.1690  0.6226  0.0283
   70MOL   H20022418   6.531   2.096   5.829 -0.1402 -0.6426  1.0051
   70MOL   H20122419   6.795   2.117   5.829 -0.0264 -0.5386 -1.9174
   70MOL   H20222420   6.721   2.018   5.958  0.7156 -1.4730  0.4577
   70MOL   H20322421   6.953   1.929   5.777 -0.8259  3.0066 -0.0998
   70MOL   H20422422   6.860   1.821   5.881 -0.3957 -0.4997 -2.4224
   70MOL   H20522423   7.040   2.048   5.973  2.8695 -0.9405 -2.1093
   70MOL   H20622424   7.074   1.876   5.980  0.3463  0.2919 -1.3768
   70MOL   H20722425   6.955   1.927   6.075  1.0381 -0.2272  0.1785
   70MOL   H20822426   6.545   2.035   5.539  0.6986 -0.2986  0.8200
   70MOL   H20922427   6.438   2.146   5.623  0.0780  1.2252  0.2327
   70MOL   C21022428   6.616   2.237   5.614 -0.4236  0.4515 -0.6923
   70MOL   O21122429   6.630   2.303   5.745  0.0663 -1.0718  0.6109
   70MOL   C21222430   6.676   2.438   5.732  0.3526  0.4301  0.1319
   70MOL   C21322431   6.622   2.525   5.843 -1.4543 -0.7436 -0.5159
   70MOL   C21422432   6.648   2.467   5.989  0.4202 -0.2900  0.5826
   70MOL   C21522433   6.748   2.228   5.533  0.3342  0.4161  0.3790
   70MOL   H21622434   6.557   2.304   5.551  1.2012  1.4772 -1.1532
   70MOL   H21722435   6.785   2.435   5.724  0.2259 -0.8877 -1.3935
   70MOL   H21822436   6.631   2.483   5.644  1.6582  1.1757 -0.1664
   70MOL   H21922437   6.513   2.530   5.839 -1.3111  1.7055 -1.7793
   70MOL   H22022438   6.655   2.627   5.825  0.9288 -1.0227  1.9283
   70MOL   H22122439   6.579   2.386   6.013 -3.0092  1.1833 -3.5667
   70MOL   H22222440   6.633   2.544   6.065  0.5580  1.7124 -1.3732
   70MOL   H22322441   6.753   2.437   5.988  0.7306  0.7819 -0.8987
   70MOL   H22422442   6.801   2.323   5.535  0.3998  0.4166 -0.8358
   70MOL   H22522443   6.808   2.157   5.590 -0.7942  0.3408  1.4736
   70MOL   C22622444   6.741   2.171   5.389 -0.4605  0.3639 -0.2662
   70MOL   O22722445   6.637   2.241   5.329 -0.1929  0.1625  0.1790
   70MOL   C22822446   6.545   2.173   5.247 -0.1020  0.4311  0.2223
   70MOL   C22922447   6.449   2.279   5.185 -1.1241 -0.1681 -0.6335
   70MOL   C23022448   6.515   2.337   5.060  0.2346  0.9351 -0.8047
   70MOL   C23122449   6.866   2.171   5.307 -0.3211  0.3486  0.0067
   70MOL   H23222450   6.706   2.068   5.398  2.3639 -0.4120  3.0174
   70MOL   H23322451   6.589   2.099   5.180 -2.0228 -0.6782  0.1587
   70MOL   H23422452   6.484   2.114   5.314 -0.0058  0.4445  0.3197
   70MOL   H23522453   6.430   2.362   5.254  1.2787 -0.7356  0.7911
   70MOL   H23622454   6.350   2.236   5.170 -1.7580  1.6190 -1.7423
   70MOL   H23722455   6.524   2.264   4.979  0.5288  0.9166 -0.7573
   70MOL   H23822456   6.612   2.374   5.093  0.8736 -1.6730  0.3752
   70MOL   H23922457   6.465   2.425   5.021  0.6947  2.0188  1.0045
   70MOL   H24022458   6.845   2.154   5.201  0.0255  0.4256 -0.0786
   70MOL   H24122459   6.905   2.272   5.321 -0.4679  0.1770  1.6708
   70MOL   C24222460   6.972   2.066   5.341  0.1919  0.4853  0.7756
   70MOL   O24322461   6.907   1.941   5.334 -0.4119 -0.1797 -0.3178
   70MOL   C24422462   6.903   1.875   5.454 -0.0581  0.1363 -0.3516
   70MOL   C24522463   6.870   1.729   5.423 -0.0542 -0.2326 -0.0599
   70MOL   C24622464   6.719   1.707   5.374 -0.7032 -0.2189  0.6417
   70MOL   C24722465   7.079   2.067   5.243 -0.4219 -0.4362  0.2722
   70MOL   H24822466   7.006   2.098   5.440 -1.2856  1.3135  1.0251
   70MOL   H24922467   6.994   1.876   5.514 -0.2898 -0.6861  0.0167
   70MOL   H25022468   6.829   1.931   5.511 -2.0281 -1.6458 -1.0954
   70MOL   H25122469   6.887   1.687   5.522  0.7914  1.1691  0.4061
   70MOL   H25222470   6.944   1.686   5.355  0.2123  0.8965 -0.4886
   70MOL   H25322471   6.654   1.738   5.456  0.6756 -0.8187  1.9641
   70MOL   H25422472   6.705   1.601   5.351 -1.2711  0.2077 -1.0992
   70MOL   H25522473   6.683   1.768   5.291  0.9042  2.1038  1.6211
   70MOL   H25622474   7.035   2.030   5.151 -1.3031  0.2373  0.4259
   70MOL   H25722475   7.102   2.173   5.229 -3.5091  0.1943 -0.2385
   70MOL   C25822476   7.201   1.981   5.276 -0.6566 -0.2808  0.0749
   70MOL   O25922477   7.277   1.987   5.155 -0.7422 -0.8095 -0.7454
   70MOL   C26022478   7.254   1.879   5.077  0.2217  0.8384  0.3155
   70MOL   C26122479   7.360   1.862   4.969 -0.4281  0.1924 -0.3401
   70MOL   C26222480   7.409   1.993   4.903 -0.0838 -0.4434 -0.4873
   70MOL   C26322481   7.294   2.034   5.399 -0.4013 -0.0620  0.8352
   70MOL   H26422482   7.166   1.881   5.303 -1.5644  0.3306  1.1806
   70MOL   H26522483   7.255   1.786   5.134 -0.8004  0.8627  0.3673
   70MOL   H26622484   7.154   1.881   5.034 -0.1166 -0.1075  1.0292
   70MOL   H26722485   7.331   1.778   4.906 -0.1536 -0.0863 -0.0967
   70MOL   H26822486   7.443   1.826   5.029 -0.2540 -0.9245 -1.2504
   70MOL   H26922487   7.449   2.068   4.972  0.6925 -0.4862 -0.8929
   70MOL   H27022488   7.325   2.043   4.857  0.2795 -1.2074 -2.0165
   70MOL   H27122489   7.488   1.967   4.833  0.3465  0.7604 -0.4505
   70MOL   H27222490   7.345   2.126   5.369 -0.2162 -1.3271 -2.9863
   70MOL   H27322491   7.231   2.062   5.483 -0.7941  2.4055 -0.2454
   70MOL   C27422492   7.390   1.924   5.440  0.4393  0.1688 -0.4414
   70MOL   O27522493   7.516   1.970   5.455  0.6691  0.6699  0.5324
   70MOL   C27622494   7.602   1.967   5.337  0.9998 -0.2334 -0.0568
   70MOL   C27722495   7.737   2.038   5.360 -0.5037  0.2796  0.2517
   70MOL   C27822496   7.715   2.188   5.394 -0.2050 -0.0154 -0.4228
   70MOL   C27922497   7.346   1.852   5.569  0.3472 -0.3053 -0.3887
   70MOL   H28022498   7.392   1.843   5.368 -2.2947  1.3818 -1.9715
   70MOL   H28122499   7.622   1.862   5.311  2.5549  0.1069 -0.2946
   70MOL   H28222500   7.558   2.009   5.246  0.7205 -1.2114 -0.3876
   70MOL   H28322501   7.778   2.029   5.259 -0.7387  3.4831 -0.1803
   70MOL   H28422502   7.801   1.981   5.427 -0.1585 -0.8764 -1.0214
   70MOL   H28522503   7.660   2.205   5.486 -0.3729 -1.5322 -0.2247
   70MOL   H28622504   7.656   2.224   5.310 -1.8807 -2.9913 -0.6082
   70MOL   H28722505   7.806   2.248   5.391 -0.3600  0.2225 -0.2650
   70MOL   H28822506   7.389   1.903   5.655  1.4230  0.6270 -1.4622
   70MOL   H28922507   7.238   1.859   5.578  0.1223 -1.0787 -2.2465
   70MOL   C29022508   7.394   1.709   5.583 -0.3713 -0.0804  0.7414
   70MOL   O29122509   7.400   1.675   5.717 -0.1897  0.8071 -0.6077
   70MOL   C29222510   7.284   1.657   5.784  0.2371 -0.1813 -0.6568
   70MOL   C29322511   7.300   1.652   5.934 -0.1973 -0.0111  0.0035
   70MOL   C29422512   7.389   1.534   5.993  0.4351  0.2903 -0.3481
   70MOL   C29522513   7.324   1.601   5.497  0.1982 -0.6247  0.9692
   70MOL   H29622514   7.498   1.715   5.550 -0.1400 -0.7568  1.3283
   70MOL   H29722515   7.223   1.745   5.761  0.6761  0.2096 -0.3333
   70MOL   H29822516   7.220   1.573   5.756 -1.0739  0.9797 -1.2321
   70MOL   H29922517   7.201   1.637   5.978 -0.7713  1.4314 -0.7522
   70MOL   H30022518   7.326   1.752   5.970  4.5484 -1.9979  2.4507
   70MOL   H30122519   7.411   1.542   6.100 -1.9788 -1.5270  0.3350
   70MOL   H30222520   7.484   1.546   5.943  1.0889  1.3868  1.1036
   70MOL   H30322521   7.347   1.437   5.966 -0.3432  1.0537 -1.9194
   70MOL   H30422522   7.234   1.568   5.549 -0.1145 -1.4710 -0.0869
   70MOL   H30522523   7.289   1.627   5.397 -2.4660 -2.5626  1.3354
   70MOL   C30622524   7.411   1.475   5.482 -0.1168 -0.0542 -0.3599
   70MOL   O30722525   7.323   1.361   5.478  0.3152  0.3943 -0.3939
   70MOL   C30822526   7.376   1.250   5.542 -0.0879 -0.4210 -0.1392
   70MOL   C30922527   7.288   1.126   5.520  0.5663 -0.2350  0.2639
   70MOL   C31022528   7.366   1.009   5.594 -0.2226  0.2918  0.0453
   70MOL   C31122529   7.494   1.477   5.359 -0.4569 -0.2499 -0.1953
   70MOL   H31222530   7.492   1.464   5.554 -1.2267 -1.5799  0.6863
   70MOL   H31322531   7.478   1.240   5.505 -0.4039  0.8209 -1.3974
   70MOL   H31422532   7.387   1.278   5.647 -1.6289 -0.2344 -0.0155
   70MOL   H31522533   7.288   1.103   5.413 -0.5487  5.0493 -1.0396
   70MOL   H31622534   7.185   1.136   5.551  0.0439 -0.7970 -1.2229
   70MOL   H31722535   7.321   0.910   5.589  4.6653 -2.0821  0.1779
   70MOL   H31822536   7.376   1.024   5.702  0.3666  0.0514  0.0297
   70MOL   H31922537   7.462   0.996   5.544 -0.2641  0.1392  0.0088
   70MOL   H32022538   7.553   1.569   5.350  0.7420 -0.5885  3.2416
   70MOL   H32122539   7.560   1.390   5.365 -1.9062 -2.0013 -6.2651
   70MOL   H32222540   7.423   1.465   5.277 -0.0849 -0.9621 -0.4165
   71MOL     C122541   5.366   6.891   4.845  0.9165 -0.0376 -0.0520
   71MOL     O222542   5.311   6.955   4.725 -0.2569  0.3696  0.6643
   71MOL     C322543   5.411   6.991   4.625 -0.3663  0.0278 -0.4518
   71MOL     C422544   5.366   7.107   4.536  0.4872 -0.5214 -0.7116
   71MOL     C522545   5.482   7.168   4.458 -0.5911  0.0561  0.4252
   71MOL     C622546   5.249   6.826   4.914  0.2819 -1.1806  0.1818
   71MOL     H722547   5.418   6.963   4.908  1.0237 -0.7130  0.6381
   71MOL     H822548   5.512   7.022   4.655 -0.6272  3.2542 -2.7457
   71MOL     H922549   5.424   6.901   4.564  0.5045 -1.6441  2.0947
   71MOL    H1022550   5.316   7.186   4.592  0.9700 -0.4890 -0.3207
   71MOL    H1122551   5.289   7.084   4.463  0.2091  2.0850 -1.2637
   71MOL    H1222552   5.508   7.109   4.370  1.8548  3.1897 -1.0434
   71MOL    H1322553   5.571   7.205   4.508 -0.6164 -0.5514  0.9237
   71MOL    H1422554   5.449   7.263   4.417 -1.0664 -0.6931 -0.9645
   71MOL    H1522555   5.171   6.897   4.940  0.8837  0.2031 -1.6260
   71MOL    H1622556   5.194   6.764   4.842 -2.1489 -0.1629  1.1333
   71MOL    H1722557   5.437   6.814   4.816 -0.1937 -1.6494  1.4098
   71MOL    C1822558   5.299   6.734   5.024  0.1510  0.1836 -0.6672
   71MOL    O1922559   5.355   6.808   5.137 -0.8009 -0.3240  0.1759
   71MOL    C2022560   5.491   6.773   5.152  0.4387 -0.6504 -0.6732
   71MOL    C2122561   5.555   6.856   5.264 -1.2278 -0.3553  0.1867
   71MOL    C2222562   5.559   7.009   5.240 -0.0078 -0.5798  0.1434
   71MOL    C2322563   5.195   6.642   5.086  0.6013 -1.1022 -0.0725
   71MOL    H2422564   5.370   6.666   4.977 -1.8426 -2.8813  0.5336
   71MOL    H2522565   5.500   6.669   5.184 -0.6181 -0.2077  1.1284
   71MOL    H2622566   5.543   6.783   5.057  0.3702  0.2324 -0.6206
   71MOL    H2722567   5.661   6.832   5.267 -0.8651 -0.2667 -5.7847
   71MOL    H2822568   5.510   6.837   5.361  1.1552  0.7990  1.5430
   71MOL    H2922569   5.614   7.023   5.147  0.6302  2.2147  0.8845
   71MOL    H3022570   5.614   7.068   5.314 -3.5007  1.6792  1.0820
   71MOL    H3122571   5.462   7.058   5.234  1.0626  1.4320 -1.5050
   71MOL    H3222572   5.246   6.585   5.163  1.1927 -0.5910 -0.0808
   71MOL    H3322573   5.122   6.699   5.143  1.7573  0.2006  0.1404
   71MOL    C3422574   5.129   6.542   4.981  0.3826  0.1335 -0.4462
   71MOL    O3522575   5.224   6.471   4.897 -0.0704  0.1325  0.4941
   71MOL    C3622576   5.175   6.409   4.782 -0.4773  0.4413 -0.4120
   71MOL    C3722577   5.314   6.374   4.719 -0.4326 -0.1942  1.3128
   71MOL    C3822578   5.359   6.497   4.642 -0.2799 -0.0495  0.3354
   71MOL    C3922579   5.018   6.448   5.040  0.3513 -0.2502  0.5491
   71MOL    H4022580   5.075   6.611   4.916  1.3422 -0.2580 -1.6521
   71MOL    H4122581   5.118   6.322   4.814  0.0397  0.2964  0.1256
   71MOL    H4222582   5.111   6.467   4.716 -0.4597  2.1788  1.0746
   71MOL    H4322583   5.297   6.296   4.645  0.6833  0.3620  0.4757
   71MOL    H4422584   5.396   6.339   4.782  0.4406 -1.2378 -0.3653
   71MOL    H4522585   5.288   6.530   4.566  0.3993  1.0066  0.1500
   71MOL    H4622586   5.458   6.489   4.597 -1.2847  0.9024 -2.1243
   71MOL    H4722587   5.375   6.573   4.718  0.8210 -0.2738  0.3393
   71MOL    H4822588   4.976   6.380   4.966  0.6952  1.2278 -1.0338
   71MOL    H4922589   5.063   6.386   5.118  0.7687 -0.3198  0.2527
   71MOL    C5022590   4.895   6.517   5.098 -0.0470 -0.3972  0.3006
   71MOL    O5122591   4.840   6.598   4.995  0.5100  0.0497 -0.9064
   71MOL    C5222592   4.764   6.707   5.050  0.1545  0.2643 -0.3719
   71MOL    C5322593   4.794   6.827   4.964  0.7329  0.4922 -0.2206
   71MOL    C5422594   4.716   6.951   5.009  0.2191 -1.0981  0.7763
   71MOL    C5522595   4.776   6.423   5.132  0.2854  0.3225 -0.7074
   71MOL    H5622596   4.925   6.571   5.188 -1.9941  0.5983  0.3879
   71MOL    H5722597   4.657   6.684   5.053 -0.1064  1.1745 -2.4717
   71MOL    H5822598   4.801   6.736   5.149  1.1959 -0.6196 -0.4841
   71MOL    H5922599   4.759   6.812   4.861  1.5488 -1.8436 -0.1675
   71MOL    H6022600   4.900   6.853   4.959  0.7295  0.4128 -0.8398
   71MOL    H6122601   4.743   6.985   5.109  2.6594  2.2651 -0.9213
   71MOL    H6222602   4.610   6.927   5.009  0.1257 -0.6838  0.8573
   71MOL    H6322603   4.749   7.037   4.949  0.6650 -1.8334 -0.0513
   71MOL    H6422604   4.684   6.476   5.160 -0.5388 -1.4032 -0.0524
   71MOL    H6522605   4.750   6.363   5.044 -1.4714  1.1050 -0.7391
   71MOL    C6622606   4.818   6.322   5.232  0.9678  0.7778  0.0997
   71MOL    O6722607   4.862   6.396   5.345  0.0762  0.3838  0.4715
   71MOL    C6822608   4.971   6.337   5.415  0.4851  0.5925 -0.4190
   71MOL    C6922609   5.023   6.429   5.527  0.4183  0.3684 -0.2085
   71MOL    C7022610   4.919   6.485   5.619 -0.1265  0.0080 -0.5083
   71MOL    C7122611   4.688   6.246   5.272  0.3571  0.0047 -0.0717
   71MOL    H7222612   4.888   6.253   5.186  1.1760  2.0134 -1.4623
   71MOL    H7322613   4.946   6.239   5.456  2.2311 -0.1183 -1.0261
   71MOL    H7422614   5.046   6.303   5.345  1.6871 -0.7306  1.4590
   71MOL    H7522615   5.088   6.504   5.483 -0.5795  0.9982 -0.6368
   71MOL    H7622616   5.103   6.371   5.573  0.4418  1.8785  1.6823
   71MOL    H7722617   4.966   6.549   5.694 -0.0828  0.1373 -0.6471
   71MOL    H7822618   4.869   6.405   5.674  1.6349  0.0122  1.1634
   71MOL    H7922619   4.835   6.536   5.571 -0.8253  0.1064  0.7920
   71MOL    H8022620   4.731   6.197   5.359  1.8564 -0.4626 -1.0709
   71MOL    H8122621   4.615   6.316   5.314  1.2074  0.0971  1.2975
   71MOL    C8222622   4.623   6.147   5.170 -0.0517 -0.6056  0.4769
   71MOL    O8322623   4.732   6.060   5.132 -0.5728  0.0914 -0.2443
   71MOL    C8422624   4.708   5.977   5.023  0.0430 -0.0793  1.0204
   71MOL    C8522625   4.836   5.920   4.960 -0.3411 -0.2562  0.3273
   71MOL    C8622626   4.931   5.845   5.055 -0.2009  0.1512 -0.3776
   71MOL    C8722627   4.512   6.061   5.236 -0.7777  0.3591  0.0664
   71MOL    H8822628   4.587   6.206   5.086 -1.3012 -0.5909  1.0131
   71MOL    H8922629   4.629   5.904   5.039 -0.9026  0.8208  0.5151
   71MOL    H9022630   4.669   6.037   4.941 -1.0171 -1.9156  0.1385
   71MOL    H9122631   4.886   6.006   4.917  1.3977 -1.7252 -0.6602
   71MOL    H9222632   4.803   5.863   4.873  1.0899 -0.1063 -0.3250
   71MOL    H9322633   5.010   5.787   5.008 -1.4089  0.0318 -2.3498
   71MOL    H9422634   4.879   5.778   5.123 -0.2286  1.2594  0.7048
   71MOL    H9522635   4.974   5.916   5.125  0.8797  3.6010 -4.3827
   71MOL    H9622636   4.486   5.989   5.159 -0.7442 -1.5647  1.8356
   71MOL    H9722637   4.558   6.003   5.315 -0.6542 -0.0453 -0.2979
   71MOL    C9822638   4.392   6.139   5.288 -0.1029 -0.1782 -0.3490
   71MOL    O9922639   4.342   6.212   5.175 -0.4410 -0.5451 -0.2965
   71MOL   C10022640   4.247   6.307   5.216 -0.1306 -0.0139  0.2531
   71MOL   C10122641   4.238   6.413   5.112  0.8296 -0.1156 -0.6682
   71MOL   C10222642   4.372   6.473   5.078  0.1259  0.1640  0.8283
   71MOL   C10322643   4.286   6.050   5.351  0.5479 -0.1669 -0.2021
   71MOL   H10422644   4.422   6.201   5.372  1.4819  1.9549 -2.4093
   71MOL   H10522645   4.152   6.258   5.235  0.2846 -0.5316  1.0501
   71MOL   H10622646   4.275   6.347   5.313  3.2273 -1.5374  0.0047
   71MOL   H10722647   4.167   6.485   5.152  1.0784  0.5720 -1.4427
   71MOL   H10822648   4.195   6.371   5.022 -0.5308 -0.1091 -0.0246
   71MOL   H10922649   4.422   6.415   5.002 -0.0337 -0.1912  0.9955
   71MOL   H11022650   4.443   6.478   5.161  0.4571 -0.0756  0.5558
   71MOL   H11122651   4.352   6.576   5.046  1.7948  1.3146  3.2731
   71MOL   H11222652   4.195   6.109   5.362  0.6605  0.3349 -1.8126
   71MOL   H11322653   4.262   5.972   5.280  1.5935 -0.4719 -0.2376
   71MOL   C11422654   4.316   5.988   5.489  0.0592 -0.2097 -0.3410
   71MOL   O11522655   4.319   6.095   5.590 -0.2824 -0.4063  0.4071
   71MOL   C11622656   4.446   6.096   5.658  0.8601  0.8751 -0.0770
   71MOL   C11722657   4.437   6.205   5.766 -0.6127 -0.1003  0.6024
   71MOL   C11822658   4.312   6.197   5.862 -0.2734 -0.2932 -0.5388
   71MOL   C11922659   4.209   5.886   5.527 -0.0916  0.3611 -0.1940
   71MOL   H12022660   4.410   5.932   5.481 -0.0833 -0.5410  0.2835
   71MOL   H12122661   4.471   6.001   5.705  0.3592  0.7931  0.0200
   71MOL   H12222662   4.531   6.127   5.597  1.0275  1.1084  0.2763
   71MOL   H12322663   4.431   6.302   5.716 -1.7814 -0.8159 -0.6729
   71MOL   H12422664   4.531   6.200   5.821 -0.0204  0.3230 -0.3468
   71MOL   H12522665   4.247   6.281   5.838 -0.5883 -0.2962  0.3016
   71MOL   H12622666   4.332   6.203   5.969  1.4626  0.5651 -0.8915
   71MOL   H12722667   4.251   6.111   5.833 -0.6784 -0.9371  2.1245
   71MOL   H12822668   4.111   5.934   5.526  1.0209  2.6927 -0.5439
   71MOL   H12922669   4.196   5.820   5.441  1.7031  1.0060 -0.9744
   71MOL   C13022670   4.232   5.821   5.668  0.2731  0.3538  0.6033
   71MOL   O13122671   4.103   5.766   5.702  0.6479  0.3210 -0.3407
   71MOL   C13222672   4.046   5.826   5.812  0.5366 -0.0676 -0.8717
   71MOL   C13322673   3.905   5.777   5.797  0.8378  0.3095 -0.5116
   71MOL   C13422674   3.815   5.868   5.707 -0.9123  0.3531 -0.0701
   71MOL   C13522675   4.338   5.706   5.669 -0.1572  0.3771 -0.1811
   71MOL   H13622676   4.265   5.887   5.748  0.5832  2.6744 -1.3799
   71MOL   H13722677   4.085   5.793   5.909  0.9004  1.9574 -0.3097
   71MOL   H13822678   4.048   5.934   5.801 -1.2929  0.0508 -0.2766
   71MOL   H13922679   3.864   5.785   5.897 -1.0008 -2.4631 -0.9855
   71MOL   H14022680   3.904   5.671   5.775  0.0144  0.5666 -1.7825
   71MOL   H14122681   3.839   5.974   5.714  1.8932 -0.2532  0.2039
   71MOL   H14222682   3.716   5.861   5.750 -0.2809 -0.3537  1.3185
   71MOL   H14322683   3.816   5.833   5.604  0.4604 -3.2294  1.0621
   71MOL   H14422684   4.303   5.636   5.594 -0.4394  0.9636 -0.6061
   71MOL   H14522685   4.432   5.732   5.619 -0.8807  0.8694 -1.3151
   71MOL   C14622686   4.380   5.640   5.805 -0.2745  0.2846  0.1989
   71MOL   O14722687   4.452   5.523   5.772 -0.2701  0.4717  0.1527
   71MOL   C14822688   4.367   5.409   5.772  1.5424 -0.1011 -0.5360
   71MOL   C14922689   4.466   5.294   5.744  0.0743  0.1607  0.5273
   71MOL   C15022690   4.517   5.229   5.865  0.2681 -0.3821 -0.3562
   71MOL   C15122691   4.478   5.720   5.892 -0.1784  0.5564 -0.2706
   71MOL   H15222692   4.288   5.623   5.862 -1.2217 -0.5379 -1.5364
   71MOL   H15322693   4.313   5.407   5.866  1.7345 -1.3070 -0.4543
   71MOL   H15422694   4.289   5.407   5.695 -0.1876 -0.8089  1.2126
   71MOL   H15522695   4.549   5.325   5.680  0.2281 -1.3981 -0.0380
   71MOL   H15622696   4.410   5.229   5.677 -0.3683  0.0255  1.0230
   71MOL   H15722697   4.578   5.293   5.929 -1.3363  2.1231 -1.2729
   71MOL   H15822698   4.578   5.140   5.846  1.0015 -0.2321  1.2014
   71MOL   H15922699   4.434   5.199   5.929  0.6609  0.4921  0.5860
   71MOL   H16022700   4.577   5.706   5.847  0.1214 -1.8404  1.0647
   71MOL   H16122701   4.455   5.826   5.885 -2.4093 -0.0172 -2.0294
   71MOL   C16222702   4.481   5.700   6.046  0.1390  0.2734  0.7089
   71MOL   O16322703   4.587   5.773   6.107  0.1190 -0.2214 -0.4080
   71MOL   C16422704   4.716   5.736   6.069  0.0976 -0.5156  0.4422
   71MOL   C16522705   4.825   5.782   6.175  0.7771 -0.4203 -0.3338
   71MOL   C16622706   4.969   5.748   6.122  0.2520  0.3160 -0.9130
   71MOL   C16722707   4.347   5.746   6.104  0.5307 -0.5411 -0.2994
   71MOL   H16822708   4.499   5.594   6.062  0.4050  0.3396  0.8419
   71MOL   H16922709   4.727   5.627   6.068 -1.6860 -0.7145  1.3733
   71MOL   H17022710   4.739   5.772   5.969 -1.1796  1.9679  0.9950
   71MOL   H17122711   4.798   5.733   6.268 -2.7208  1.4539 -0.3012
   71MOL   H17222712   4.817   5.890   6.186  1.1207 -0.4217 -0.0501
   71MOL   H17322713   4.969   5.640   6.111  1.8558  0.2064 -0.0268
   71MOL   H17422714   5.034   5.786   6.201 -1.3133 -0.5124  0.8079
   71MOL   H17522715   4.998   5.807   6.035 -1.3826  0.7369 -1.1862
   71MOL   H17622716   4.324   5.847   6.068  0.1567  0.0273  1.4757
   71MOL   H17722717   4.258   5.686   6.087 -0.2080  0.6452 -0.7156
   71MOL   C17822718   4.351   5.787   6.254  0.0140  0.0981 -0.8947
   71MOL   O17922719   4.226   5.824   6.303  0.2858 -0.0895  0.3126
   71MOL   C18022720   4.168   5.946   6.258  0.2018  0.2506 -0.3760
   71MOL   C18122721   4.027   5.952   6.310 -0.3564 -0.2301  0.6199
   71MOL   C18222722   3.942   6.070   6.250 -0.4741 -0.1636 -0.7099
   71MOL   C18322723   4.382   5.667   6.352 -0.4641 -0.4914 -0.0832
   71MOL   H18422724   4.427   5.864   6.268 -0.3911  0.2283  0.6851
   71MOL   H18522725   4.232   6.031   6.278  2.0345 -1.0693 -0.4667
   71MOL   H18622726   4.167   5.949   6.149  1.0689  0.0766 -0.3951
   71MOL   H18722727   4.035   5.962   6.418 -1.5648 -1.7210  0.8579
   71MOL   H18822728   3.968   5.865   6.281  1.0654 -0.1541 -2.7170
   71MOL   H18922729   3.838   6.077   6.283 -0.6577  1.2442 -1.5513
   71MOL   H19022730   3.952   6.057   6.143  0.3277  2.7183 -1.0307
   71MOL   H19122731   3.980   6.168   6.279 -0.5799  0.2224 -1.8749
   71MOL   H19222732   4.299   5.596   6.343  1.0668 -2.4287  0.6319
   71MOL   H19322733   4.470   5.618   6.310 -0.4086 -0.6288  0.1941
   71MOL   C19422734   4.411   5.705   6.493  0.0841  0.4931 -0.4173
   71MOL   O19522735   4.379   5.594   6.576  0.0387 -0.0731  0.0113
   71MOL   C19622736   4.242   5.591   6.613  0.0434  0.1046 -0.4311
   71MOL   C19722737   4.204   5.486   6.723 -0.9075 -0.1564  0.6973
   71MOL   C19822738   4.300   5.482   6.845 -0.0185 -0.0925  0.2191
   71MOL   C19922739   4.558   5.721   6.512 -0.1339  0.1722  0.5768
   71MOL   H20022740   4.381   5.806   6.523  1.8145  1.0847 -0.6173
   71MOL   H20122741   4.230   5.694   6.645  0.9073 -0.5316  2.0779
   71MOL   H20222742   4.172   5.578   6.530  1.8721  1.1464 -2.1757
   71MOL   H20322743   4.205   5.386   6.680 -2.0390 -1.0503  2.6438
   71MOL   H20422744   4.102   5.500   6.757 -1.2279  0.5259 -0.5217
   71MOL   H20522745   4.286   5.397   6.913  0.2894 -0.4215 -0.1253
   71MOL   H20622746   4.294   5.574   6.902 -1.5215  0.6838 -1.1483
   71MOL   H20722747   4.398   5.460   6.801  0.8359  0.4558  1.8153
   71MOL   H20822748   4.597   5.621   6.529  0.6181 -0.1228 -2.6021
   71MOL   H20922749   4.598   5.766   6.421  1.7926 -1.1136  0.7677
   71MOL   C21022750   4.599   5.812   6.631 -0.8239  0.3168 -0.2554
   71MOL   O21122751   4.742   5.797   6.640  0.0410 -0.0348 -0.0602
   71MOL   C21222752   4.793   5.682   6.704  0.8011 -0.5901  0.3023
   71MOL   C21322753   4.943   5.677   6.689  0.0675  0.4283 -0.0461
   71MOL   C21422754   4.985   5.632   6.546 -0.3656  0.0967  0.0934
   71MOL   C21522755   4.566   5.958   6.623  0.1688  0.7081  0.0457
   71MOL   H21622756   4.553   5.775   6.723 -2.7716 -0.9322 -1.7015
   71MOL   H21722757   4.774   5.692   6.810  1.6736  1.8955  0.2818
   71MOL   H21822758   4.748   5.588   6.673  2.3480 -2.1305  2.5751
   71MOL   H21922759   4.977   5.591   6.748 -2.2970 -1.0248 -0.7578
   71MOL   H22022760   4.996   5.767   6.719  2.1447 -1.3954  2.0705
   71MOL   H22122761   4.971   5.712   6.473  1.0503 -0.9158 -1.3180
   71MOL   H22222762   4.921   5.549   6.517 -0.7567  0.9196 -1.4326
   71MOL   H22322763   5.088   5.595   6.542  0.1165  1.2722  1.0242
   71MOL   H22422764   4.581   6.002   6.524  2.2146 -1.6228 -0.7254
   71MOL   H22522765   4.461   5.969   6.651 -0.1013 -2.5905  0.4451
   71MOL   C22622766   4.660   6.047   6.711 -0.6683  0.1655 -0.0045
   71MOL   O22722767   4.634   6.189   6.682  0.2429  0.3740 -0.1306
   71MOL   C22822768   4.745   6.268   6.696 -0.0648 -0.8854 -0.2341
   71MOL   C22922769   4.711   6.404   6.627 -0.3972 -0.3105 -0.1149
   71MOL   C23022770   4.834   6.493   6.606  0.5770 -0.3626 -0.7425
   71MOL   C23122771   4.644   6.021   6.863  0.8956 -0.1572  0.1838
   71MOL   H23222772   4.762   6.021   6.682 -1.5811 -2.0683 -1.3847
   71MOL   H23322773   4.784   6.287   6.796 -0.3980 -1.1565 -0.0493
   71MOL   H23422774   4.833   6.225   6.648  0.6763 -0.5363  0.7817
   71MOL   H23522775   4.638   6.458   6.688 -0.8787 -0.9196 -0.1494
   71MOL   H23622776   4.672   6.383   6.528 -0.4779 -1.8072  0.2289
   71MOL   H23722777   4.805   6.593   6.576 -0.4251 -0.6611 -0.7927
   71MOL   H23822778   4.907   6.450   6.538  0.2296 -1.7549 -0.2559
   71MOL   H23922779   4.873   6.508   6.707 -1.7033  1.8031 -0.1323
   71MOL   H24022780   4.670   5.916   6.880  0.2775 -0.1168  1.3941
   71MOL   H24122781   4.712   6.082   6.923  1.6021  0.0715 -0.8378
   71MOL   C24222782   4.498   6.054   6.926  0.2147  0.7772  0.2010
   71MOL   O24322783   4.496   6.013   7.065 -0.2229 -0.1998 -0.0752
   71MOL   C24422784   4.477   5.875   7.089 -0.6977  0.2627 -1.2423
   71MOL   C24522785   4.439   5.853   7.241 -0.1335 -0.3579  0.1480
   71MOL   C24622786   4.558   5.814   7.322 -0.4597  0.5364  0.6527
   71MOL   C24722787   4.459   6.204   6.938 -1.0133  0.1025 -0.4123
   71MOL   H24822788   4.420   6.005   6.869  1.2180 -0.5058 -0.1006
   71MOL   H24922789   4.395   5.839   7.027 -0.1543 -1.4874 -0.9949
   71MOL   H25022790   4.568   5.824   7.058  1.8599  2.6583  1.9405
   71MOL   H25122791   4.357   5.781   7.242  1.6724 -2.4330  0.5897
   71MOL   H25222792   4.390   5.944   7.277 -0.2467 -0.9526  1.4992
   71MOL   H25322793   4.596   5.713   7.307 -1.3080  0.3960 -0.6217
   71MOL   H25422794   4.524   5.807   7.425  0.7763  1.3104  1.1264
   71MOL   H25522795   4.634   5.892   7.312  2.3002 -1.7573  2.8840
   71MOL   H25622796   4.543   6.269   6.963 -2.2411  1.3106  0.6502
   71MOL   H25722797   4.425   6.223   6.836  1.5642 -1.8013 -1.6720
   71MOL   C25822798   4.334   6.238   7.024  0.5583 -0.0106 -0.1996
   71MOL   O25922799   4.321   6.383   7.031 -0.6406  0.1208  0.1521
   71MOL   C26022800   4.341   6.436   7.166  0.3422 -0.0637  0.3515
   71MOL   C26122801   4.338   6.585   7.156 -0.1588 -0.7017  0.1169
   71MOL   C26222802   4.462   6.650   7.081 -0.5161  0.1195  0.0435
   71MOL   C26322803   4.195   6.180   6.971  0.0571 -0.3946 -0.5140
   71MOL   H26422804   4.357   6.204   7.125 -0.5973  0.8074  0.3551
   71MOL   H26522805   4.265   6.395   7.232 -0.9462  2.1611  0.3066
   71MOL   H26622806   4.443   6.414   7.199  0.9132 -1.5562 -2.3114
   71MOL   H26722807   4.335   6.623   7.259 -1.7029  1.3034 -0.6244
   71MOL   H26822808   4.246   6.615   7.106  0.1425 -1.4320 -0.8723
   71MOL   H26922809   4.430   6.752   7.056 -0.9782 -0.2251 -0.8116
   71MOL   H27022810   4.479   6.600   6.986 -0.2099 -0.9075  0.6332
   71MOL   H27122811   4.557   6.646   7.133 -1.1797 -1.9179  1.1280
   71MOL   H27222812   4.194   6.071   6.983 -2.5483 -0.6117 -2.4182
   71MOL   H27322813   4.119   6.220   7.037  0.6887 -1.3606  0.8375
   71MOL   C27422814   4.164   6.210   6.821 -0.2896 -0.8089  0.2958
   71MOL   O27522815   4.045   6.138   6.802  0.0097  0.0973 -0.3901
   71MOL   C27622816   4.057   6.008   6.764 -0.2295  0.3522  0.1415
   71MOL   C27722817   3.912   5.951   6.752 -0.8416  0.4733 -0.0915
   71MOL   C27822818   3.906   5.797   6.727  0.1684 -0.1276 -0.0776
   71MOL   C27922819   4.129   6.359   6.797 -0.3129 -0.4331 -0.1542
   71MOL   H28022820   4.242   6.181   6.751 -0.3792  0.2071 -0.2223
   71MOL   H28122821   4.107   5.997   6.667 -1.1232 -0.4963 -0.2373
   71MOL   H28222822   4.128   5.962   6.832 -0.4864 -2.9800 -1.6813
   71MOL   H28322823   3.862   6.009   6.674  0.1633 -0.1305 -1.2046
   71MOL   H28422824   3.859   5.966   6.846 -1.0766 -1.2473  0.0685
   71MOL   H28522825   3.943   5.770   6.628  0.4854 -0.2223  0.0691
   71MOL   H28622826   3.802   5.770   6.746  0.3914  0.2076  1.6554
   71MOL   H28722827   3.965   5.738   6.797 -0.3111 -0.7990 -0.2356
   71MOL   H28822828   4.033   6.386   6.840  0.3996 -0.2349  1.3356
   71MOL   H28922829   4.206   6.425   6.836  1.0698 -1.5189 -1.0024
   71MOL   C29022830   4.125   6.404   6.653  0.0622 -0.1764 -0.1751
   71MOL   O29122831   4.049   6.522   6.643 -0.5127  0.0113 -0.0776
   71MOL   C29222832   3.910   6.498   6.624 -0.1693  0.4160  0.2061
   71MOL   C29322833   3.829   6.622   6.647 -0.4373  0.1234 -0.8870
   71MOL   C29422834   3.820   6.682   6.787  0.1697 -0.2122 -0.7851
   71MOL   C29522835   4.273   6.432   6.607 -0.7050 -0.4083 -0.2044
   71MOL   H29622836   4.075   6.325   6.598  0.7574 -2.1994  2.0085
   71MOL   H29722837   3.902   6.460   6.522  0.9930  1.1354 -0.1670
   71MOL   H29822838   3.864   6.432   6.697 -0.0728 -0.4281 -0.4865
   71MOL   H29922839   3.728   6.602   6.612 -1.1056  2.6245 -0.4442
   71MOL   H30022840   3.876   6.704   6.593 -0.5152  1.4953  1.0640
   71MOL   H30122841   3.912   6.684   6.846 -0.4196 -0.4206  0.1621
   71MOL   H30222842   3.746   6.625   6.845 -0.8163  1.1056 -0.7166
   71MOL   H30322843   3.800   6.788   6.777  1.2722  0.2725  1.6794
   71MOL   H30422844   4.313   6.521   6.656  2.5521 -2.1244  0.3634
   71MOL   H30522845   4.338   6.351   6.641 -0.7416 -1.1513 -1.8740
   71MOL   C30622846   4.281   6.450   6.459  0.0751 -0.2164 -0.4258
   71MOL   O30722847   4.417   6.486   6.436 -0.0240  0.0075 -1.0582
   71MOL   C30822848   4.439   6.612   6.362 -0.0937 -0.1115  0.1411
   71MOL   C30922849   4.591   6.648   6.372 -0.0034 -0.2872 -0.2171
   71MOL   C31022850   4.612   6.790   6.309 -0.1389  0.3198  0.5460
   71MOL   C31122851   4.246   6.320   6.379  0.0538 -0.2826 -0.0629
   71MOL   H31222852   4.207   6.522   6.423 -1.6967 -1.0943  1.3987
   71MOL   H31322853   4.397   6.619   6.262  0.7502 -0.2318 -0.2239
   71MOL   H31422854   4.382   6.690   6.414 -0.8092 -0.0006 -0.8046
   71MOL   H31522855   4.651   6.571   6.323  2.5618  1.8196 -0.5046
   71MOL   H31622856   4.618   6.646   6.477  2.2932 -2.0863 -0.7994
   71MOL   H31722857   4.564   6.872   6.363 -0.4680  0.6748 -0.2786
   71MOL   H31822858   4.579   6.804   6.206  0.1062 -0.6836  0.3329
   71MOL   H31922859   4.718   6.816   6.311 -0.0820  0.1773 -0.4057
   71MOL   H32022860   4.150   6.285   6.416 -1.3387  0.5979 -2.7532
   71MOL   H32122861   4.242   6.331   6.271 -0.2045  1.2303  0.0897
   71MOL   H32222862   4.319   6.244   6.408  1.2212  0.3551 -1.2572
   72MOL     C122863   5.712   1.836   5.194  0.0201 -0.1645 -0.2081
   72MOL     O222864   5.688   1.965   5.133 -0.0446 -0.2363  0.0766
   72MOL     C322865   5.728   1.986   4.999 -0.8257 -0.1562 -0.8288
   72MOL     C422866   5.880   2.002   4.989 -0.0466  0.1542 -0.3813
   72MOL     C522867   5.921   2.139   5.050 -0.4669 -0.2174  0.2606
   72MOL     C622868   5.643   1.831   5.330  0.6809 -0.1212  0.1368
   72MOL     H722869   5.818   1.813   5.199  0.3614  1.3870 -0.0116
   72MOL     H822870   5.691   1.911   4.929 -3.0627  0.3886 -0.2695
   72MOL     H922871   5.673   2.068   4.953  0.1691  0.7055 -0.4916
   72MOL    H1022872   5.910   2.004   4.884 -1.3665 -0.0923 -0.7698
   72MOL    H1122873   5.933   1.918   5.033 -0.6630 -0.9995 -1.7999
   72MOL    H1222874   6.028   2.147   5.065 -0.3884  0.3811 -0.5419
   72MOL    H1322875   5.875   2.144   5.149  2.7780 -0.2741  1.8247
   72MOL    H1422876   5.873   2.223   5.000  1.2038 -0.6243 -2.0766
   72MOL    H1522877   5.676   1.916   5.390  1.3986  0.5146 -1.1342
   72MOL    H1622878   5.538   1.849   5.306  0.9407  2.2545  0.6522
   72MOL    H1722879   5.674   1.769   5.117  0.0783 -0.2581 -0.1541
   72MOL    C1822880   5.656   1.705   5.407  0.2511 -0.2285  0.2408
   72MOL    O1922881   5.783   1.658   5.439  0.0628 -0.1378 -0.2579
   72MOL    C2022882   5.865   1.749   5.501 -0.3216  0.2349  0.4752
   72MOL    C2122883   5.982   1.679   5.567 -0.2093 -0.1461 -0.0377
   72MOL    C2222884   6.104   1.768   5.608  0.1565 -0.5574 -0.7163
   72MOL    C2322885   5.569   1.683   5.536  0.0649 -0.1715 -0.3376
   72MOL    H2422886   5.615   1.641   5.329 -0.7301  2.3507 -1.4288
   72MOL    H2522887   5.896   1.830   5.436 -2.2440  0.8270  0.2432
   72MOL    H2622888   5.813   1.799   5.583  0.0361  2.5464 -0.6586
   72MOL    H2722889   6.023   1.603   5.500 -0.7810  0.3497 -0.9449
   72MOL    H2822890   5.945   1.629   5.657 -0.6743  0.5871  0.1809
   72MOL    H2922891   6.135   1.839   5.530 -1.8029  0.4871 -0.5829
   72MOL    H3022892   6.186   1.709   5.650  0.2702  0.2285  0.1788
   72MOL    H3122893   6.064   1.821   5.694  2.4250  0.7794 -0.4185
   72MOL    H3222894   5.600   1.588   5.582  3.0500  0.0574 -1.7442
   72MOL    H3322895   5.588   1.772   5.596 -1.6088 -0.0010 -0.0519
   72MOL    C3422896   5.416   1.690   5.516 -0.2292  0.0672  0.2672
   72MOL    O3522897   5.380   1.570   5.445 -0.0902 -0.6209 -0.0756
   72MOL    C3622898   5.270   1.598   5.365 -0.4849 -0.4192  0.4247
   72MOL    C3722899   5.247   1.481   5.273  0.6141  0.2944 -0.0896
   72MOL    C3822900   5.144   1.516   5.163  0.2066 -0.2609 -0.2802
   72MOL    C3922901   5.333   1.673   5.650  0.7636 -0.6797  0.1619
   72MOL    H4022902   5.390   1.788   5.478 -1.6520 -0.8397 -1.1710
   72MOL    H4122903   5.185   1.612   5.431  0.1156 -0.9056  1.3176
   72MOL    H4222904   5.292   1.688   5.308 -0.8626 -0.0973  0.7918
   72MOL    H4322905   5.206   1.401   5.336  0.4479  2.2810  2.4027
   72MOL    H4422906   5.341   1.457   5.224  1.3478  2.4847  0.2106
   72MOL    H4522907   5.175   1.594   5.093 -0.9384 -0.4138 -0.9728
   72MOL    H4622908   5.054   1.548   5.216  1.0468  1.6333  0.0304
   72MOL    H4722909   5.129   1.433   5.093  1.2740 -1.3072  0.7072
   72MOL    H4822910   5.226   1.654   5.637  0.4395 -0.3264  2.1506
   72MOL    H4922911   5.359   1.579   5.699  0.2839 -0.4173  0.9252
   72MOL    C5022912   5.347   1.798   5.742  0.1198  0.6135  0.1894
   72MOL    O5122913   5.300   1.906   5.672 -0.0629 -0.0476  0.3423
   72MOL    C5222914   5.390   2.017   5.656 -0.1105 -0.6175  0.5634
   72MOL    C5322915   5.296   2.131   5.618  0.1260  0.4519  0.0880
   72MOL    C5422916   5.371   2.256   5.576  0.8570 -0.3790  0.3898
   72MOL    C5522917   5.285   1.780   5.877 -0.6963  0.1369  0.6334
   72MOL    H5622918   5.456   1.802   5.740  0.2386 -2.1261 -1.9398
   72MOL    H5722919   5.441   2.039   5.751 -0.3575  1.1968  0.2929
   72MOL    H5822920   5.459   1.995   5.575 -1.0619 -0.6888 -0.2335
   72MOL    H5922921   5.218   2.144   5.693  0.3145 -0.7789  0.5120
   72MOL    H6022922   5.231   2.099   5.537 -0.6465 -2.4043  1.7567
   72MOL    H6122923   5.307   2.345   5.573  0.0018 -0.9677  0.7789
   72MOL    H6222924   5.424   2.252   5.481 -0.3742  1.3998 -0.3976
   72MOL    H6322925   5.448   2.283   5.648 -0.2895  2.7908  0.4927
   72MOL    H6422926   5.182   1.750   5.856 -0.6189  0.8664 -0.8111
   72MOL    H6522927   5.341   1.708   5.937 -1.1710  0.9008  2.0200
   72MOL    C6622928   5.272   1.909   5.958  0.4055  0.0810 -0.3758
   72MOL    O6722929   5.181   1.886   6.063  0.3309 -0.1663 -0.3760
   72MOL    C6822930   5.048   1.901   6.029  0.4919 -0.3586  0.5415
   72MOL    C6922931   4.948   1.906   6.149 -0.7164 -0.0025 -0.4622
   72MOL    C7022932   4.964   2.013   6.264 -0.0094 -0.8845  0.0706
   72MOL    C7122933   5.402   1.945   6.033  0.0031  0.0325 -0.7179
   72MOL    H7222934   5.237   1.992   5.895 -0.7481 -0.9271 -1.0882
   72MOL    H7322935   5.033   1.981   5.956  1.2606 -0.1503  0.6031
   72MOL    H7422936   5.033   1.809   5.972  0.5498 -0.2831  0.4054
   72MOL    H7522937   4.942   1.810   6.201  1.6292  0.4251  0.6436
   72MOL    H7622938   4.849   1.906   6.103 -0.4954 -3.1828 -1.0442
   72MOL    H7722939   5.046   1.984   6.329 -2.5392 -3.1507  2.3759
   72MOL    H7822940   4.872   2.001   6.321 -0.5669  0.4900 -0.5085
   72MOL    H7922941   4.964   2.113   6.221  1.1568 -0.7909  0.2731
   72MOL    H8022942   5.431   1.869   6.106 -0.0115 -0.8671 -1.6423
   72MOL    H8122943   5.483   1.945   5.960  1.7713  3.0905  1.1610
   72MOL    C8222944   5.404   2.076   6.116  0.3234 -0.2300 -0.2055
   72MOL    O8322945   5.523   2.092   6.195 -0.1767  0.3584 -0.0379
   72MOL    C8422946   5.521   2.012   6.318  0.0373 -0.4713 -0.1014
   72MOL    C8522947   5.665   1.965   6.339  0.0591  0.2322 -0.1954
   72MOL    C8622948   5.711   1.957   6.485  0.0236  0.9323 -0.1941
   72MOL    C8722949   5.414   2.196   6.021 -0.3145  0.4070  0.3348
   72MOL    H8822950   5.315   2.075   6.179 -0.3549 -0.9412 -1.1608
   72MOL    H8922951   5.508   2.095   6.388  1.0178  1.1535 -1.7933
   72MOL    H9022952   5.444   1.938   6.338 -2.2410  1.4030 -1.7057
   72MOL    H9122953   5.721   2.043   6.287 -1.6284  1.7364  0.1890
   72MOL    H9222954   5.690   1.874   6.283  1.3455  1.1341 -1.1171
   72MOL    H9322955   5.816   1.984   6.501 -0.7210  2.9420  1.5004
   72MOL    H9422956   5.707   1.851   6.510 -2.7947  1.2199  0.7153
   72MOL    H9522957   5.656   2.024   6.551 -1.2875  0.6011 -0.9254
   72MOL    H9622958   5.517   2.230   6.009  0.3010 -2.1040 -1.9107
   72MOL    H9722959   5.378   2.165   5.923  0.4889  0.2068  0.1035
   72MOL    C9822960   5.330   2.322   6.046 -0.9747 -0.1211 -0.3058
   72MOL    O9922961   5.347   2.400   5.925 -0.2647 -0.2929  0.2341
   72MOL   C10022962   5.454   2.489   5.922  0.0909  0.6663 -0.6732
   72MOL   C10122963   5.422   2.592   5.816  0.0048 -0.5400  0.0309
   72MOL   C10222964   5.517   2.706   5.822 -0.3693  0.3876  0.7837
   72MOL   C10322965   5.182   2.289   6.042 -0.3847 -0.1323  0.4039
   72MOL   H10422966   5.366   2.370   6.137 -2.0161 -2.4809  1.4050
   72MOL   H10522967   5.492   2.523   6.018  3.1795  2.3620 -2.4128
   72MOL   H10622968   5.527   2.420   5.880 -0.2397 -1.0701  1.5535
   72MOL   H10722969   5.322   2.631   5.836 -0.5296 -1.1933 -1.2700
   72MOL   H10822970   5.414   2.552   5.714 -2.1065 -0.1351  0.0138
   72MOL   H10922971   5.617   2.679   5.787  0.8230  0.8694  3.6901
   72MOL   H11022972   5.533   2.740   5.924 -0.8518 -1.0601  1.3496
   72MOL   H11122973   5.479   2.784   5.757  1.6303  1.4388  0.8323
   72MOL   H11222974   5.164   2.227   5.954  2.0142 -3.3014  2.0383
   72MOL   H11322975   5.162   2.220   6.124  0.9975  0.0086  0.8629
   72MOL   C11422976   5.086   2.407   6.022 -0.3887  0.8280  0.7847
   72MOL   O11522977   4.953   2.348   6.012  0.4804 -0.0406  0.2392
   72MOL   C11622978   4.892   2.352   5.887 -0.0335  0.1870 -0.0227
   72MOL   C11722979   4.765   2.276   5.880  0.3970 -0.0905  0.1528
   72MOL   C11822980   4.782   2.121   5.910 -0.0292  0.1376 -0.1696
   72MOL   C11922981   5.081   2.509   6.134  0.2128  0.2960  0.3663
   72MOL   H12022982   5.102   2.452   5.924  2.6414  2.0749  1.7847
   72MOL   H12122983   4.877   2.458   5.870  1.7447  0.5596  0.5984
   72MOL   H12222984   4.962   2.322   5.809 -1.1099  1.2804 -1.4339
   72MOL   H12322985   4.719   2.285   5.781  2.2393  0.1111 -0.6989
   72MOL   H12422986   4.701   2.320   5.956  1.1219  0.1744  0.6153
   72MOL   H12522987   4.688   2.068   5.925  0.0341  0.2036  0.5154
   72MOL   H12622988   4.844   2.101   5.997  0.1740 -1.2116 -0.6123
   72MOL   H12722989   4.824   2.071   5.823  0.4886 -1.8991  1.2065
   72MOL   H12822990   5.036   2.443   6.208  2.2405 -1.6145 -0.0438
   72MOL   H12922991   5.181   2.541   6.163  0.6278 -0.2151 -0.4674
   72MOL   C13022992   4.989   2.627   6.102 -0.6795 -0.2617 -0.7263
   72MOL   O13122993   4.993   2.713   6.207 -0.0414 -0.1384  0.4330
   72MOL   C13222994   4.885   2.709   6.299 -0.1908  1.0196  0.5310
   72MOL   C13322995   4.914   2.817   6.402 -0.3181  0.3814  0.0935
   72MOL   C13422996   5.027   2.789   6.500  0.1482 -0.4299 -0.5084
   72MOL   C13522997   5.043   2.718   5.981  0.4395 -0.5330 -1.1360
   72MOL   H13622998   4.890   2.586   6.082 -0.9768  0.5712 -1.0035
   72MOL   H13722999   4.791   2.733   6.250 -0.4335  2.0543  1.4731
   72MOL   H13823000   4.879   2.610   6.346  0.2716  1.4730  1.5597
   72MOL   H13923001   4.822   2.833   6.458 -0.6611  0.4589 -0.4834
   72MOL   H14023002   4.930   2.906   6.341 -2.1665  0.3972 -0.4012
   72MOL   H14123003   5.027   2.691   6.547 -2.5884 -0.4969 -0.5891
   72MOL   H14223004   5.033   2.865   6.579 -1.8899  1.3763 -2.0597
   72MOL   H14323005   5.122   2.800   6.447  0.4660 -1.9786 -0.2726
   72MOL   H14423006   5.140   2.758   6.009 -0.5916  1.2149  0.0223
   72MOL   H14523007   5.054   2.663   5.888  1.7823 -1.7871 -0.2478
   72MOL   C14623008   4.953   2.832   5.942  0.1780 -0.9307  0.3403
   72MOL   O14723009   5.031   2.912   5.853  0.0363  0.0248 -0.1649
   72MOL   C14823010   5.113   3.008   5.911 -1.0733 -0.4023  0.0262
   72MOL   C14923011   5.191   3.078   5.805 -0.6035  0.6457 -0.8541
   72MOL   C15023012   5.253   3.213   5.859 -0.2058  0.1931  0.3497
   72MOL   C15123013   4.828   2.786   5.855  0.2884 -1.2012  0.4114
   72MOL   H15223014   4.923   2.897   6.025 -0.9442  0.4999 -1.1582
   72MOL   H15323015   5.053   3.077   5.970 -0.5019 -0.8690  1.1579
   72MOL   H15423016   5.186   2.964   5.978 -1.6546 -1.0884  0.2114
   72MOL   H15523017   5.116   3.099   5.729  0.4831 -0.9495 -2.3933
   72MOL   H15623018   5.267   3.011   5.764  1.4686  2.1695  0.3598
   72MOL   H15723019   5.187   3.271   5.923  1.5587  1.9132  0.6484
   72MOL   H15823020   5.289   3.278   5.779 -2.0918  0.9246  0.0549
   72MOL   H15923021   5.341   3.205   5.922  0.6831 -0.4380 -0.9271
   72MOL   H16023022   4.856   2.726   5.768 -0.9671  0.0115 -0.8504
   72MOL   H16123023   4.760   2.726   5.914 -1.6268  1.6765  1.2370
   72MOL   C16223024   4.751   2.913   5.812  0.1505 -0.1887  0.5276
   72MOL   O16323025   4.649   2.881   5.720 -0.1029  0.5225 -0.3703
   72MOL   C16423026   4.691   2.850   5.582  0.3966 -0.8293  0.6151
   72MOL   C16523027   4.600   2.746   5.513  0.3031  0.1512  0.3504
   72MOL   C16623028   4.618   2.604   5.573 -0.0121  0.0047 -0.0213
   72MOL   C16723029   4.679   2.988   5.928  0.1763  0.5586 -0.5477
   72MOL   H16823030   4.816   2.989   5.768  1.5887 -1.3562  0.5978
   72MOL   H16923031   4.693   2.946   5.529  3.0691 -1.1484  0.0480
   72MOL   H17023032   4.795   2.816   5.581  0.4932 -0.5342  0.0729
   72MOL   H17123033   4.613   2.746   5.405 -0.7272  1.6532  0.2216
   72MOL   H17223034   4.496   2.769   5.532  0.1038 -0.2971 -0.1713
   72MOL   H17323035   4.619   2.601   5.682  2.9186 -3.2710 -0.0811
   72MOL   H17423036   4.715   2.563   5.548  0.8705  1.3418  1.1306
   72MOL   H17523037   4.532   2.548   5.536  1.1241 -0.4883 -1.9801
   72MOL   H17623038   4.605   2.924   5.976  1.2110  0.9398  1.6204
   72MOL   H17723039   4.751   3.009   6.006 -0.9193 -0.8606  0.8860
   72MOL   C17823040   4.614   3.116   5.880  0.7165 -0.0571 -1.0124
   72MOL   O17923041   4.516   3.132   5.983 -0.2139 -0.6803  0.1195
   72MOL   C18023042   4.388   3.173   5.936  0.1374  0.2998  0.0447
   72MOL   C18123043   4.304   3.212   6.063  0.2622 -0.2850  0.2144
   72MOL   C18223044   4.346   3.342   6.124  0.8887  0.3435 -0.2023
   72MOL   C18323045   4.708   3.240   5.855  0.6201 -0.0649  0.4116
   72MOL   H18423046   4.551   3.090   5.795  1.2393 -0.4920 -1.2716
   72MOL   H18523047   4.400   3.263   5.876 -1.9771  0.6024  0.0598
   72MOL   H18623048   4.344   3.091   5.879 -2.3433  0.4236  1.7434
   72MOL   H18723049   4.312   3.123   6.125  1.6191 -0.9800 -0.9514
   72MOL   H18823050   4.199   3.214   6.034  0.1035 -0.6785  0.7644
   72MOL   H18923051   4.284   3.360   6.212  0.6141 -2.7803  0.2923
   72MOL   H19023052   4.332   3.431   6.062  0.1385  0.2670 -0.1537
   72MOL   H19123053   4.447   3.335   6.163  0.4745 -3.8122  0.3436
   72MOL   H19223054   4.730   3.276   5.955 -1.7946  1.1794  0.5263
   72MOL   H19323055   4.804   3.205   5.816  0.5887  1.3427 -0.9978
   72MOL   C19423056   4.658   3.356   5.764 -0.0490  0.3703  0.3343
   72MOL   O19523057   4.763   3.449   5.744 -0.6210  0.3120 -0.1851
   72MOL   C19623058   4.835   3.500   5.852  0.2956 -0.1894  0.0289
   72MOL   C19723059   4.947   3.591   5.801 -0.0144 -0.4301 -0.1673
   72MOL   C19823060   5.058   3.503   5.734 -0.2524 -0.1548  0.3849
   72MOL   C19923061   4.590   3.323   5.631  0.1014  0.9180 -0.4150
   72MOL   H20023062   4.585   3.412   5.822  0.9636  1.5483  0.4814
   72MOL   H20123063   4.770   3.563   5.913 -2.0664 -1.1690 -1.3768
   72MOL   H20223064   4.887   3.422   5.908  0.8836 -0.1189 -0.4136
   72MOL   H20323065   4.984   3.646   5.887 -0.0965 -2.4921  1.2223
   72MOL   H20423066   4.908   3.664   5.730 -1.3202 -1.7335 -0.8152
   72MOL   H20523067   5.147   3.563   5.717  0.6263 -1.4368  0.4159
   72MOL   H20623068   5.025   3.470   5.635  2.2084 -1.2235 -0.1091
   72MOL   H20723069   5.089   3.416   5.790 -0.0093  0.4941  1.2706
   72MOL   H20823070   4.500   3.263   5.642  1.9369 -2.0281 -1.0334
   72MOL   H20923071   4.538   3.409   5.588 -1.2720 -0.8369 -2.3789
   72MOL   C21023072   4.682   3.235   5.544  0.0238  0.2614  0.1416
   72MOL   O21123073   4.604   3.151   5.454 -0.1150 -0.1552 -0.1094
   72MOL   C21223074   4.509   3.205   5.360  0.3479 -0.0970 -0.3299
   72MOL   C21323075   4.451   3.083   5.271  0.5319  0.2840  0.3421
   72MOL   C21423076   4.559   3.030   5.169  0.6070 -0.1276 -0.2441
   72MOL   C21523077   4.787   3.314   5.471 -0.0506  0.2554  0.3450
   72MOL   H21623078   4.727   3.168   5.617 -0.8313 -0.3395  0.1308
   72MOL   H21723079   4.433   3.262   5.415  0.5562  1.0810 -1.2380
   72MOL   H21823080   4.567   3.280   5.306  2.3219  0.9982  3.1575
   72MOL   H21923081   4.372   3.116   5.204  0.4226  0.7743  0.7078
   72MOL   H22023082   4.424   2.998   5.333 -0.6394 -0.2542 -0.8772
   72MOL   H22123083   4.653   3.016   5.222 -0.2624  1.9122  1.8948
   72MOL   H22223084   4.569   3.094   5.081 -2.7888  0.0559 -0.5684
   72MOL   H22323085   4.520   2.935   5.132 -0.6158  0.0398  0.5639
   72MOL   H22423086   4.738   3.380   5.398  0.0391  0.9076  0.8635
   72MOL   H22523087   4.831   3.380   5.545  2.0362 -0.0600 -0.5750
   72MOL   C22623088   4.884   3.222   5.396 -0.5530 -0.0053  0.1192
   72MOL   O22723089   4.934   3.293   5.280  0.4439  0.1306  0.6818
   72MOL   C22823090   4.873   3.275   5.157  0.3890  0.2583  0.1191
   72MOL   C22923091   4.975   3.320   5.060 -0.4918 -0.0126  0.2632
   72MOL   C23023092   5.092   3.227   5.040  0.3825  0.4781 -0.1185
   72MOL   C23123093   5.003   3.190   5.486  0.3942  0.2073 -0.8935
   72MOL   H23223094   4.843   3.130   5.355  2.2717 -0.1018 -2.6592
   72MOL   H23323095   4.829   3.176   5.142 -0.2181  0.2064  2.0815
   72MOL   H23423096   4.789   3.344   5.158 -1.4762 -1.9354 -0.0806
   72MOL   H23523097   4.991   3.427   5.077  0.5437  0.5082 -3.5236
   72MOL   H23623098   4.919   3.322   4.967  1.8013 -0.4481 -1.1580
   72MOL   H23723099   5.052   3.127   5.023  1.0219  0.4443 -1.5138
   72MOL   H23823100   5.142   3.212   5.135 -0.5703 -0.7049  0.2185
   72MOL   H23923101   5.160   3.260   4.961 -0.6603 -1.0716 -1.7085
   72MOL   H24023102   5.065   3.279   5.496  2.0096 -0.7728 -1.9918
   72MOL   H24123103   4.968   3.152   5.582  2.2193  3.0550  0.9864
   72MOL   C24223104   5.091   3.077   5.430 -0.3619  0.3299  0.3293
   72MOL   O24323105   5.225   3.078   5.492  0.0542 -0.0263  0.5491
   72MOL   C24423106   5.314   3.164   5.432 -0.5294  0.4907 -0.2542
   72MOL   C24523107   5.465   3.128   5.479 -0.5841 -0.8494  0.2223
   72MOL   C24623108   5.567   3.234   5.424 -0.0081 -0.4600  0.3284
   72MOL   C24723109   5.027   2.942   5.463 -0.0208  0.2713 -0.1306
   72MOL   H24823110   5.112   3.091   5.324  0.1374  0.2851  0.4186
   72MOL   H24923111   5.317   3.153   5.324  3.9046  1.1420 -0.3177
   72MOL   H25023112   5.282   3.264   5.462  0.2298  0.7145 -0.1731
   72MOL   H25123113   5.498   3.036   5.432 -0.2692 -1.2711  1.2595
   72MOL   H25223114   5.469   3.115   5.587  1.0492 -1.5932  0.0862
   72MOL   H25323115   5.664   3.188   5.442  1.3480  1.9547 -0.6300
   72MOL   H25423116   5.568   3.334   5.467  1.4440 -0.3996  0.1653
   72MOL   H25523117   5.561   3.244   5.316 -0.5593 -1.8638  0.2119
   72MOL   H25623118   5.047   2.921   5.568  1.5501 -1.9697 -0.8436
   72MOL   H25723119   4.922   2.966   5.447 -0.3257  1.0289  2.8449
   72MOL   C25823120   5.082   2.835   5.368 -0.5313  0.4573 -0.2876
   72MOL   O25923121   5.039   2.711   5.431 -0.2732 -0.3377  0.2237
   72MOL   C26023122   5.120   2.660   5.535 -0.2636 -0.3107 -0.1171
   72MOL   C26123123   5.041   2.548   5.599  0.2517  0.7141  0.7074
   72MOL   C26223124   5.022   2.424   5.504  0.1386  0.3543 -0.2610
   72MOL   C26323125   5.027   2.846   5.223 -0.4024 -0.3048  0.1341
   72MOL   H26423126   5.189   2.852   5.376 -0.7331  0.2075  3.6720
   72MOL   H26523127   5.220   2.629   5.503  0.4190 -1.5313  3.0251
   72MOL   H26623128   5.148   2.736   5.608 -1.3821  1.2091 -1.2600
   72MOL   H26723129   4.943   2.578   5.637 -0.2293 -0.0897  0.1391
   72MOL   H26823130   5.097   2.523   5.689 -0.1857  0.3908  0.8928
   72MOL   H26923131   5.117   2.400   5.455  0.2968 -1.8290  1.0772
   72MOL   H27023132   4.951   2.435   5.423  0.2211 -2.6896 -0.7994
   72MOL   H27123133   5.003   2.337   5.565 -3.0821  1.4716  0.4001
   72MOL   H27223134   4.919   2.862   5.230 -0.2305  0.8700  0.2289
   72MOL   H27323135   5.072   2.930   5.170  0.9160 -1.8267 -1.2242
   72MOL   C27423136   5.044   2.722   5.133  0.2076 -0.3159  0.8211
   72MOL   O27523137   4.995   2.767   5.003 -0.0392 -0.2051  0.6409
   72MOL   C27623138   4.903   2.684   4.940  0.3450 -0.5263 -0.1960
   72MOL   C27723139   4.788   2.757   4.879  0.5623  0.5281 -0.1964
   72MOL   C27823140   4.727   2.850   4.983 -0.6334  0.2356  0.5432
   72MOL   C27923141   5.195   2.690   5.113 -0.1673 -0.7258 -0.3212
   72MOL   H28023142   4.990   2.633   5.166  0.2471 -0.2871  0.9619
   72MOL   H28123143   4.973   2.639   4.869  1.0030  2.5383 -1.5804
   72MOL   H28223144   4.868   2.598   4.997  0.5239  0.2030  1.0291
   72MOL   H28323145   4.707   2.685   4.865  0.4509  0.7421 -0.6819
   72MOL   H28423146   4.809   2.808   4.784 -1.1167 -0.3568 -1.0662
   72MOL   H28523147   4.637   2.901   4.948  1.2924  1.1908 -3.3394
   72MOL   H28623148   4.787   2.937   5.010 -0.1830  0.6683 -1.7347
   72MOL   H28723149   4.710   2.798   5.078  0.2317  1.0551  1.1580
   72MOL   H28823150   5.235   2.787   5.084  1.6153 -1.5353 -0.6387
   72MOL   H28923151   5.241   2.668   5.210 -1.2075  1.5877  0.7332
   72MOL   C29023152   5.228   2.573   5.015  0.4113  0.4345  0.1461
   72MOL   O29123153   5.369   2.568   5.001 -0.4347 -0.4924  0.2374
   72MOL   C29223154   5.423   2.663   4.912  0.2612  0.6056  0.8287
   72MOL   C29323155   5.582   2.639   4.889  0.5346 -0.0840 -0.4171
   72MOL   C29423156   5.645   2.732   4.783  0.2403 -0.0487  0.0617
   72MOL   C29523157   5.201   2.432   5.078  0.8866  0.0350 -0.3379
   72MOL   H29623158   5.175   2.590   4.922 -1.1323  0.8677  1.0806
   72MOL   H29723159   5.361   2.651   4.823  0.5232  0.5699  0.6515
   72MOL   H29823160   5.403   2.763   4.951  0.2120  0.4119  1.3070
   72MOL   H29923161   5.597   2.538   4.852 -0.5926 -0.5316  0.3420
   72MOL   H30023162   5.629   2.652   4.987  1.3095  1.9960 -1.0189
   72MOL   H30123163   5.740   2.696   4.743 -0.0694 -1.9578  0.9887
   72MOL   H30223164   5.664   2.827   4.834  0.9447 -0.6572  0.9558
   72MOL   H30323165   5.575   2.756   4.704  1.1647 -0.3522 -0.8626
   72MOL   H30423166   5.270   2.410   5.159  0.0524  0.8050  0.5924
   72MOL   H30523167   5.101   2.437   5.120 -0.0922 -3.3491 -2.1537
   72MOL   C30623168   5.222   2.318   4.978 -0.6999 -0.1139 -0.2143
   72MOL   O30723169   5.203   2.196   5.047 -0.6445 -0.5469  0.2019
   72MOL   C30823170   5.320   2.138   5.101  0.3195 -0.0286  0.1983
   72MOL   C30923171   5.273   2.004   5.166 -0.2667 -0.9991  1.2765
   72MOL   C31023172   5.134   2.022   5.241 -0.0415  0.9015  0.2479
   72MOL   C31123173   5.113   2.314   4.872  0.2038 -0.3501 -0.6260
   72MOL   H31223174   5.322   2.316   4.934  0.1198 -0.7846  1.5947
   72MOL   H31323175   5.398   2.114   5.028 -0.7515  0.3316 -1.0695
   72MOL   H31423176   5.380   2.207   5.160  2.1256 -0.0722 -1.5172
   72MOL   H31523177   5.353   1.968   5.230  0.0400 -0.1432  1.3818
   72MOL   H31623178   5.274   1.937   5.080  1.4272 -1.6022  1.7450
   72MOL   H31723179   5.102   1.927   5.285 -1.3845  0.3634 -1.8054
   72MOL   H31823180   5.062   2.045   5.163 -1.5546  1.8897  1.9119
   72MOL   H31923181   5.141   2.099   5.317 -0.1209 -0.0788  1.2711
   72MOL   H32023182   5.010   2.307   4.906  0.5683 -1.5385  0.2906
   72MOL   H32123183   5.118   2.396   4.801  1.1107  0.8551  0.8069
   72MOL   H32223184   5.135   2.232   4.804  0.0452 -2.1476  1.4214
   73MOL     C123185   3.274   4.607   7.024  0.1792  0.4253  0.7786
   73MOL     O223186   3.148   4.596   7.087  0.2867  0.7307 -0.1458
   73MOL     C323187   3.142   4.530   7.211 -0.3131 -0.3849  0.1111
   73MOL     C423188   3.025   4.592   7.296  0.3091 -0.7538 -0.3154
   73MOL     C523189   2.890   4.587   7.239 -0.0996 -0.8349  0.1922
   73MOL     C623190   3.342   4.731   7.071  0.4853 -0.0848 -0.5383
   73MOL     H723191   3.252   4.629   6.920  1.1686  2.5685  1.0004
   73MOL     H823192   3.126   4.423   7.205  0.6838 -0.6139  1.2541
   73MOL     H923193   3.232   4.543   7.272 -1.9622 -0.4732  2.6462
   73MOL    H1023194   3.049   4.696   7.317  0.6469 -1.0753  0.9555
   73MOL    H1123195   3.034   4.535   7.389 -1.4839  1.0901  1.0322
   73MOL    H1223196   2.899   4.648   7.149 -2.0120  0.0874  0.6001
   73MOL    H1323197   2.819   4.640   7.302  0.4295  1.1035 -0.8037
   73MOL    H1423198   2.858   4.484   7.225 -0.2527 -0.6708 -0.7024
   73MOL    H1523199   3.268   4.811   7.065  0.8869  0.3150 -0.1515
   73MOL    H1623200   3.368   4.730   7.177 -2.7249 -0.5751  0.2969
   73MOL    H1723201   3.335   4.516   7.021  0.3017  0.4921  1.1857
   73MOL    C1823202   3.470   4.772   6.997 -0.2315  0.6310  0.4945
   73MOL    O1923203   3.550   4.866   7.073 -0.5240 -0.1888  0.2845
   73MOL    C2023204   3.518   4.997   7.047 -0.1016 -0.3658 -0.0570
   73MOL    C2123205   3.577   5.096   7.154  0.2442 -0.4466  0.0520
   73MOL    C2223206   3.524   5.079   7.295  0.4631 -0.1436  0.7106
   73MOL    C2323207   3.569   4.651   6.984 -0.6960 -0.5217 -0.3016
   73MOL    H2423208   3.445   4.804   6.895 -0.4347 -0.0124  0.3417
   73MOL    H2523209   3.559   5.015   6.948 -1.7572  0.0945 -0.6863
   73MOL    H2623210   3.410   5.009   7.040  0.1204  1.6162 -0.3451
   73MOL    H2723211   3.571   5.201   7.125  0.1922 -0.2201  0.8887
   73MOL    H2823212   3.685   5.088   7.165 -0.0184 -2.3426  1.4990
   73MOL    H2923213   3.607   5.054   7.361  2.0090 -2.6008 -2.0195
   73MOL    H3023214   3.456   4.994   7.298  1.5031 -0.9844  0.8007
   73MOL    H3123215   3.475   5.170   7.329 -2.0059 -1.0643 -0.2296
   73MOL    H3223216   3.579   4.601   7.080 -2.8256 -0.5442 -0.0713
   73MOL    H3323217   3.533   4.574   6.916  0.4282 -2.3488  1.1353
   73MOL    C3423218   3.698   4.699   6.900  0.1355 -0.0802  0.3563
   73MOL    O3523219   3.800   4.614   6.932  0.1928 -1.1617 -0.8450
   73MOL    C3623220   3.873   4.652   7.048  0.1094 -0.2699 -0.4692
   73MOL    C3723221   3.965   4.541   7.087 -1.0666 -0.5530 -0.6308
   73MOL    C3823222   4.092   4.540   7.006 -0.0146 -0.0349 -0.2542
   73MOL    C3923223   3.675   4.680   6.750 -0.3929 -0.7965 -0.0791
   73MOL    H4023224   3.730   4.802   6.916 -0.3961  0.6084 -2.7688
   73MOL    H4123225   3.930   4.745   7.044 -0.0319 -0.2181 -1.4298
   73MOL    H4223226   3.808   4.654   7.135  2.0493 -1.3357  1.0595
   73MOL    H4323227   3.913   4.446   7.083 -0.5317 -0.8637 -0.2505
   73MOL    H4423228   3.995   4.544   7.192 -0.7655  0.8026 -0.7514
   73MOL    H4523229   4.079   4.479   6.917  0.7129  1.3064 -1.3047
   73MOL    H4623230   4.178   4.502   7.062  0.8739  2.2766  0.0319
   73MOL    H4723231   4.121   4.638   6.968  0.6170 -1.2356 -2.9657
   73MOL    H4823232   3.659   4.573   6.737  0.9409 -1.5051  3.7049
   73MOL    H4923233   3.582   4.731   6.726 -0.3041 -0.8364 -0.5217
   73MOL    C5023234   3.790   4.738   6.657  0.0783  0.4044  0.0026
   73MOL    O5123235   3.750   4.732   6.517 -0.0967  0.1285 -0.4962
   73MOL    C5223236   3.711   4.611   6.453 -0.3377 -0.4142  0.4837
   73MOL    C5323237   3.835   4.522   6.420  0.2321  0.0474  0.6197
   73MOL    C5423238   3.926   4.596   6.322  1.0524  0.7059 -0.3021
   73MOL    C5523239   3.819   4.886   6.677  0.9349  0.1927 -0.1242
   73MOL    H5623240   3.881   4.679   6.668 -0.5843 -0.3766  1.4389
   73MOL    H5723241   3.636   4.558   6.513  0.5561 -0.4577  1.5881
   73MOL    H5823242   3.654   4.638   6.365  0.1749 -0.4874  0.1292
   73MOL    H5923243   3.801   4.430   6.373 -0.7874 -0.6467  2.6914
   73MOL    H6023244   3.871   4.492   6.518  0.5161 -1.2296  0.1353
   73MOL    H6123245   3.869   4.625   6.233 -0.4274 -0.3513  0.2829
   73MOL    H6223246   4.008   4.525   6.315  0.2455 -0.1771 -1.0136
   73MOL    H6323247   3.956   4.692   6.365  0.3882  1.3788 -1.2992
   73MOL    H6423248   3.877   4.897   6.769 -1.2357  0.7780  1.2195
   73MOL    H6523249   3.895   4.914   6.604  1.3255  0.6634  0.4598
   73MOL    C6623250   3.703   4.992   6.672 -0.7424  0.4390 -0.8107
   73MOL    O6723251   3.741   5.121   6.718 -0.2498  0.1984  0.3528
   73MOL    C6823252   3.854   5.183   6.657 -0.0390 -0.0558 -0.2252
   73MOL    C6923253   3.842   5.329   6.690 -0.3704  0.2923 -0.2764
   73MOL    C7023254   3.848   5.356   6.843  0.4585 -0.4746  0.2220
   73MOL    C7123255   3.638   5.024   6.525  0.4355  0.0055  0.3706
   73MOL    H7223256   3.629   4.960   6.745  0.3375  1.8281  0.9034
   73MOL    H7323257   3.947   5.140   6.694 -1.1703 -1.6006  0.8974
   73MOL    H7423258   3.851   5.184   6.548  2.7189 -2.1081 -0.3578
   73MOL    H7523259   3.748   5.369   6.653  0.6366  1.2449 -1.8793
   73MOL    H7623260   3.921   5.382   6.637 -0.0403  0.1779  0.0968
   73MOL    H7723261   3.823   5.460   6.866  0.9808 -0.3915  0.4347
   73MOL    H7823262   3.934   5.321   6.901 -0.8552 -1.7792  1.4177
   73MOL    H7923263   3.768   5.297   6.888 -0.8758  2.8263  2.4138
   73MOL    H8023264   3.698   5.083   6.456  0.7664 -0.4327  0.2854
   73MOL    H8123265   3.630   4.930   6.471 -0.7818  1.3204 -1.7852
   73MOL    C8223266   3.504   5.100   6.533 -0.0294 -0.4529  0.4184
   73MOL    O8323267   3.471   5.139   6.402  0.2684  0.2385  0.3042
   73MOL    C8423268   3.493   5.274   6.367 -0.1653 -0.4887  0.1828
   73MOL    C8523269   3.418   5.304   6.234 -0.4561 -0.0169  0.1139
   73MOL    C8623270   3.269   5.255   6.223  0.4797  0.4793 -0.3759
   73MOL    C8723271   3.385   5.000   6.570 -0.2228 -0.5814  0.2343
   73MOL    H8823272   3.503   5.194   6.589  0.6332  1.3620 -2.5174
   73MOL    H8923273   3.461   5.348   6.441  1.7552 -0.5742  1.1354
   73MOL    H9023274   3.600   5.288   6.352 -0.2190  2.9751  2.4623
   73MOL    H9123275   3.481   5.264   6.155 -0.1044  0.0846  0.3450
   73MOL    H9223276   3.415   5.410   6.206 -0.8301 -0.3799 -1.2636
   73MOL    H9323277   3.275   5.147   6.238 -1.0372  0.2862 -1.0713
   73MOL    H9423278   3.227   5.276   6.125 -1.1642  0.3255  0.2732
   73MOL    H9523279   3.212   5.309   6.299  0.0171 -1.9157  1.0330
   73MOL    H9623280   3.394   4.921   6.494 -1.7729 -0.0228 -0.5506
   73MOL    H9723281   3.415   4.944   6.658  0.6647 -0.6718 -0.1204
   73MOL    C9823282   3.239   5.066   6.588 -0.1452  0.1098 -0.4156
   73MOL    O9923283   3.142   4.961   6.567 -0.1038  0.4367 -0.7262
   73MOL   C10023284   3.101   4.948   6.433 -0.1015  0.5147 -0.1415
   73MOL   C10123285   2.989   4.843   6.432 -0.1130 -0.3269  0.2980
   73MOL   C10223286   3.016   4.722   6.516 -0.3319  0.0159  0.2611
   73MOL   C10323287   3.237   5.138   6.727 -0.8838 -0.0935  0.7718
   73MOL   H10423288   3.220   5.143   6.513  0.4193  0.4424 -0.2235
   73MOL   H10523289   3.069   5.050   6.409  0.2963  1.1495  1.9444
   73MOL   H10623290   3.178   4.925   6.360 -1.4919 -1.5143 -1.0297
   73MOL   H10723291   2.977   4.810   6.329  0.5367  0.5447 -0.0624
   73MOL   H10823292   2.890   4.887   6.448  0.4667  1.4741 -0.8818
   73MOL   H10923293   2.972   4.631   6.475  0.3807 -0.4693  0.5676
   73MOL   H11023294   2.990   4.724   6.621 -2.3684 -0.8974 -0.2047
   73MOL   H11123295   3.125   4.716   6.522 -0.2475 -0.5053 -1.3791
   73MOL   H11223296   3.278   5.072   6.804  1.3457 -1.8045 -1.8026
   73MOL   H11323297   3.282   5.238   6.724 -0.4799 -0.1841  3.0518
   73MOL   C11423298   3.091   5.144   6.774 -0.3308 -0.0203 -0.1305
   73MOL   O11523299   3.106   5.224   6.890  0.1119 -0.6660 -0.0515
   73MOL   C11623300   3.104   5.164   7.015 -0.1869  0.4184 -0.4085
   73MOL   C11723301   3.153   5.281   7.107 -0.3916  0.3015  0.2450
   73MOL   C11823302   3.179   5.224   7.250  0.0281 -0.2248 -0.7919
   73MOL   C11923303   2.981   5.213   6.688 -0.3308 -0.2555 -0.0588
   73MOL   H12023304   3.062   5.041   6.796  0.9870 -0.8109 -1.9530
   73MOL   H12123305   3.009   5.120   7.047 -0.7454  1.5471 -0.5124
   73MOL   H12223306   3.181   5.087   7.025 -1.7594 -0.9312  1.4847
   73MOL   H12323307   3.074   5.356   7.114 -0.8390  0.0655 -2.0515
   73MOL   H12423308   3.248   5.325   7.079 -0.9386  1.5431  0.3246
   73MOL   H12523309   3.212   5.308   7.310  0.0130 -0.3623 -0.5904
   73MOL   H12623310   3.234   5.131   7.265 -0.9375 -0.1646  3.7911
   73MOL   H12723311   3.086   5.206   7.304  0.2141  0.1381 -0.3500
   73MOL   H12823312   3.020   5.315   6.681 -1.3344  0.0225 -1.8437
   73MOL   H12923313   2.988   5.180   6.584  1.6444 -2.5299  0.7325
   73MOL   C13023314   2.840   5.201   6.744 -1.0814  0.6578  0.6411
   73MOL   O13123315   2.771   5.311   6.690 -0.3525 -0.5270  0.7212
   73MOL   C13223316   2.711   5.387   6.793  0.0436  0.5011 -0.0922
   73MOL   C13323317   2.633   5.503   6.726  0.0359 -0.4433 -0.1130
   73MOL   C13423318   2.518   5.455   6.632 -0.3892 -0.0964  0.7253
   73MOL   C13523319   2.782   5.067   6.708 -1.0552  0.2039 -0.1986
   73MOL   H13623320   2.851   5.221   6.851  1.0698  0.2315  0.5221
   73MOL   H13723321   2.643   5.320   6.845 -1.5966  1.1328 -1.3621
   73MOL   H13823322   2.788   5.422   6.860  1.3565  0.9582 -1.8005
   73MOL   H13923323   2.701   5.573   6.678 -1.6675  3.2052  2.6289
   73MOL   H14023324   2.585   5.561   6.804  2.6607 -0.5489  1.6320
   73MOL   H14123325   2.475   5.360   6.665 -2.8791  1.6752  2.7047
   73MOL   H14223326   2.547   5.432   6.530  0.1423  2.3479  0.3042
   73MOL   H14323327   2.442   5.532   6.624  0.3984  0.5932 -0.1245
   73MOL   H14423328   2.799   5.047   6.603 -0.4661  1.3366 -0.3318
   73MOL   H14523329   2.842   4.985   6.746 -1.3507 -0.0015 -0.1766
   73MOL   C14623330   2.643   5.040   6.752  0.4937  0.7319 -0.3472
   73MOL   O14723331   2.625   4.903   6.710  0.4258 -0.3101  0.0340
   73MOL   C14823332   2.529   4.889   6.605 -0.1327 -0.3128  0.7716
   73MOL   C14923333   2.489   4.743   6.589  0.1433  0.5182 -0.5702
   73MOL   C15023334   2.615   4.665   6.521 -0.2636 -0.0645  0.4129
   73MOL   C15123335   2.624   5.041   6.907 -0.0097  0.6780  0.2566
   73MOL   H15223336   2.586   5.118   6.701 -1.2032 -0.0533  0.2881
   73MOL   H15323337   2.452   4.964   6.625 -1.0616 -0.8878 -0.5774
   73MOL   H15423338   2.559   4.917   6.505 -2.5242 -1.4369 -0.3030
   73MOL   H15523339   2.400   4.733   6.528 -1.2020  1.3179  1.2095
   73MOL   H15623340   2.473   4.693   6.684  1.3348  0.6409 -0.2897
   73MOL   H15723341   2.585   4.564   6.494 -0.4562 -0.1805  1.0531
   73MOL   H15823342   2.700   4.663   6.589  2.8778  2.1409 -3.2216
   73MOL   H15923343   2.648   4.721   6.433  0.6894  0.8495  1.3385
   73MOL   H16023344   2.677   4.952   6.941 -1.0279 -0.4186 -0.9435
   73MOL   H16123345   2.668   5.135   6.939  0.2800  0.3875  0.7087
   73MOL   C16223346   2.478   5.038   6.960  0.0216 -0.4176 -0.0892
   73MOL   O16323347   2.493   4.993   7.097 -0.4299 -0.2007  0.4070
   73MOL   C16423348   2.476   4.857   7.133  0.6366 -0.0634  0.4813
   73MOL   C16523349   2.517   4.814   7.277 -0.3619 -0.0313 -0.2580
   73MOL   C16623350   2.424   4.868   7.386 -0.5425  0.3842  0.7223
   73MOL   C16723351   2.402   5.167   6.951  0.3662 -0.2519 -0.0693
   73MOL   H16823352   2.437   4.966   6.889  1.9475  0.5471 -2.2460
   73MOL   H16923353   2.376   4.820   7.113  1.8395 -3.4718  0.3451
   73MOL   H17023354   2.536   4.799   7.064  0.3268  2.6855 -2.1889
   73MOL   H17123355   2.618   4.848   7.298  0.0587 -1.7607  0.5776
   73MOL   H17223356   2.522   4.705   7.285  1.4025 -0.1503 -2.2856
   73MOL   H17323357   2.422   4.976   7.397 -1.6738  0.3256  1.1673
   73MOL   H17423358   2.433   4.819   7.483 -2.7457 -0.7670  0.3754
   73MOL   H17523359   2.325   4.844   7.345 -1.5292  0.0255  3.2538
   73MOL   H17623360   2.444   5.243   7.016 -1.0337  1.6739 -1.3512
   73MOL   H17723361   2.413   5.221   6.857  1.6781 -2.7136 -1.3990
   73MOL   C17823362   2.253   5.144   6.982  0.1069 -0.0979 -0.4245
   73MOL   O17923363   2.193   5.270   7.025 -0.5488  0.6458 -0.1473
   73MOL   C18023364   2.207   5.385   6.943  0.0851  0.0031  0.9965
   73MOL   C18123365   2.107   5.488   6.987  0.3150 -0.2317 -0.2602
   73MOL   C18223366   2.143   5.535   7.130  0.0448  0.5433 -0.6815
   73MOL   C18323367   2.180   5.079   6.862 -0.1145  0.3912  0.3648
   73MOL   H18423368   2.240   5.078   7.068 -0.0269  1.5108  0.8133
   73MOL   H18523369   2.308   5.424   6.956  0.4107 -0.8695  1.1625
   73MOL   H18623370   2.183   5.362   6.840  1.8646  2.4903 -0.0047
   73MOL   H18723371   2.007   5.448   6.973 -0.1089  0.2018  1.4274
   73MOL   H18823372   2.102   5.575   6.921 -0.0747  0.2221  0.3635
   73MOL   H18923373   2.242   5.579   7.137 -0.4962  1.8309 -1.0370
   73MOL   H19023374   2.148   5.453   7.202 -0.2593 -0.9359 -2.3208
   73MOL   H19123375   2.075   5.606   7.177 -0.6714 -0.5480 -0.0422
   73MOL   H19223376   2.184   5.144   6.774  1.2175 -1.9705 -1.3923
   73MOL   H19323377   2.228   4.989   6.823 -1.8010  0.2023 -1.3562
   73MOL   C19423378   2.030   5.046   6.900 -0.0346 -0.0761  0.5393
   73MOL   O19523379   1.943   5.163   6.887 -0.3671  0.0361  0.6671
   73MOL   C19623380   1.830   5.162   6.972 -0.1581  0.3521  0.1376
   73MOL   C19723381   1.748   5.287   6.952  0.0526  0.0732  0.4093
   73MOL   C19823382   1.687   5.297   6.808 -0.3729 -0.7220  0.6308
   73MOL   C19923383   1.978   4.963   6.787  0.8883  0.2971 -0.2668
   73MOL   H20023384   2.022   4.990   6.994  0.5869 -1.2575 -0.0942
   73MOL   H20123385   1.766   5.077   6.948 -0.0736 -0.0576  1.3243
   73MOL   H20223386   1.850   5.152   7.079 -2.1670 -1.3943  0.3827
   73MOL   H20323387   1.812   5.374   6.970  1.8544 -1.3612  1.0750
   73MOL   H20423388   1.657   5.282   7.013 -0.6126  0.5970 -0.5258
   73MOL   H20523389   1.769   5.293   6.737 -1.3037 -0.8388 -0.4612
   73MOL   H20623390   1.630   5.388   6.788  0.4926 -0.0496  1.1853
   73MOL   H20723391   1.612   5.219   6.795 -1.1142  0.1647 -0.5674
   73MOL   H20823392   1.871   4.980   6.772  0.5459 -2.0141 -0.5987
   73MOL   H20923393   2.026   5.003   6.697  3.5348  0.9479  1.3951
   73MOL   C21023394   2.005   4.808   6.791  0.4854  0.5510 -0.1450
   73MOL   O21123395   1.931   4.762   6.901  0.4183  0.1124 -0.0729
   73MOL   C21223396   2.004   4.681   6.996 -0.3051  0.5971 -0.3222
   73MOL   C21323397   1.891   4.650   7.102 -0.0427 -0.2643  0.6551
   73MOL   C21423398   1.765   4.575   7.038 -0.2732 -0.8468 -0.3825
   73MOL   C21523399   1.976   4.734   6.661  0.5194  0.9928 -0.4676
   73MOL   H21623400   2.112   4.798   6.809 -0.2875 -1.0558  4.2780
   73MOL   H21723401   2.025   4.585   6.949 -0.1040 -0.7761  2.5084
   73MOL   H21823402   2.098   4.727   7.025  0.9350 -2.7393  1.0723
   73MOL   H21923403   1.861   4.746   7.144 -2.6137 -0.2890 -0.9920
   73MOL   H22023404   1.926   4.593   7.188  0.7477 -1.0452 -0.1610
   73MOL   H22123405   1.794   4.472   7.019 -1.2942 -1.3834  0.8674
   73MOL   H22223406   1.733   4.624   6.946 -0.7112 -1.6861 -0.6729
   73MOL   H22323407   1.685   4.581   7.112  0.1502 -2.5789  0.2338
   73MOL   H22423408   1.871   4.750   6.634 -0.2209  0.5311  1.9994
   73MOL   H22523409   2.034   4.779   6.581  0.3702 -0.4282 -1.3834
   73MOL   C22623410   2.000   4.582   6.664  0.5116  0.0948 -0.5214
   73MOL   O22723411   1.967   4.530   6.537  0.1994 -0.2009 -0.1779
   73MOL   C22823412   1.826   4.499   6.519 -0.8176  0.7155  0.7507
   73MOL   C22923413   1.785   4.374   6.593  0.4931  0.0619  0.0382
   73MOL   C23023414   1.644   4.313   6.552 -0.0110 -0.5565  0.6248
   73MOL   C23123415   2.142   4.537   6.701 -0.5219  0.2634 -0.6292
   73MOL   H23223416   1.932   4.539   6.737  0.7626  1.1085  0.3213
   73MOL   H23323417   1.764   4.588   6.534  0.2069  1.8166 -1.3669
   73MOL   H23423418   1.812   4.475   6.414  2.1315 -1.2563  0.7628
   73MOL   H23523419   1.797   4.385   6.701  2.5781 -0.7410 -0.0688
   73MOL   H23623420   1.858   4.295   6.575  0.1087 -0.2489 -0.1684
   73MOL   H23723421   1.563   4.386   6.556  0.6172  0.0947  1.7793
   73MOL   H23823422   1.619   4.226   6.612 -0.5870 -0.6847  0.1923
   73MOL   H23923423   1.641   4.271   6.452 -3.2676 -1.0221  0.8683
   73MOL   H24023424   2.218   4.592   6.644  1.1663 -3.0827 -1.7643
   73MOL   H24123425   2.180   4.573   6.797 -0.7179  3.3218 -1.6370
   73MOL   C24223426   2.172   4.386   6.712  0.5154 -0.4082  0.1051
   73MOL   O24323427   2.313   4.366   6.734 -0.1211 -0.2366  0.1782
   73MOL   C24423428   2.381   4.311   6.624 -0.2704 -0.2211 -0.5202
   73MOL   C24523429   2.495   4.236   6.685 -0.1793 -0.5312  0.3648
   73MOL   C24623430   2.467   4.118   6.787 -0.1087  0.5575  0.6137
   73MOL   C24723431   2.085   4.310   6.815 -0.8427 -0.1292 -0.3737
   73MOL   H24823432   2.139   4.362   6.611 -0.0270  1.9949 -0.3372
   73MOL   H24923433   2.327   4.233   6.571 -0.2567 -0.0910 -0.7289
   73MOL   H25023434   2.413   4.388   6.553  2.2074  0.0224  0.7761
   73MOL   H25123435   2.569   4.310   6.715  0.2096 -0.7551 -0.0257
   73MOL   H25223436   2.554   4.194   6.603  0.0774  0.5500 -0.0118
   73MOL   H25323437   2.443   4.031   6.726 -0.9439  1.9638 -1.0968
   73MOL   H25423438   2.391   4.142   6.862 -1.5244  4.0588 -1.7916
   73MOL   H25523439   2.551   4.100   6.853  0.7029 -0.1728 -0.5996
   73MOL   H25623440   2.114   4.335   6.917  3.4497  0.7330 -1.7272
   73MOL   H25723441   1.980   4.341   6.806 -1.4676 -1.2026  2.6221
   73MOL   C25823442   2.080   4.152   6.809  0.7583 -0.4761  0.7872
   73MOL   O25923443   2.014   4.100   6.928  0.2636 -0.6787 -0.6567
   73MOL   C26023444   2.081   4.130   7.058  0.6152  0.0033  0.5943
   73MOL   C26123445   2.047   4.028   7.164  0.2267 -0.0520 -0.9529
   73MOL   C26223446   2.080   3.884   7.121  0.2799  0.0894  0.2964
   73MOL   C26323447   2.018   4.099   6.683 -0.4493 -0.3817 -0.4152
   73MOL   H26423448   2.181   4.117   6.832  1.2423 -0.7815 -1.6181
   73MOL   H26523449   2.187   4.106   7.050  0.4549 -0.5543  0.0822
   73MOL   H26623450   2.058   4.227   7.102  1.3065  0.0067  0.9520
   73MOL   H26723451   1.939   4.027   7.181  0.2828  3.8212  0.1633
   73MOL   H26823452   2.096   4.055   7.257  0.8470 -0.3688 -1.1901
   73MOL   H26923453   2.074   3.817   7.206 -0.4634  0.4229  0.5097
   73MOL   H27023454   2.186   3.879   7.093  0.4946 -0.3184  1.1857
   73MOL   H27123455   2.017   3.847   7.041 -1.1220  2.7362  0.1199
   73MOL   H27223456   1.910   4.089   6.695 -0.2314  0.7128  2.8567
   73MOL   H27323457   2.036   4.165   6.598  2.2516  0.7511  0.9825
   73MOL   C27423458   2.067   3.959   6.639 -0.6803 -0.7499  0.0388
   73MOL   O27523459   2.209   3.969   6.608 -0.1794  0.5880 -0.0086
   73MOL   C27623460   2.239   3.929   6.476 -0.5002  0.1345  0.5058
   73MOL   C27723461   2.393   3.951   6.449 -0.3375 -0.2846  0.1556
   73MOL   C27823462   2.428   3.903   6.307  0.1851  1.3783 -0.0924
   73MOL   C27923463   2.039   3.850   6.741 -0.2647 -0.1996 -0.9497
   73MOL   H28023464   2.007   3.923   6.555 -2.8744 -0.7567  1.5823
   73MOL   H28123465   2.225   3.822   6.467 -0.3472  0.3003 -2.2448
   73MOL   H28223466   2.170   3.980   6.409 -2.8405 -0.1269  2.6435
   73MOL   H28323467   2.445   3.897   6.527 -0.5051 -0.6620  0.0061
   73MOL   H28423468   2.408   4.058   6.461 -0.6696 -0.1454 -0.6597
   73MOL   H28523469   2.376   3.953   6.225  3.1570  3.1625 -0.9718
   73MOL   H28623470   2.410   3.798   6.284  1.9990  0.9671  0.2894
   73MOL   H28723471   2.533   3.920   6.283  0.4636  2.3390  1.7537
   73MOL   H28823472   2.090   3.876   6.834 -0.9399  1.9751 -1.1597
   73MOL   H28923473   1.934   3.826   6.750 -0.3715 -0.0184 -1.6943
   73MOL   C29023474   2.123   3.719   6.717  0.0906  0.0201 -0.6531
   73MOL   O29123475   2.124   3.652   6.841  0.0382 -0.9035 -0.3991
   73MOL   C29223476   2.241   3.622   6.897 -0.1659  0.3956 -0.3392
   73MOL   C29323477   2.217   3.521   7.019  0.2301 -0.5844 -0.2087
   73MOL   C29423478   2.153   3.397   6.960  0.5331  0.3831 -0.1767
   73MOL   C29523479   2.061   3.634   6.607 -0.1332 -0.1052  0.0442
   73MOL   H29623480   2.225   3.743   6.686  0.5341 -0.1569  0.6392
   73MOL   H29723481   2.310   3.582   6.823 -1.4439  1.2375 -2.0149
   73MOL   H29823482   2.296   3.712   6.926  0.6160 -0.3641  0.6000
   73MOL   H29923483   2.155   3.567   7.096  0.9105  0.7908 -0.4531
   73MOL   H30023484   2.307   3.502   7.077 -1.4593  2.3999  3.6095
   73MOL   H30123485   2.131   3.328   7.041 -0.3897 -0.8664 -1.4698
   73MOL   H30223486   2.215   3.350   6.885 -0.5646 -1.3913 -0.0164
   73MOL   H30323487   2.054   3.424   6.923 -0.4050 -1.2933  1.0690
   73MOL   H30423488   1.957   3.607   6.626  0.5187 -2.7361  0.1502
   73MOL   H30523489   2.069   3.695   6.517  0.6881 -0.2366  0.0299
   73MOL   C30623490   2.139   3.502   6.576  0.2551 -0.3428  0.3567
   73MOL   O30723491   2.055   3.434   6.486 -0.1722  0.1709  0.1123
   73MOL   C30823492   2.075   3.291   6.486 -0.5260  0.0976 -0.5174
   73MOL   C30923493   2.001   3.228   6.369 -0.4902 -0.1298 -0.0935
   73MOL   C31023494   1.858   3.272   6.344  0.7079 -0.3258 -0.4833
   73MOL   C31123495   2.277   3.528   6.518 -0.0177 -0.3641  0.1718
   73MOL   H31223496   2.153   3.444   6.668 -0.1483 -0.4806  0.3321
   73MOL   H31323497   2.184   3.284   6.479 -0.5247  1.4511 -2.0404
   73MOL   H31423498   2.058   3.242   6.582  1.9401  2.2679  1.1021
   73MOL   H31523499   1.995   3.121   6.389 -1.0325  0.0642  0.8140
   73MOL   H31623500   2.059   3.223   6.277 -1.7105  0.4470 -0.9079
   73MOL   H31723501   1.845   3.374   6.309 -2.8357 -0.7884 -0.6960
   73MOL   H31823502   1.797   3.267   6.434  1.6665 -1.3625  0.1166
   73MOL   H31923503   1.814   3.212   6.263  0.9481  0.4285 -1.1802
   73MOL   H32023504   2.274   3.596   6.433  1.5888  0.7835  1.0283
   73MOL   H32123505   2.338   3.573   6.596  0.7337 -0.9931 -0.0421
   73MOL   H32223506   2.323   3.438   6.476 -2.2543 -0.4227 -2.3203
   74MOL     C123507   7.268   1.957   6.773  0.6838 -0.0059 -0.4413
   74MOL     O223508   7.300   2.096   6.782 -0.4105  0.0690  0.1893
   74MOL     C323509   7.421   2.129   6.716  0.2775  0.3470  1.3805
   74MOL     C423510   7.468   2.275   6.731 -0.1744 -0.1594  0.0547
   74MOL     C523511   7.465   2.308   6.873 -0.3869 -0.1560  0.0533
   74MOL     C623512   7.137   1.931   6.846 -0.5783 -0.2476  0.3055
   74MOL     H723513   7.352   1.906   6.822  0.2099 -0.6339 -0.2744
   74MOL     H823514   7.495   2.057   6.751  0.3057  0.6501  1.9506
   74MOL     H923515   7.412   2.115   6.609  0.7267 -0.2751  1.4181
   74MOL    H1023516   7.407   2.344   6.673  0.6330 -1.4151 -2.3829
   74MOL    H1123517   7.570   2.289   6.695 -0.1672 -1.1467 -0.3462
   74MOL    H1223518   7.519   2.245   6.944  0.0469 -0.6510 -0.7179
   74MOL    H1323519   7.369   2.335   6.917 -0.5118  0.1256 -0.3881
   74MOL    H1423520   7.513   2.401   6.902 -1.2539  0.0308  0.9338
   74MOL    H1523521   7.145   1.991   6.937 -1.5824  0.1756  0.1195
   74MOL    H1623522   7.056   1.987   6.800  1.3264  2.1721 -0.2009
   74MOL    H1723523   7.268   1.919   6.671  1.1978 -0.9443 -0.0984
   74MOL    C1823524   7.085   1.783   6.864  0.1321 -0.5451 -0.4585
   74MOL    O1923525   7.063   1.721   6.737  0.4488  0.1044  0.5430
   74MOL    C2023526   6.945   1.757   6.668  0.1636 -0.2878  0.0436
   74MOL    C2123527   6.938   1.672   6.537 -0.4546 -0.3108  0.6207
   74MOL    C2223528   7.044   1.698   6.436 -0.5366 -0.3459  0.3371
   74MOL    C2323529   7.179   1.695   6.934  0.2784  0.0291 -0.0204
   74MOL    H2423530   6.990   1.778   6.917  0.5287 -0.0211  0.3255
   74MOL    H2523531   6.851   1.749   6.724 -1.2839  1.6899 -1.9670
   74MOL    H2623532   6.942   1.865   6.652 -0.4843 -0.3011  0.0427
   74MOL    H2723533   6.837   1.674   6.495 -0.5217  1.9083  0.8186
   74MOL    H2823534   6.950   1.567   6.562  1.2459 -0.6500 -1.5597
   74MOL    H2923535   7.053   1.609   6.375  1.5918  0.2433 -0.2535
   74MOL    H3023536   7.136   1.707   6.494  0.5585  0.1132 -1.4242
   74MOL    H3123537   7.021   1.791   6.384 -0.0666 -0.8388 -0.7650
   74MOL    H3223538   7.126   1.599   6.926 -0.6371  0.5471 -0.3145
   74MOL    H3323539   7.263   1.703   6.865 -0.0312 -1.4135 -0.5905
   74MOL    C3423540   7.214   1.712   7.083  0.3200 -0.4013  0.7315
   74MOL    O3523541   7.090   1.676   7.146 -0.8955 -0.5152 -0.3967
   74MOL    C3623542   7.070   1.752   7.259 -0.1973  0.5565 -0.1047
   74MOL    C3723543   6.945   1.697   7.317  0.0774  0.0712 -0.5737
   74MOL    C3823544   6.896   1.758   7.453  0.6326 -0.4501 -0.5099
   74MOL    C3923545   7.327   1.619   7.137  0.5713  0.5631 -0.2424
   74MOL    H4023546   7.232   1.819   7.093 -0.3526 -0.1644 -0.5403
   74MOL    H4123547   7.158   1.761   7.321  0.3865 -0.5165 -0.7646
   74MOL    H4223548   7.053   1.853   7.222  2.7765  1.1626  0.0481
   74MOL    H4323549   6.938   1.588   7.314 -0.4476  0.0671  0.4509
   74MOL    H4423550   6.862   1.719   7.251 -0.3406 -1.7043 -0.6639
   74MOL    H4523551   6.880   1.865   7.459  0.1740 -0.4671 -1.3940
   74MOL    H4623552   6.971   1.744   7.531  2.2916 -0.1255 -2.0144
   74MOL    H4723553   6.801   1.716   7.486  0.9414 -0.3040  0.5849
   74MOL    H4823554   7.325   1.628   7.246  0.8958  0.2647 -0.2107
   74MOL    H4923555   7.300   1.514   7.122 -3.2491  1.5671 -0.9503
   74MOL    C5023556   7.467   1.660   7.083  1.0147 -0.2464  0.1722
   74MOL    O5123557   7.500   1.766   7.167  0.1813 -0.9459  0.4655
   74MOL    C5223558   7.628   1.814   7.153 -0.4399  0.2996  0.0577
   74MOL    C5323559   7.641   1.941   7.233  0.4096  0.5663 -0.7051
   74MOL    C5423560   7.782   1.994   7.232  0.3122  0.2527 -0.9825
   74MOL    C5523561   7.566   1.537   7.087 -0.4782  0.1716  0.3342
   74MOL    H5623562   7.457   1.690   6.979  0.0549  0.1198  0.3676
   74MOL    H5723563   7.699   1.736   7.181 -2.4923 -1.8987 -0.6169
   74MOL    H5823564   7.646   1.831   7.047  0.1261 -1.6937 -0.1797
   74MOL    H5923565   7.608   1.908   7.332 -1.1269  0.5454 -1.2153
   74MOL    H6023566   7.576   2.021   7.196  1.1197  0.8749 -1.2942
   74MOL    H6123567   0.023   1.912   7.250  0.8697  1.2246  1.4358
   74MOL    H6223568   7.791   2.065   7.315 -0.5288 -0.4991 -0.2445
   74MOL    H6323569   7.809   2.050   7.142  2.3970  1.9463  0.6479
   74MOL    H6423570   7.667   1.574   7.065 -1.0418  1.1573 -0.6032
   74MOL    H6523571   7.574   1.510   7.193 -0.0372  1.0585  0.5383
   74MOL    C6623572   7.524   1.422   7.000  0.5292  0.6101  0.2658
   74MOL    O6723573   7.486   1.461   6.870  0.2896 -0.7055 -0.0370
   74MOL    C6823574   7.374   1.388   6.811  0.2779  0.4087 -0.5818
   74MOL    C6923575   7.355   1.423   6.664  0.1515 -0.2882  0.7349
   74MOL    C7023576   7.233   1.377   6.588  0.4067  0.1433 -0.8846
   74MOL    C7123577   7.643   1.332   6.971  0.7269 -0.0712  0.4642
   74MOL    H7223578   7.445   1.363   7.046  1.4270 -1.0486 -0.2772
   74MOL    H7323579   7.377   1.279   6.821  0.2367  0.4002 -0.6610
   74MOL    H7423580   7.283   1.418   6.862  0.1000  0.4614 -0.9243
   74MOL    H7523581   7.438   1.377   6.610 -0.4117 -0.5272  0.0709
   74MOL    H7623582   7.364   1.531   6.656 -2.6910 -0.0016  1.0757
   74MOL    H7723583   7.134   1.395   6.630  0.6989  1.3431 -0.7030
   74MOL    H7823584   7.231   1.268   6.578  0.2880  0.2821 -2.6170
   74MOL    H7923585   7.235   1.411   6.484  0.9353 -1.2040 -1.3315
   74MOL    H8023586   7.615   1.243   6.914  0.1015  0.3366  0.1368
   74MOL    H8123587   7.714   1.382   6.905 -1.4879 -0.7780 -2.5468
   74MOL    C8223588   7.714   1.277   7.100  0.2816  0.1647  0.4920
   74MOL    O8323589   7.608   1.231   7.186  0.0579 -0.1467  0.4861
   74MOL    C8423590   7.649   1.179   7.311  0.1426  0.1482 -0.1201
   74MOL    C8523591   7.526   1.130   7.393 -0.1493  0.4691 -0.5651
   74MOL    C8623592   7.442   1.249   7.440 -0.2579  0.0639  0.0335
   74MOL    C8723593   7.803   1.155   7.060  0.6976  0.4376  0.2717
   74MOL    H8823594   7.775   1.355   7.144  1.5706 -0.6023  0.1078
   74MOL    H8923595   7.706   1.088   7.294 -1.0252 -0.5483 -0.4380
   74MOL    H9023596   7.706   1.247   7.374  2.4351  0.0014 -1.9768
   74MOL    H9123597   7.573   1.078   7.476  0.6879  1.4773 -0.3986
   74MOL    H9223598   7.463   1.071   7.326 -1.5671 -0.8113  1.8270
   74MOL    H9323599   7.356   1.237   7.506 -1.5142  1.3168 -1.3229
   74MOL    H9423600   7.402   1.289   7.346  1.7367  0.2364 -0.7671
   74MOL    H9523601   7.503   1.329   7.482 -1.2862  1.0716 -0.3546
   74MOL    H9623602   0.027   1.112   7.145  0.6674  3.0570  1.6681
   74MOL    H9723603   7.743   1.068   7.033  2.1748 -0.2678 -0.7678
   74MOL    C9823604   0.080   1.180   6.959 -0.7961 -1.1721 -0.5276
   74MOL    O9923605   0.209   1.144   7.008 -0.4941  0.4972 -0.4348
   74MOL   C10023606   0.319   1.205   6.938 -0.5100 -0.6477 -0.2748
   74MOL   C10123607   0.449   1.155   6.996  0.2286  1.1213  0.3940
   74MOL   C10223608   0.479   1.215   7.139 -0.0122 -0.0711  0.2941
   74MOL   C10323609   0.055   1.100   6.823  0.3849 -0.3007 -1.2905
   74MOL   H10423610   0.090   1.287   6.940  1.4668 -1.3875 -0.6230
   74MOL   H10523611   0.316   1.182   6.831 -2.9848  1.2054 -0.6437
   74MOL   H10623612   0.308   1.310   6.961  1.6084 -0.7848  1.4729
   74MOL   H10723613   0.525   1.207   6.938 -1.4242  1.9821 -1.0403
   74MOL   H10823614   0.458   1.047   6.991 -0.0712  1.1356 -0.6973
   74MOL   H10923615   0.588   1.215   7.148 -0.0015 -1.4456  0.2261
   74MOL   H11023616   0.424   1.160   7.215  0.0189  0.7836  0.9391
   74MOL   H11123617   0.440   1.316   7.141 -1.3960 -0.6194  2.8102
   74MOL   H11223618   0.137   1.044   6.780  1.4804 -1.4704  2.1356
   74MOL   H11323619   7.811   1.020   6.841  0.7149 -1.0400 -3.1867
   74MOL   C11423620   7.826   1.187   6.708 -0.5185 -0.6807  0.3172
   74MOL   O11523621   0.101   1.278   6.668  0.3964 -0.1001  0.5584
   74MOL   C11623622   0.059   1.412   6.644  1.0551  0.3914 -0.2259
   74MOL   C11723623   0.186   1.495   6.617  0.3150  0.2193  0.3762
   74MOL   C11823624   0.272   1.515   6.748  0.0532  0.1787  0.0239
   74MOL   C11923625   7.799   1.105   6.575 -0.5776 -0.3376  0.6429
   74MOL   H12023626   7.735   1.236   6.743  0.0146  1.3466 -1.0552
   74MOL   H12123627   7.820   1.413   6.558 -0.5760 -1.5263  0.9535
   74MOL   H12223628   0.002   1.443   6.732  0.2453  1.3451 -1.0686
   74MOL   H12323629   0.145   1.593   6.592 -2.0265 -0.9862 -0.6397
   74MOL   H12423630   0.244   1.453   6.534  0.1673 -2.5768  1.6505
   74MOL   H12523631   0.202   1.482   6.825 -1.6862  0.4584 -1.3918
   74MOL   H12623632   0.299   1.620   6.757  0.0116  0.2573 -0.7855
   74MOL   H12723633   0.364   1.457   6.746  0.1800  0.3491  0.7708
   74MOL   H12823634   7.762   1.164   6.491 -0.7820 -0.9113  0.3193
   74MOL   H12923635   0.069   1.060   6.557 -0.8935 -0.2066 -1.5949
   74MOL   C13023636   7.673   1.010   6.573  0.3205  0.0815  0.1142
   74MOL   O13123637   7.705   0.890   6.634 -0.2145  0.5595 -0.8610
   74MOL   C13223638   7.793   0.798   6.568  0.1996 -0.5757  0.2656
   74MOL   C13323639   7.785   0.657   6.618 -0.3974  0.7085 -0.2962
   74MOL   C13423640   7.786   0.642   6.772  1.0583 -0.6032  0.0660
   74MOL   C13523641   7.553   1.063   6.643 -0.7084 -0.7503 -0.1399
   74MOL   H13623642   7.642   0.984   6.472 -2.0246 -0.3323  0.9205
   74MOL   H13723643   7.775   0.810   6.461 -0.6862  0.5805  0.5250
   74MOL   H13823644   0.063   0.828   6.604  0.6360 -1.0510 -0.5335
   74MOL   H13923645   0.040   0.602   6.574 -1.2842 -1.1740  0.3222
   74MOL   H14023646   7.697   0.603   6.581  0.0136  1.2840 -2.1571
   74MOL   H14123647   0.048   0.687   6.815  0.8044 -0.7141  0.7212
   74MOL   H14223648   7.770   0.541   6.809 -0.1660  0.0598  1.3667
   74MOL   H14323649   7.712   0.701   6.827  1.4760  0.3645 -0.3896
   74MOL   H14423650   7.573   1.077   6.749 -0.1028  0.6577 -0.4406
   74MOL   H14523651   7.522   1.158   6.602  3.1161  0.7579  0.2601
   74MOL   C14623652   7.428   0.965   6.637 -0.2959  0.5509  0.7081
   74MOL   O14723653   7.330   1.016   6.732 -0.1980 -0.1542  0.5060
   74MOL   C14823654   7.342   0.954   6.857  0.3069 -0.3100 -0.8644
   74MOL   C14923655   7.210   0.993   6.933 -0.2718  0.2678  0.5020
   74MOL   C15023656   7.090   0.919   6.877 -0.6911 -0.2408 -0.4040
   74MOL   C15123657   7.369   0.960   6.489 -0.0124  0.4062  0.1614
   74MOL   H15223658   7.451   0.860   6.656  0.4719  0.3691 -1.1018
   74MOL   H15323659   7.336   0.846   6.844 -2.2919 -0.1013 -1.8266
   74MOL   H15423660   7.434   0.979   6.909  1.4166 -1.8498 -2.0459
   74MOL   H15523661   7.197   1.100   6.943  0.9848  0.6307 -1.4770
   74MOL   H15623662   7.218   0.957   7.036 -0.7951 -2.8357 -0.4654
   74MOL   H15723663   7.088   0.827   6.936 -0.4768 -0.3324 -0.5393
   74MOL   H15823664   7.105   0.897   6.772  2.6834 -2.1210  0.3848
   74MOL   H15923665   7.001   0.970   6.912 -0.7582  0.2908 -1.3567
   74MOL   H16023666   7.329   1.057   6.458  1.0941  0.8847  0.2142
   74MOL   H16123667   7.450   0.926   6.424  1.4842  2.0660  1.1209
   74MOL   C16223668   7.244   0.864   6.469 -0.1199  0.1544 -0.6069
   74MOL   O16323669   7.147   0.945   6.403  0.0839 -0.1361  0.0973
   74MOL   C16423670   7.054   1.014   6.482  0.0036  0.7368 -0.5230
   74MOL   C16523671   6.996   1.127   6.398  0.3633 -0.5560 -0.1292
   74MOL   C16623672   6.894   1.202   6.474 -0.3941 -0.0343 -0.1599
   74MOL   C16723673   7.271   0.740   6.370 -0.3110  0.5744 -0.0335
   74MOL   H16823674   7.209   0.831   6.567  1.7802 -1.6098 -0.4936
   74MOL   H16923675   6.973   0.947   6.510  0.8203 -0.0377  0.0327
   74MOL   H17023676   7.099   1.045   6.576  2.1877 -1.2730 -0.8566
   74MOL   H17123677   6.958   1.077   6.309  2.2918  0.1968 -1.4164
   74MOL   H17223678   7.073   1.193   6.358  1.0937  0.4045  2.7111
   74MOL   H17323679   6.932   1.256   6.561 -1.2089 -1.6048  1.2000
   74MOL   H17423680   6.825   1.135   6.525 -1.9519  0.8668 -1.0513
   74MOL   H17523681   6.822   1.268   6.425 -0.2534  0.2373 -0.0081
   74MOL   H17623682   7.300   0.776   6.271  1.8998  0.8855  0.6873
   74MOL   H17723683   7.353   0.681   6.411 -0.5850  0.2488  0.0426
   74MOL   C17823684   7.142   0.652   6.351 -0.4264  0.0008  0.2630
   74MOL   O17923685   7.132   0.602   6.219  0.3256  0.0808 -0.1222
   74MOL   C18023686   7.039   0.673   6.147 -0.4067  0.2244 -0.8888
   74MOL   C18123687   7.064   0.643   6.008 -0.1113  0.0517  0.2505
   74MOL   C18223688   7.203   0.657   5.950 -0.5414  0.0568 -0.3899
   74MOL   C18323689   7.165   0.532   6.448 -0.2652  0.0364  0.5553
   74MOL   H18423690   7.052   0.710   6.373 -1.5328 -0.3585 -3.0938
   74MOL   H18523691   6.939   0.646   6.180 -1.5761  3.7685 -1.3490
   74MOL   H18623692   7.064   0.776   6.170 -0.1540 -0.0604  0.1373
   74MOL   H18723693   6.995   0.700   5.946  0.7970 -0.9823 -1.7576
   74MOL   H18823694   7.026   0.541   6.000  0.1363  0.1231 -2.6037
   74MOL   H18923695   7.261   0.735   5.999  1.4433 -1.7566  0.2398
   74MOL   H19023696   7.209   0.679   5.844  1.0622  0.8241 -0.1612
   74MOL   H19123697   7.253   0.561   5.963 -0.0288  0.2843 -0.6574
   74MOL   H19223698   7.242   0.467   6.408 -0.7879 -0.0982 -0.2374
   74MOL   H19323699   7.214   0.557   6.542  3.3180 -1.7632 -0.7332
   74MOL   C19423700   7.040   0.445   6.479 -0.0372  0.1497 -0.9639
   74MOL   O19523701   7.080   0.320   6.529  0.1141  0.1634  0.4040
   74MOL   C19623702   7.126   0.227   6.435 -0.2687 -0.9753 -0.4723
   74MOL   C19723703   7.140   0.097   6.512  0.2076  0.2928 -0.3662
   74MOL   C19823704   7.004   0.062   6.578  0.7265 -0.2162 -0.9398
   74MOL   C19923705   6.951   0.517   6.582  0.5507 -0.3177  0.1676
   74MOL   H20023706   6.982   0.433   6.388  0.1705  0.4731 -1.1421
   74MOL   H20123707   7.059   0.220   6.349 -1.0978 -0.4629  0.1210
   74MOL   H20223708   7.224   0.253   6.394 -0.5800  0.8157 -0.1579
   74MOL   H20323709   7.220   0.098   6.586  0.1104 -0.3058 -0.2573
   74MOL   H20423710   7.183   0.022   6.447  1.1289  0.3758  0.1386
   74MOL   H20523711   6.914   0.049   6.517 -0.0899 -2.1793  0.6168
   74MOL   H20623712   6.973   0.145   6.642 -0.0529 -1.0228 -0.2587
   74MOL   H20723713   7.013   7.800   6.638  0.2582  1.4110  1.6673
   74MOL   H20823714   7.007   0.541   6.673  0.9627 -0.8946  0.0612
   74MOL   H20923715   6.914   0.615   6.551 -0.3823 -0.0990  1.8721
   74MOL   C21023716   6.826   0.429   6.627 -0.3640 -0.0403  0.0211
   74MOL   O21123717   6.783   0.502   6.739 -0.4846  0.4997  0.2674
   74MOL   C21223718   6.811   0.449   6.873 -0.0647 -0.3133 -0.6294
   74MOL   C21323719   6.781   0.555   6.981  0.4814 -0.7920 -0.9465
   74MOL   C21423720   6.821   0.509   7.125 -0.0401  0.1856  0.2126
   74MOL   C21523721   6.722   0.402   6.515 -0.4258 -0.5175 -0.2466
   74MOL   H21623722   6.857   0.334   6.669 -2.8671 -0.3276  1.3085
   74MOL   H21723723   6.750   0.362   6.896 -0.5899  0.3689  0.6414
   74MOL   H21823724   6.919   0.432   6.872 -0.2565 -1.7347  0.4986
   74MOL   H21923725   6.676   0.584   6.967  0.4676 -0.4043 -0.0627
   74MOL   H22023726   6.830   0.651   6.965 -0.1523  0.0027  1.7181
   74MOL   H22123727   6.930   0.516   7.129 -0.1306  0.9710  1.8748
   74MOL   H22223728   6.809   0.403   7.145 -1.5502  0.2181 -0.4902
   74MOL   H22323729   6.770   0.565   7.203  0.0868 -1.6964  1.6793
   74MOL   H22423730   6.700   0.490   6.453  2.1048  0.5543  0.3185
   74MOL   H22523731   6.773   0.332   6.448  1.4363 -0.5538  1.1753
   74MOL   C22623732   6.593   0.344   6.562  0.0608 -0.2008  0.5873
   74MOL   O22723733   6.495   0.357   6.463  0.4375 -0.9705  0.2701
   74MOL   C22823734   6.432   0.486   6.462  0.8352  0.0043 -0.5487
   74MOL   C22923735   6.298   0.481   6.383 -0.3578  0.2076 -0.0385
   74MOL   C23023736   6.317   0.468   6.226  1.0448  0.3982 -0.6652
   74MOL   C23123737   6.617   0.190   6.605 -0.0532  0.7707 -0.2316
   74MOL   H23223738   6.557   0.397   6.650 -1.0765  2.4645 -1.4263
   74MOL   H23323739   6.402   0.511   6.564 -0.8709 -3.0179 -0.2452
   74MOL   H23423740   6.489   0.574   6.434  0.0710 -0.1236 -2.6071
   74MOL   H23523741   6.240   0.568   6.412  1.0448  1.0914  0.1092
   74MOL   H23623742   6.234   0.401   6.422 -0.2802  0.5724  0.8326
   74MOL   H23723743   6.411   0.514   6.197  1.5357  0.0979  0.4240
   74MOL   H23823744   6.226   0.502   6.177  1.0095  1.8533  0.3628
   74MOL   H23923745   6.319   0.364   6.194 -0.2238  0.2993 -0.4537
   74MOL   H24023746   6.671   0.144   6.522 -0.3241 -1.9301  1.0397
   74MOL   H24123747   6.691   0.179   6.684  0.2735 -2.1402 -0.8718
   74MOL   C24223748   6.482   0.111   6.623 -0.4261 -0.1684  0.6425
   74MOL   O24323749   6.500   7.800   6.646  0.7532  0.3016  0.3302
   74MOL   C24423750   6.533   7.732   6.523  0.0894  0.2065 -0.3447
   74MOL   C24523751   6.535   7.590   6.555  0.0010 -0.0684  0.0520
   74MOL   C24623752   6.564   7.504   6.430 -0.2795 -0.5942  1.0499
   74MOL   C24723753   6.399   0.164   6.747 -0.1381 -0.2598  0.0454
   74MOL   H24823754   6.421   0.131   6.535 -0.1553 -1.0198  0.2554
   74MOL   H24923755   6.458   7.750   6.445 -1.8650  1.8099  1.8297
   74MOL   H25023756   6.631   7.768   6.492  0.7159 -1.7433 -0.6800
   74MOL   H25123757   6.438   7.557   6.593  0.0360  0.3695  0.5325
   74MOL   H25223758   6.608   7.581   6.636 -0.1691  0.7254  0.3003
   74MOL   H25323759   6.584   7.399   6.455  1.3128 -0.0204  2.2995
   74MOL   H25423760   6.654   7.539   6.380 -0.4408 -0.4696  0.8513
   74MOL   H25523761   6.485   7.499   6.355  1.4218  0.3104 -0.8267
   74MOL   H25623762   6.458   0.153   6.838 -1.3298 -0.4757  0.8050
   74MOL   H25723763   6.380   0.270   6.732  1.1272 -0.2044 -1.2079
   74MOL   C25823764   6.260   0.114   6.774 -0.1171 -0.7129  0.5926
   74MOL   O25923765   6.191   0.192   6.869 -0.2144 -0.1613 -0.1224
   74MOL   C26023766   6.226   0.164   7.004  0.5079  0.0457  0.0510
   74MOL   C26123767   6.118   0.240   7.090 -0.4241  0.0224 -0.2060
   74MOL   C26223768   5.987   0.166   7.090 -0.3491  0.8531  0.2242
   74MOL   C26323769   6.163   0.127   6.644  0.1241 -0.1285  0.2603
   74MOL   H26423770   6.268   0.010   6.808 -2.2524 -0.3498  2.3324
   74MOL   H26523771   6.223   0.058   7.030  1.6971 -0.9697 -3.6175
   74MOL   H26623772   6.329   0.192   7.025  2.1451 -5.6680  0.4521
   74MOL   H26723773   6.115   0.346   7.062  0.9008  0.1231  0.0318
   74MOL   H26823774   6.158   0.246   7.191 -2.0561 -3.9094  0.7582
   74MOL   H26923775   5.996   0.065   7.129  2.0351  1.1747  0.5551
   74MOL   H27023776   5.947   0.149   6.990 -0.0622  0.3975  0.1889
   74MOL   H27123777   5.917   0.209   7.162  1.2406 -0.1655  2.4303
   74MOL   H27223778   6.143   0.233   6.630  1.7200  0.4909  2.3631
   74MOL   H27323779   6.218   0.096   6.555  0.7349  1.5706  0.0231
   74MOL   C27423780   6.028   0.059   6.652  0.1822 -0.2007  0.0107
   74MOL   O27523781   5.932   0.145   6.593 -0.2749 -0.0352  0.4038
   74MOL   C27623782   5.886   0.250   6.682 -0.4568 -0.5121  0.7438
   74MOL   C27723783   5.851   0.374   6.594  0.1919  0.3681 -0.3798
   74MOL   C27823784   5.717   0.373   6.531  0.0446  0.0436 -0.4042
   74MOL   C27923785   6.006   7.763   6.567 -0.0537  0.0771 -0.1242
   74MOL   H28023786   5.999   0.036   6.755  0.5838  0.8681  0.3603
   74MOL   H28123787   5.808   0.217   6.751 -0.5398  0.3122  1.0533
   74MOL   H28223788   5.970   0.278   6.746  1.8008 -2.7129 -1.1645
   74MOL   H28323789   5.930   0.388   6.520  0.5855 -1.0160 -0.2248
   74MOL   H28423790   5.868   0.458   6.662  0.9118  1.2668 -1.6621
   74MOL   H28523791   5.719   0.309   6.443  0.4852 -1.8507  0.9574
   74MOL   H28623792   5.694   0.473   6.493  1.1782  0.2305 -0.5997
   74MOL   H28723793   5.641   0.340   6.601  1.5220  0.2771  1.3252
   74MOL   H28823794   5.902   7.732   6.581  0.4022 -0.2884  2.7465
   74MOL   H28923795   6.014   7.782   6.460 -1.1158 -0.7657 -0.3708
   74MOL   C29023796   6.105   7.650   6.619  0.2175 -0.1078  0.9708
   74MOL   O29123797   6.063   7.621   6.754  0.1944 -0.1705  0.2401
   74MOL   C29223798   6.155   7.546   6.829  0.2959  0.1096 -0.3090
   74MOL   C29323799   6.092   7.514   6.965  0.2386 -0.2024 -0.3420
   74MOL   C29423800   6.081   7.644   7.061  0.4558 -0.3377  0.6922
   74MOL   C29523801   6.097   7.531   6.525 -0.1270  0.1755 -1.0962
   74MOL   H29623802   6.202   7.698   6.606 -0.5138  1.5646  1.5094
   74MOL   H29723803   6.181   7.457   6.772  1.3911  0.3396 -0.1861
   74MOL   H29823804   6.243   7.607   6.849  2.3977 -1.2779 -4.6984
   74MOL   H29923805   6.142   7.433   7.019  0.7439 -0.7060 -1.5461
   74MOL   H30023806   5.995   7.469   6.946  1.2943 -2.5323 -0.3746
   74MOL   H30123807   6.024   7.621   7.151 -0.7507  2.7256  0.7997
   74MOL   H30223808   6.046   7.728   7.000 -0.1146 -1.7138 -0.9060
   74MOL   H30323809   6.185   7.667   7.087  0.8256 -0.4783 -0.6119
   74MOL   H30423810   6.175   7.463   6.561 -0.4218  1.1138  1.4838
   74MOL   H30523811   6.011   7.467   6.544  0.3977 -0.1572  0.2831
   74MOL   C30623812   6.098   7.566   6.375 -0.6280  0.2933 -0.3442
   74MOL   O30723813   6.202   7.663   6.350 -0.1536 -0.5188 -0.1989
   74MOL   C30823814   6.181   7.722   6.224 -0.0366  0.6088  0.2897
   74MOL   C30923815   6.304   7.800   6.189 -0.3416 -0.4696  0.0363
   74MOL   C31023816   6.414   7.715   6.121  0.1638  0.4401  0.0230
   74MOL   C31123817   6.128   7.435   6.303 -0.0227  0.6699 -0.0567
   74MOL   H31223818   6.000   7.605   6.348 -0.9605  1.7375  2.6920
   74MOL   H31323819   6.161   7.654   6.142  0.1000  1.0993 -0.1530
   74MOL   H31423820   6.096   7.789   6.234  0.1463  1.1477 -1.6943
   74MOL   H31523821   6.354   0.019   6.274 -1.1409 -2.6492  1.7449
   74MOL   H31623822   6.287   0.053   6.118 -0.7464  1.1308  1.9170
   74MOL   H31723823   6.471   7.642   6.178  2.4522 -0.1653 -2.9034
   74MOL   H31823824   6.486   7.771   6.061  0.8215  2.0018  2.1941
   74MOL   H31923825   6.367   7.651   6.047 -2.0856 -0.1383  1.8909
   74MOL   H32023826   6.041   7.370   6.309  0.2059  0.4231  0.6052
   74MOL   H32123827   6.160   7.450   6.200 -0.7474  0.7598 -0.2700
   74MOL   H32223828   6.214   7.382   6.343 -1.1868 -0.6120  0.7925
   75MOL     C123829   5.795   4.504   6.876  0.2185  0.4059  0.2015
   75MOL     O223830   5.751   4.569   6.755 -0.0384 -0.2521  0.1568
   75MOL     C323831   5.689   4.478   6.667  0.6996 -0.2334  0.3360
   75MOL     C423832   5.627   4.554   6.543  0.4806 -0.3604 -0.1975
   75MOL     C523833   5.541   4.465   6.452 -0.0856  0.5290  0.6900
   75MOL     C623834   5.879   4.608   6.945 -0.7050 -0.2764 -0.3581
   75MOL     H723835   5.847   4.409   6.860  0.8771  0.7532  0.2913
   75MOL     H823836   5.764   4.403   6.640  0.1543 -0.0633 -1.7268
   75MOL     H923837   5.612   4.423   6.720  0.7347  0.6132  1.2645
   75MOL    H1023838   5.703   4.588   6.472 -1.3661 -1.1359 -2.6376
   75MOL    H1123839   5.569   4.641   6.573  0.5685  0.0123 -1.0850
   75MOL    H1223840   5.442   4.436   6.487 -0.0970 -1.4125 -0.8817
   75MOL    H1323841   5.594   4.372   6.433 -1.1605 -0.0432  0.4742
   75MOL    H1423842   5.520   4.519   6.360 -1.0914 -0.7456  0.1517
   75MOL    H1523843   5.977   4.633   6.902 -1.0004 -2.2513 -2.3056
   75MOL    H1623844   5.815   4.695   6.950  0.1639  0.3455  0.1962
   75MOL    H1723845   5.705   4.487   6.935 -1.2223 -0.5339 -2.1639
   75MOL    C1823846   5.905   4.561   7.081 -0.6745  0.4860  0.2945
   75MOL    O1923847   6.006   4.457   7.078  0.4833 -0.6727 -0.4937
   75MOL    C2023848   6.021   4.379   7.196  0.3909  0.1539 -0.3431
   75MOL    C2123849   6.079   4.248   7.148  0.4859  0.3068  0.5648
   75MOL    C2223850   5.971   4.167   7.080 -1.0361  0.0920 -0.5239
   75MOL    C2323851   5.954   4.675   7.177  0.0158 -0.3777  0.0317
   75MOL    H2423852   5.807   4.531   7.120 -0.9724  0.5784 -0.3841
   75MOL    H2523853   6.083   4.436   7.266 -3.8153  2.7152  1.5099
   75MOL    H2623854   5.923   4.376   7.244  1.8879 -1.1403  2.8201
   75MOL    H2723855   6.124   4.185   7.224 -0.0380 -0.5172  0.1982
   75MOL    H2823856   6.165   4.273   7.086 -1.2013 -0.6549 -2.2785
   75MOL    H2923857   5.906   4.216   7.007 -1.2497 -0.4987 -0.7356
   75MOL    H3023858   5.905   4.139   7.162 -1.9710 -1.0572 -1.6550
   75MOL    H3123859   6.016   4.084   7.026  0.2534  1.0957 -1.0318
   75MOL    H3223860   5.872   4.744   7.198 -1.0514 -1.5324 -0.2574
   75MOL    H3323861   5.975   4.626   7.272 -0.5225 -2.1551 -0.7512
   75MOL    C3423862   6.086   4.750   7.142  0.3039  0.0709 -0.3749
   75MOL    O3523863   6.064   4.834   7.033 -0.2490 -0.0416  0.7889
   75MOL    C3623864   6.177   4.843   6.945 -1.1484  0.3546  0.2802
   75MOL    C3723865   6.144   4.956   6.840  0.0802  0.0050 -0.3562
   75MOL    C3823866   6.266   4.979   6.745  0.3221  0.5717  0.2482
   75MOL    C3923867   6.140   4.833   7.252 -0.0410 -0.1531 -0.0402
   75MOL    H4023868   6.163   4.675   7.124  0.4503 -0.2417  1.4979
   75MOL    H4123869   6.273   4.860   6.994 -0.1464 -3.0702 -0.3662
   75MOL    H4223870   6.193   4.747   6.895 -1.9160  0.6770 -0.6065
   75MOL    H4323871   6.141   5.050   6.894  2.3634  0.3971 -0.8439
   75MOL    H4423872   6.052   4.931   6.788  0.3743 -0.4295 -0.6739
   75MOL    H4523873   6.254   5.047   6.661  2.2304 -2.4164 -2.5316
   75MOL    H4623874   6.302   4.888   6.697 -2.1501 -0.6530  0.6290
   75MOL    H4723875   6.351   5.006   6.808 -1.4728  2.5605  1.8916
   75MOL    H4823876   6.215   4.898   7.207 -0.3054  0.6456  0.6631
   75MOL    H4923877   6.056   4.888   7.296  0.3148  0.9964 -0.7784
   75MOL    C5023878   6.217   4.748   7.362 -0.0013  0.6751  0.2429
   75MOL    O5123879   6.343   4.706   7.313  0.3216 -0.1524  0.3337
   75MOL    C5223880   6.377   4.573   7.344 -1.5394 -0.1535 -0.4401
   75MOL    C5323881   6.489   4.534   7.244  0.7005 -0.5204  0.4305
   75MOL    C5423882   6.435   4.531   7.100  0.4643 -0.4551  0.4997
   75MOL    C5523883   6.251   4.841   7.484  0.1294 -0.4563  0.3412
   75MOL    H5623884   6.165   4.663   7.405 -1.1799  1.4868  0.4483
   75MOL    H5723885   6.401   4.569   7.451  0.9508 -1.4424 -1.0007
   75MOL    H5823886   6.289   4.517   7.313 -0.0716 -2.8602  0.1392
   75MOL    H5923887   6.525   4.438   7.280 -2.3337 -1.5136  0.9668
   75MOL    H6023888   6.578   4.597   7.249  0.7950 -0.6201  0.0613
   75MOL    H6123889   6.519   4.507   7.036  1.1965  0.1614  1.2238
   75MOL    H6223890   6.389   4.623   7.066  1.0362  0.2959  1.7383
   75MOL    H6323891   6.361   4.452   7.085  0.9811 -0.5395 -1.7793
   75MOL    H6423892   6.342   4.809   7.535  0.0181 -0.9936  0.2115
   75MOL    H6523893   6.278   4.938   7.443 -1.5781  0.7102  1.9239
   75MOL    C6623894   6.144   4.868   7.591  0.6224  0.1248  0.3892
   75MOL    O6723895   6.084   4.747   7.634  0.0845  0.5012 -0.0632
   75MOL    C6823896   6.171   4.648   7.689 -0.8850  0.0434 -0.0548
   75MOL    C6923897   6.088   4.562   7.788 -0.0953 -0.7811  0.2163
   75MOL    C7023898   5.974   4.496   7.709 -0.0087  0.2545  0.0495
   75MOL    C7123899   6.175   4.960   7.713 -0.3756 -0.4722 -0.6763
   75MOL    H7223900   6.078   4.924   7.525  1.0088 -2.1091 -1.9856
   75MOL    H7323901   6.221   4.586   7.615  0.3721  0.0588  0.7571
   75MOL    H7423902   6.254   4.689   7.747 -0.5302  0.8338 -1.0982
   75MOL    H7523903   6.043   4.619   0.042  0.1850 -1.0766  0.5726
   75MOL    H7623904   6.161   4.500   0.012 -0.6862 -0.3000  1.6210
   75MOL    H7723905   5.898   4.455   7.775 -1.0225  1.1328 -0.5620
   75MOL    H7823906   6.003   4.423   7.633 -0.1837 -0.2309  0.4443
   75MOL    H7923907   5.913   4.574   7.664 -0.4057  0.5301  1.0677
   75MOL    H8023908   6.087   4.976   7.776 -0.3925  0.9504 -1.0463
   75MOL    H8123909   6.242   4.900   7.775  0.6537 -0.6397 -1.9338
   75MOL    C8223910   6.242   5.095   7.678 -0.0952 -0.3723 -0.4888
   75MOL    O8323911   6.153   5.162   7.590  0.0523  0.1356 -0.0765
   75MOL    C8423912   6.207   5.259   7.491 -0.0273  0.1779 -0.8317
   75MOL    C8523913   6.104   5.270   7.383  0.0373  0.1330 -0.7060
   75MOL    C8623914   6.141   5.385   7.283  0.1356  0.1944  0.2669
   75MOL    C8723915   6.268   5.189   7.798  0.5318  0.0528  0.4697
   75MOL    H8823916   6.343   5.084   7.639  1.2475  2.1861  2.0624
   75MOL    H8923917   6.235   5.354   7.537  0.6920 -0.7653  0.7135
   75MOL    H9023918   6.296   5.201   7.464 -1.0870 -1.2338 -1.3200
   75MOL    H9123919   6.004   5.293   7.421  0.5876  2.7462 -0.7200
   75MOL    H9223920   6.099   5.173   7.334 -1.8313 -0.3155  0.3200
   75MOL    H9323921   6.224   5.343   7.226 -0.6585 -1.0225  0.0031
   75MOL    H9423922   6.152   5.477   7.340 -2.9991  0.7406  0.0803
   75MOL    H9523923   6.058   5.389   7.212  0.1625  2.3038  0.3042
   75MOL    H9623924   6.301   5.281   7.751 -1.1652 -1.1967 -3.4064
   75MOL    H9723925   6.173   5.213   0.016 -0.6093 -1.2258 -1.1655
   75MOL    C9823926   6.377   5.145   0.065  0.1168  0.5855 -0.0498
   75MOL    O9923927   6.499   5.128   7.828  0.5789 -0.2516  0.0546
   75MOL   C10023928   6.546   4.991   7.810 -0.3012 -0.1828 -0.7108
   75MOL   C10123929   6.674   4.992   7.730 -0.3963  0.2852  0.5330
   75MOL   C10223930   6.796   5.049   7.806 -0.2034  0.4165 -0.6134
   75MOL   C10323931   6.402   5.253   0.173  0.2918 -0.6823 -0.2685
   75MOL   H10423932   6.339   5.051   0.104  0.5100  0.0443 -0.9746
   75MOL   H10523933   6.539   4.927   0.071 -0.9568 -0.4273 -0.9413
   75MOL   H10623934   6.464   4.941   7.760 -1.5727  0.4306  0.7179
   75MOL   H10723935   6.648   5.055   7.646 -0.3834  1.4112  1.3621
   75MOL   H10823936   6.680   4.897   7.676  1.0557  0.9781 -0.5642
   75MOL   H10923937   6.890   5.036   7.753  0.6346 -0.0657  0.9647
   75MOL   H11023938   6.813   4.999   0.074 -0.9761  0.5564 -0.4045
   75MOL   H11123939   6.787   5.154   0.003  0.6900  0.1827  0.7842
   75MOL   H11223940   6.422   5.352   0.131  1.1099 -0.2950  1.0058
   75MOL   H11323941   6.314   5.273   0.234 -0.7232 -1.0817 -1.5665
   75MOL   C11423942   6.509   5.210   0.274  0.0946 -0.6589 -0.7435
   75MOL   O11523943   6.506   5.287   0.396 -0.1283  0.2233  0.3104
   75MOL   C11623944   6.579   5.409   0.395  0.4469  0.8629  0.1005
   75MOL   C11723945   6.611   5.454   0.537  0.2175 -0.1921  0.5645
   75MOL   C11823946   6.726   5.370   0.608  0.3387 -0.4165 -0.1799
   75MOL   C11923947   6.499   5.075   0.335  0.5187  0.2466  0.0103
   75MOL   H12023948   6.604   5.207   0.221  0.7621 -2.2058  0.4963
   75MOL   H12123949   6.662   5.411   0.325  0.0244 -0.1919 -0.4336
   75MOL   H12223950   6.512   5.478   0.343  1.3888 -0.2602 -2.6735
   75MOL   H12323951   6.522   5.456   0.601  0.1379  2.1235  0.4230
   75MOL   H12423952   6.634   5.560   0.535  0.4689 -0.2351  0.9569
   75MOL   H12523953   6.713   5.263   0.625 -1.7077  0.0672  1.4907
   75MOL   H12623954   6.763   5.417   0.699 -0.6657  0.0105  0.0176
   75MOL   H12723955   6.815   5.377   0.544  1.4202  0.6001  1.3979
   75MOL   H12823956   6.406   5.082   0.392 -0.2652 -2.0800 -0.9280
   75MOL   H12923957   6.474   5.009   0.252 -0.3608  1.4370 -0.6865
   75MOL   C13023958   6.613   5.025   0.421  0.5653 -0.2426  0.0145
   75MOL   O13123959   6.569   4.903   0.475  0.1868  0.0558 -0.4315
   75MOL   C13223960   6.511   4.909   0.606 -0.0056  0.1887 -0.2848
   75MOL   C13323961   6.490   4.772   0.671 -0.8279  0.6448  0.0105
   75MOL   C13423962   6.622   4.712   0.721  0.0048  0.0444  0.0907
   75MOL   C13523963   6.735   4.992   0.340 -0.0202 -0.2906 -0.3391
   75MOL   H13623964   6.634   5.092   0.504 -0.3981  0.4785 -0.3084
   75MOL   H13723965   6.576   4.965   0.673 -1.9598  0.8595  1.1078
   75MOL   H13823966   6.413   4.957   0.610  0.4084  0.9973  0.1136
   75MOL   H13923967   6.438   4.705   0.602  1.9038  0.1466 -1.6794
   75MOL   H14023968   6.431   4.800   0.757  0.1268 -0.1555  0.9409
   75MOL   H14123969   6.661   4.777   0.800 -0.8344  0.2133  0.3717
   75MOL   H14223970   6.695   4.700   0.641 -2.2410 -3.0108 -1.5895
   75MOL   H14323971   6.608   4.617   0.772 -0.3999 -0.8911 -1.7373
   75MOL   H14423972   6.706   4.934   0.253  2.5131  0.2771 -1.6248
   75MOL   H14523973   6.781   5.083   0.301 -0.0380  0.3123  1.0021
   75MOL   C14623974   6.854   4.936   0.428  0.2017 -0.4763  0.2111
   75MOL   O14723975   6.968   4.939   0.338  0.2940  0.5802  0.5545
   75MOL   C14823976   6.978   4.821   0.259 -0.0562  0.2958  0.3589
   75MOL   C14923977   7.058   4.847   0.131  0.0081 -0.0678 -0.5695
   75MOL   C15023978   7.211   4.846   0.141 -0.3813 -0.5350 -0.0791
   75MOL   C15123979   6.887   5.008   0.558  0.0447 -0.3169  0.5084
   75MOL   H15223980   6.825   4.838   0.465  1.8035 -1.4966 -1.1590
   75MOL   H15323981   7.016   4.735   0.314  0.8596  1.2672  1.2710
   75MOL   H15423982   6.875   4.796   0.234  0.3675 -0.8285 -0.2714
   75MOL   H15523983   7.022   4.943   0.093  0.1793 -0.2747 -1.2614
   75MOL   H15623984   7.025   4.771   0.059  2.3748  0.2833 -2.0531
   75MOL   H15723985   7.263   4.754   0.168  1.4507 -0.2564 -2.3936
   75MOL   H15823986   7.249   4.918   0.213  0.4477 -0.3666 -0.6674
   75MOL   H15923987   7.261   4.876   0.049  2.6702 -0.6938  1.4462
   75MOL   H16023988   6.890   5.115   0.536  1.2662 -0.4832 -0.2162
   75MOL   H16123989   6.808   4.986   0.630  0.5559 -2.5887  0.3978
   75MOL   C16223990   7.027   4.966   0.615 -0.6359  0.4585 -0.2607
   75MOL   O16323991   7.057   5.056   0.727 -0.6432  0.0557  0.1936
   75MOL   C16423992   7.134   5.160   0.690  0.4956 -0.0384 -0.8282
   75MOL   C16523993   7.112   5.272   0.792 -0.3260 -0.0298 -0.4615
   75MOL   C16623994   7.193   5.399   0.762 -0.6184  0.0872  0.7305
   75MOL   C16723995   7.022   4.822   0.675  0.2023 -0.3730 -0.5537
   75MOL   H16823996   7.106   4.965   0.540 -2.6786  0.5050 -2.4934
   75MOL   H16923997   7.242   5.145   0.686  0.8126  2.1187 -0.9243
   75MOL   H17023998   7.099   5.199   0.595  2.4436  2.1416 -0.7225
   75MOL   H17123999   7.147   5.237   0.889 -3.2522  1.6184  1.2401
   75MOL   H17224000   7.006   5.293   0.806 -0.8040 -1.1868 -2.1577
   75MOL   H17324001   7.294   5.374   0.730 -1.2981 -2.5802  0.5707
   75MOL   H17424002   7.195   5.470   0.845  1.1604  0.1313  0.6784
   75MOL   H17524003   7.148   5.445   0.674 -1.8985  0.5181  1.6024
   75MOL   H17624004   6.974   4.840   0.771  0.5855 -1.6158 -0.1216
   75MOL   H17724005   6.950   4.769   0.613 -0.1804 -0.6651  0.1290
   75MOL   C17824006   7.160   4.747   0.687 -0.4225 -0.4731  0.1219
   75MOL   O17924007   7.138   4.630   0.775 -0.0788 -0.0420 -0.2713
   75MOL   C18024008   7.074   4.515   0.717  0.7716 -0.3754  0.3568
   75MOL   C18124009   7.044   4.421   0.834  0.2783  0.9993  0.1618
   75MOL   C18224010   7.157   4.343   0.894  0.3489 -0.3371 -0.3842
   75MOL   C18324011   7.223   4.721   0.547 -0.1208 -0.0274 -0.1931
   75MOL   H18424012   7.233   4.807   0.742  0.6972 -1.2425 -0.4981
   75MOL   H18524013   6.985   4.539   0.659  0.7310 -0.7437  0.2675
   75MOL   H18624014   7.151   4.468   0.655 -0.5657  0.5639 -2.0782
   75MOL   H18724015   6.969   4.356   0.790  0.7149  0.7997 -0.2861
   75MOL   H18824016   6.989   4.483   0.905 -0.5106  1.6284 -0.9844
   75MOL   H18924017   7.202   4.295   0.807  0.9808 -3.1064  1.4166
   75MOL   H19024018   7.132   4.267   0.967  1.6399 -0.5960 -0.2076
   75MOL   H19124019   7.231   4.411   0.935 -0.7783  0.3997  0.4526
   75MOL   H19224020   7.168   4.644   0.492 -0.5752 -0.1057  0.3620
   75MOL   H19324021   7.220   4.807   0.481 -1.2110  1.3674  1.6381
   75MOL   C19424022   7.371   4.668   0.561  0.3875 -0.3617  0.4664
   75MOL   O19524023   7.403   4.616   0.432 -0.0204  0.6216 -0.4409
   75MOL   C19624024   7.471   4.494   0.430  0.2282 -0.2237  0.6350
   75MOL   C19724025   7.559   4.502   0.304 -0.3233  0.0125 -0.7301
   75MOL   C19824026   7.496   4.541   0.172 -0.1217  0.0316  0.0511
   75MOL   C19924027   7.472   4.764   0.624  0.9925 -0.7663 -0.9110
   75MOL   H20024028   7.367   4.589   0.636 -1.6064 -0.2477  0.5004
   75MOL   H20124029   7.547   4.479   0.507  1.3473 -0.4728 -0.4938
   75MOL   H20224030   7.405   4.408   0.420  0.4843 -0.2337 -1.2556
   75MOL   H20324031   7.616   4.410   0.291  0.0432 -0.2708  2.5258
   75MOL   H20424032   7.647   4.566   0.311 -2.0278  2.2081  1.0476
   75MOL   H20524033   7.427   4.624   0.187  1.1564  1.0597  0.3560
   75MOL   H20624034   7.429   4.459   0.149 -0.8674  0.6653 -0.0354
   75MOL   H20724035   7.570   4.558   0.093 -0.7175 -0.2370 -0.5704
   75MOL   H20824036   7.446   4.784   0.728  1.3023  2.5942 -1.4127
   75MOL   H20924037   7.574   4.728   0.613  1.3711  0.4267 -1.3991
   75MOL   C21024038   7.468   4.897   0.557  0.4953 -0.0417  0.3746
   75MOL   O21124039   7.565   4.992   0.612  0.0436 -0.0917  0.3960
   75MOL   C21224040   7.539   5.024   0.746  0.6434  0.6621 -0.0474
   75MOL   C21324041   7.577   5.171   0.757 -0.4425  0.2735 -0.0673
   75MOL   C21424042   7.536   5.233   0.891  0.1462 -0.5371 -0.2198
   75MOL   C21524043   7.502   4.911   0.405  0.9405  0.3407  0.0183
   75MOL   H21624044   7.370   4.940   0.580  1.1431  0.3881  2.4367
   75MOL   H21724045   7.441   4.997   0.786  1.1386  0.0450  0.7412
   75MOL   H21824046   7.611   4.959   0.795  1.6483  2.3262  0.7481
   75MOL   H21924047   7.530   5.222   0.673  1.2543 -0.0924 -1.2746
   75MOL   H22024048   7.684   5.180   0.737 -0.5506  1.2113 -0.2456
   75MOL   H22124049   7.436   5.194   0.911 -1.1484  1.2128 -2.9039
   75MOL   H22224050   7.527   5.340   0.872 -0.8092 -1.2192 -3.9434
   75MOL   H22324051   7.598   5.219   0.980  1.4822  2.6835 -0.5717
   75MOL   H22424052   7.606   4.880   0.400  0.9682  0.5509 -0.8492
   75MOL   H22524053   7.439   4.842   0.348  0.6019  0.4183  0.2921
   75MOL   C22624054   7.512   5.057   0.345  0.1200  0.3126  0.0694
   75MOL   O22724055   7.506   5.041   0.205  0.0915 -0.3573  0.0920
   75MOL   C22824056   7.635   5.052   0.147 -0.4928 -0.3375  0.0573
   75MOL   C22924057   7.623   5.062   7.816 -0.6791 -0.5074  0.5326
   75MOL   C23024058   7.564   4.936   7.754  0.4054  0.4419 -0.8581
   75MOL   C23124059   7.387   5.139   0.384 -0.1167 -0.2833  1.0220
   75MOL   H23224060   7.600   5.109   0.382 -0.5913  1.3851  0.2534
   75MOL   H23324061   7.682   5.145   0.180  1.0443 -1.1275  0.1507
   75MOL   H23424062   7.700   4.972   0.184  0.0911 -0.6220 -1.5317
   75MOL   H23524063   7.714   5.078   7.758 -1.2431 -0.7141 -0.4183
   75MOL   H23624064   7.556   5.140   7.781 -0.5120 -1.0022 -0.9265
   75MOL   H23724065   7.459   4.916   7.774  0.3714  0.8411 -0.6407
   75MOL   H23824066   7.612   4.851   7.803 -0.2531  0.4104 -0.2658
   75MOL   H23924067   7.584   4.934   7.647 -1.2169 -0.0693 -1.1577
   75MOL   H24024068   7.295   5.081   0.390  0.1352 -0.6082  1.7260
   75MOL   H24124069   7.401   5.173   0.487 -0.0365 -3.3745  2.0877
   75MOL   C24224070   7.359   5.260   0.294 -0.2008 -0.6535  0.0478
   75MOL   O24324071   7.247   5.322   0.355  0.3729 -0.4764  0.6849
   75MOL   C24424072   7.136   5.361   0.280 -0.3669  0.3828 -0.3023
   75MOL   C24524073   7.029   5.422   0.375  0.4129 -0.0553 -0.4429
   75MOL   C24624074   7.075   5.551   0.414  0.3455 -0.4411  0.2836
   75MOL   C24724075   7.479   5.365   0.307 -0.1477  0.0025  0.0717
   75MOL   H24824076   7.340   5.217   0.196  0.4402 -0.1802 -0.2928
   75MOL   H24924077   7.157   5.438   0.205 -1.6452  0.1208 -0.9393
   75MOL   H25024078   7.095   5.275   0.228  0.5057 -1.1218  1.4706
   75MOL   H25124079   7.030   5.367   0.469  2.2372  2.5141  1.1108
   75MOL   H25224080   6.927   5.422   0.336  0.2402  0.6976 -0.0167
   75MOL   H25324081   7.012   5.583   0.497  0.7259 -0.4107  0.5590
   75MOL   H25424082   7.068   5.629   0.338  0.7076 -1.0866 -0.4206
   75MOL   H25524083   7.175   5.543   0.456  0.8177  2.3010 -0.2810
   75MOL   H25624084   7.484   5.399   0.411  1.4268  0.1940 -0.0561
   75MOL   H25724085   7.577   5.321   0.288 -0.6614 -0.3696 -1.7916
   75MOL   C25824086   7.470   5.483   0.204  0.1343 -0.0122 -0.3230
   75MOL   O25924087   7.589   5.557   0.222 -0.6103 -0.3670  0.1865
   75MOL   C26024088   7.582   5.662   0.318 -0.4213 -0.7322 -0.3958
   75MOL   C26124089   7.712   5.752   0.315 -0.0038 -0.4538 -0.2566
   75MOL   C26224090   7.703   5.859   0.199  0.0502 -0.1884  0.2945
   75MOL   C26324091   7.458   5.439   0.053 -0.4106  0.3360 -0.6906
   75MOL   H26424092   7.387   5.540   0.246  1.0758  0.9293  0.2855
   75MOL   H26524093   7.487   5.713   0.306 -0.8534 -0.8152  2.3967
   75MOL   H26624094   7.573   5.620   0.418 -0.2163  3.3843  1.4491
   75MOL   H26724095   7.805   5.695   0.308 -0.1596 -0.6810 -0.5194
   75MOL   H26824096   7.724   5.817   0.401  3.5828  2.3158 -2.7205
   75MOL   H26924097   7.696   5.805   0.104 -1.7022 -1.9099  1.3656
   75MOL   H27024098   7.794   5.918   0.203 -0.0146 -0.0670 -0.0079
   75MOL   H27124099   7.611   5.918   0.193  0.4414  0.1993 -2.4559
   75MOL   H27224100   7.536   5.369   0.023 -1.6317 -0.5163 -1.9437
   75MOL   H27324101   7.367   5.380   0.040  0.1317 -0.0785 -2.7438
   75MOL   C27424102   7.455   5.556   7.785 -0.4531 -0.2911 -0.2207
   75MOL   O27524103   7.456   5.497   7.652 -0.0947 -0.7051  0.0994
   75MOL   C27624104   7.589   5.492   7.611  0.1340 -0.6153  0.6348
   75MOL   C27724105   7.615   5.411   7.484 -0.6838 -0.4589  0.3984
   75MOL   C27824106   7.599   5.258   7.510 -0.2443 -0.1941 -0.1924
   75MOL   C27924107   7.319   5.625   7.808  0.0416 -0.2976  0.0023
   75MOL   H28024108   7.539   5.621   7.807 -0.8883  0.2457 -0.1243
   75MOL   H28124109   7.627   5.593   7.595  0.5278 -0.9846 -0.8821
   75MOL   H28224110   7.663   5.461   7.684  1.1054  1.5752  0.6019
   75MOL   H28324111   7.711   5.431   7.436 -1.2608  1.7497  0.0681
   75MOL   H28424112   7.534   5.444   7.419  0.1780  1.7021  0.3874
   75MOL   H28524113   7.614   5.205   7.416 -1.5327 -0.5589 -0.2081
   75MOL   H28624114   7.504   5.237   7.560 -0.2713  0.9753  0.2636
   75MOL   H28724115   7.679   5.228   7.577  0.6180  2.5089  0.0272
   75MOL   H28824116   7.234   5.561   7.785  0.0891 -0.3897  0.0793
   75MOL   H28924117   7.307   5.649   0.086  1.9855 -1.0013  0.4053
   75MOL   C29024118   7.309   5.754   7.726 -0.4074 -0.5034  0.7331
   75MOL   O29124119   7.169   5.775   7.719  0.4962  0.7298  0.0802
   75MOL   C29224120   7.108   5.759   7.581  0.4136 -0.6985 -0.2421
   75MOL   C29324121   6.955   5.744   7.597 -0.8286 -0.2044 -0.2492
   75MOL   C29424122   6.913   5.827   7.717 -0.4493 -0.7697 -0.2252
   75MOL   C29524123   7.380   5.882   7.789 -0.2524  0.6651 -0.8097
   75MOL   H29624124   7.344   5.734   7.624 -1.6881 -2.0499  0.5668
   75MOL   H29724125   7.117   5.856   7.532  1.0457  0.2091  1.6216
   75MOL   H29824126   7.147   5.671   7.528 -1.2220 -0.4044 -1.9600
   75MOL   H29924127   6.919   5.646   7.628 -3.2196 -0.1357 -2.6631
   75MOL   H30024128   6.903   5.775   7.507 -1.8545  0.6501  0.6234
   75MOL   H30124129   6.948   5.787   7.812 -1.4858  0.6980  0.7936
   75MOL   H30224130   6.804   5.821   7.718 -0.3914 -1.6707  1.0478
   75MOL   H30324131   6.947   5.930   7.708 -0.2244 -0.8821 -0.6899
   75MOL   H30424132   7.304   5.914   0.033 -1.3629 -3.5894  0.0445
   75MOL   H30524133   7.476   5.852   0.004 -0.2185  3.0080  0.8716
   75MOL   C30624134   7.431   5.987   7.682  0.4667 -0.0741  0.3589
   75MOL   O30724135   7.463   6.108   7.751 -0.0196  0.1459  0.4556
   75MOL   C30824136   7.452   6.231   7.671  0.2620  0.1761  0.9272
   75MOL   C30924137   7.432   6.345   7.773  0.4916  0.6177 -0.1474
   75MOL   C31024138   7.299   6.322   0.018  0.1525 -0.7880  0.2605
   75MOL   C31124139   7.553   5.930   7.603 -0.0117  0.3982 -0.7313
   75MOL   H31224140   7.347   6.004   7.614 -0.3371 -0.7916  1.1444
   75MOL   H31324141   7.549   6.240   7.623  0.0621 -1.6991  0.1290
   75MOL   H31424142   7.366   6.218   7.606  0.1014 -1.7901  1.5093
   75MOL   H31524143   7.431   6.438   7.717  0.6928  0.2446 -0.7771
   75MOL   H31624144   7.512   6.361   0.017  1.3914  2.0716 -1.4447
   75MOL   H31724145   7.278   6.399   0.093 -0.6272  1.7323 -2.4455
   75MOL   H31824146   7.299   6.232   0.079 -1.1558 -1.4304 -0.6745
   75MOL   H31924147   7.206   6.317   7.790  1.0945 -0.0378 -1.4044
   75MOL   H32024148   7.534   5.833   7.556  0.9112  0.0602 -0.4285
   75MOL   H32124149   7.563   5.988   7.512 -1.7594 -1.1782 -1.9794
   75MOL   H32224150   7.644   5.939   7.661  1.8769 -1.0620 -3.3750
   76MOL     C124151   2.944   6.669   6.563 -0.0756 -0.9284 -0.5852
   76MOL     O224152   2.855   6.774   6.515 -0.0354 -0.3098 -0.0313
   76MOL     C324153   2.761   6.745   6.407 -0.0466 -0.6963  0.3225
   76MOL     C424154   2.675   6.875   6.379 -0.3723  0.6477  0.0389
   76MOL     C524155   2.752   6.987   6.312  0.3759 -0.0913  0.3846
   76MOL     C624156   3.072   6.658   6.469 -0.2976  0.3484  0.6510
   76MOL     H724157   2.900   6.573   6.590 -0.2475 -1.3501 -2.3470
   76MOL     H824158   2.815   6.715   6.318  0.9933 -0.2869  0.8082
   76MOL     H924159   2.706   6.655   6.436  0.0448  0.4532  4.3830
   76MOL    H1024160   2.633   6.905   6.475  0.0308 -1.2497  0.8456
   76MOL    H1124161   2.593   6.848   6.312  0.7343 -2.0392 -0.2950
   76MOL    H1224162   2.781   6.954   6.212 -0.7755 -0.1897  0.0818
   76MOL    H1324163   2.851   7.005   6.354  0.7256 -1.0011 -0.0241
   76MOL    H1424164   2.694   7.078   6.299 -0.6833 -0.9753 -1.3148
   76MOL    H1524165   3.041   6.631   6.369  0.6478  3.1497 -0.4449
   76MOL    H1624166   3.106   6.761   6.457  0.5693  0.0532  0.5392
   76MOL    H1724167   2.984   6.712   6.656 -0.4660  1.4691 -1.4765
   76MOL    C1824168   3.184   6.561   6.527  0.5743 -0.5422 -0.5390
   76MOL    O1924169   3.141   6.427   6.535 -0.3661 -0.6400  0.3847
   76MOL    C2024170   3.218   6.338   6.622  0.1533  0.6696  0.6062
   76MOL    C2124171   3.136   6.210   6.647  0.3421 -0.2521 -0.0495
   76MOL    C2224172   3.206   6.093   6.719  0.3034 -0.9976  0.4012
   76MOL    C2324173   3.315   6.571   6.450  0.1421 -0.9100  0.5330
   76MOL    H2424174   3.211   6.603   6.624  1.5103 -0.5911 -0.7694
   76MOL    H2524175   3.317   6.327   6.578 -0.0021 -1.6425  0.7726
   76MOL    H2624176   3.232   6.383   6.720  1.3633  0.7523  0.4031
   76MOL    H2724177   3.115   6.188   6.543 -0.5754  0.5452 -0.0349
   76MOL    H2824178   3.045   6.233   6.703 -0.7596  2.0391 -2.6631
   76MOL    H2924179   3.293   6.053   6.666  1.9301 -1.2693  3.1774
   76MOL    H3024180   3.143   6.010   6.748  0.8785 -1.9649 -1.0322
   76MOL    H3124181   3.245   6.142   6.808  1.8652  0.6392 -1.1249
   76MOL    H3224182   3.386   6.496   6.485 -0.6850 -1.5904  0.7800
   76MOL    H3324183   3.284   6.537   6.351  1.2516 -0.5889  0.0708
   76MOL    C3424184   3.387   6.709   6.447 -0.3671  0.0471  0.5733
   76MOL    O3524185   3.442   6.733   6.576  0.3931 -0.0586 -0.2239
   76MOL    C3624186   3.378   6.845   6.631  0.0016 -0.0168  0.8247
   76MOL    C3724187   3.442   6.882   6.767 -0.0116 -0.5014 -0.2721
   76MOL    C3824188   3.381   7.003   6.847  0.0846  0.1507  0.7512
   76MOL    C3924189   3.509   6.709   6.355  0.0252 -0.3043 -0.4107
   76MOL    H4024190   3.321   6.791   6.418  0.7424  0.4959 -0.7865
   76MOL    H4124191   3.400   6.934   6.572 -0.5916 -0.6616 -0.3805
   76MOL    H4224192   3.269   6.847   6.633  0.0267  0.9377  1.3295
   76MOL    H4324193   3.544   6.917   6.750  0.0192  1.0164  2.7804
   76MOL    H4424194   3.460   6.793   6.827  0.3490 -0.7945 -0.8141
   76MOL    H4524195   3.388   7.087   6.779  0.5864 -0.2532  0.3054
   76MOL    H4624196   3.446   7.027   6.931 -1.2795 -0.1965  1.9212
   76MOL    H4724197   3.279   6.972   6.870  0.4178  0.0445  2.1214
   76MOL    H4824198   3.565   6.803   6.353  0.8949 -0.8009  0.1352
   76MOL    H4924199   3.563   6.621   6.391 -3.2475 -1.8083  0.9989
   76MOL    C5024200   3.472   6.679   6.197 -0.2638 -0.5998 -0.1082
   76MOL    O5124201   3.380   6.787   6.182  0.0143 -0.4837 -0.0141
   76MOL    C5224202   3.309   6.782   6.062  0.2808  0.1142 -0.2517
   76MOL    C5324203   3.212   6.903   6.065 -0.6158 -0.1085  0.0732
   76MOL    C5424204   3.116   6.909   6.181  0.2064 -0.6022  0.1911
   76MOL    C5524205   3.596   6.693   6.102  0.2140 -0.5266 -0.1361
   76MOL    H5624206   3.418   6.585   6.186 -1.4329  0.0622 -0.2246
   76MOL    H5724207   3.379   6.797   5.980 -0.7373  2.3467 -0.7680
   76MOL    H5824208   3.255   6.687   6.063  2.0441 -0.8804  0.4076
   76MOL    H5924209   3.157   6.895   5.972 -0.9216  1.7150  0.0980
   76MOL    H6024210   3.268   6.996   6.055 -1.2045  0.3533  1.0238
   76MOL    H6124211   3.162   6.955   6.268 -1.1641  1.1305  0.0194
   76MOL    H6224212   3.078   6.815   6.221 -0.8628  0.2068  1.1147
   76MOL    H6324213   3.033   6.977   6.160 -0.6498 -0.7412  2.9949
   76MOL    H6424214   3.555   6.699   6.001  2.2303 -0.6119 -0.9805
   76MOL    H6524215   3.638   6.793   6.112  0.8340 -0.7591 -0.3698
   76MOL    C6624216   3.708   6.591   6.120  0.0584 -0.7043 -0.1806
   76MOL    O6724217   3.634   6.471   6.111 -0.7271  0.0655 -0.5300
   76MOL    C6824218   3.711   6.365   6.159 -0.2796  0.3742  0.4680
   76MOL    C6924219   3.709   6.240   6.056  0.0310  0.4839  0.0741
   76MOL    C7024220   3.815   6.247   5.949  0.2252 -0.3615 -0.1511
   76MOL    C7124221   3.810   6.594   6.002  0.4164 -0.6722  0.9798
   76MOL    H7224222   3.758   6.608   6.215  0.4687  0.8794 -0.6598
   76MOL    H7324223   3.817   6.387   6.169  0.0515 -0.5220 -0.8736
   76MOL    H7424224   3.666   6.341   6.255 -1.6292 -0.0899 -0.2626
   76MOL    H7524225   3.610   6.236   6.010  1.0348 -0.1032 -2.0838
   76MOL    H7624226   3.731   6.151   6.116 -0.3995 -0.4174 -1.0807
   76MOL    H7724227   3.810   6.340   5.893  1.9879 -0.2248 -0.1179
   76MOL    H7824228   3.810   6.171   5.871 -2.6019  1.0839 -1.4297
   76MOL    H7924229   3.913   6.255   5.996 -0.4155 -1.9212  1.5269
   76MOL    H8024230   3.882   6.512   6.010  2.7241  1.2239  0.2609
   76MOL    H8124231   3.753   6.574   5.911  1.3760  2.7635 -0.4529
   76MOL    C8224232   3.886   6.728   5.996  0.4154 -0.4456 -0.0460
   76MOL    O8324233   4.007   6.733   6.078 -0.2093  0.6119 -0.0403
   76MOL    C8424234   4.025   6.863   6.140  0.3205 -0.2992  0.6011
   76MOL    C8524235   4.129   6.846   6.249 -0.0494  0.1765 -0.2168
   76MOL    C8624236   4.074   6.777   6.369  0.7817  0.2943  0.1004
   76MOL    C8724237   3.944   6.754   5.855  0.2228  0.1313 -0.0763
   76MOL    H8824238   3.818   6.804   6.034 -2.6449 -2.8343 -0.6006
   76MOL    H8924239   4.055   6.931   6.061  1.3014 -0.2253  1.0293
   76MOL    H9024240   3.931   6.898   6.183  0.9749 -0.2172  1.9951
   76MOL    H9124241   4.170   6.942   6.281  0.9898  0.1964 -1.5469
   76MOL    H9224242   4.214   6.790   6.209  0.6877 -1.3842  3.3642
   76MOL    H9324243   4.027   6.684   6.336  2.3611 -0.6629  0.4643
   76MOL    H9424244   3.993   6.835   6.413  0.4516 -0.7804  0.9185
   76MOL    H9524245   4.147   6.757   6.447 -2.6339  0.3194  3.4700
   76MOL    H9624246   4.024   6.826   5.877  1.7296 -0.8989 -2.0191
   76MOL    H9724247   3.984   6.667   5.803 -1.8103  0.4633 -2.2868
   76MOL    C9824248   3.840   6.808   5.756  1.2322  0.6792 -0.2831
   76MOL    O9924249   3.780   6.926   5.814 -0.2318 -0.2086 -0.0078
   76MOL   C10024250   3.639   6.939   5.802 -0.3530 -0.4636 -0.1405
   76MOL   C10124251   3.595   7.078   5.859 -0.2255  0.3181 -0.4958
   76MOL   C10224252   3.636   7.099   6.009 -0.2705 -0.0438 -0.0412
   76MOL   C10324253   3.889   6.854   5.619  0.2302  0.2238 -0.9939
   76MOL   H10424254   3.765   6.732   5.737  1.3412  0.1061  1.5171
   76MOL   H10524255   3.611   6.927   5.697 -2.5714 -4.1752  0.7829
   76MOL   H10624256   3.580   6.866   5.857 -0.4145  0.3429  0.8724
   76MOL   H10724257   3.487   7.091   5.855 -0.1650  0.7974 -0.5542
   76MOL   H10824258   3.633   7.165   5.807  0.0273  0.9478  0.7154
   76MOL   H10924259   3.601   7.198   6.038 -1.0949 -0.3516  0.0414
   76MOL   H11024260   3.744   7.095   6.017 -0.2279  0.2872 -0.4009
   76MOL   H11124261   3.598   7.021   6.074  0.8631 -1.3221 -0.8890
   76MOL   H11224262   3.804   6.896   5.565 -0.1230  0.6621 -0.1039
   76MOL   H11324263   3.951   6.940   5.643  1.1403 -0.6753 -0.0544
   76MOL   C11424264   3.980   6.764   5.537  0.6620 -0.3989  0.0854
   76MOL   O11524265   3.916   6.643   5.493  0.5318 -0.1812  0.0241
   76MOL   C11624266   4.003   6.536   5.474 -0.0781 -0.4605 -0.0255
   76MOL   C11724267   3.926   6.422   5.409  0.7707 -0.7829 -0.3569
   76MOL   C11824268   3.821   6.366   5.513  0.2828 -1.2729  0.1293
   76MOL   C11924269   4.036   6.855   5.420  0.3742  0.0079 -0.7440
   76MOL   H12024270   4.058   6.724   5.602 -0.0184  0.3555  1.3638
   76MOL   H12124271   4.090   6.566   5.415 -0.8241  2.4705  0.2902
   76MOL   H12224272   4.034   6.509   5.575 -0.8278 -1.8579 -0.1611
   76MOL   H12324273   3.997   6.341   5.393  2.3368  0.5945 -0.4943
   76MOL   H12424274   3.892   6.457   5.311  1.1464 -0.9715 -0.5568
   76MOL   H12524275   3.865   6.326   5.603  2.3140  2.0827  0.7356
   76MOL   H12624276   3.758   6.287   5.473 -1.1638 -0.3631  0.5598
   76MOL   H12724277   3.754   6.447   5.541 -0.2220 -1.9759  0.9474
   76MOL   H12824278   4.045   6.800   5.326  1.1780 -1.1523 -0.0041
   76MOL   H12924279   3.956   6.920   5.383  0.0665 -0.5954 -1.1601
   76MOL   C13024280   4.163   6.922   5.462  0.5430  0.0756  0.3754
   76MOL   O13124281   4.270   6.825   5.443 -0.1361 -0.3540 -0.2172
   76MOL   C13224282   4.384   6.833   5.519  0.1494 -0.2251 -0.3225
   76MOL   C13324283   4.476   6.719   5.471 -0.4137  0.4836 -0.1748
   76MOL   C13424284   4.415   6.584   5.507  0.0106 -0.0242 -0.5053
   76MOL   C13524285   4.187   7.060   5.384 -0.3450 -0.2956 -0.0353
   76MOL   H13624286   4.161   6.958   5.565  3.0749  0.9967  0.1396
   76MOL   H13724287   4.424   6.934   5.521 -0.5866  0.0671  0.5362
   76MOL   H13824288   4.344   6.810   5.618 -1.8909 -2.5964 -1.5997
   76MOL   H13924289   4.576   6.723   5.516 -0.4024  0.4394 -0.1973
   76MOL   H14024290   4.499   6.742   5.367 -1.7557  2.5761 -0.0313
   76MOL   H14124291   4.309   6.573   5.482  0.1274  0.0031 -1.0274
   76MOL   H14224292   4.438   6.561   5.611  2.1481  0.9855 -0.7297
   76MOL   H14324293   4.456   6.496   5.459 -0.9816 -0.1071 -1.2166
   76MOL   H14424294   4.274   7.109   5.429 -0.3414 -1.3265  1.0911
   76MOL   H14524295   4.219   7.033   5.284 -1.3285 -0.6101 -0.2673
   76MOL   C14624296   4.075   7.168   5.385  0.3182 -0.1128  0.1949
   76MOL   O14724297   4.076   7.223   5.518  0.3266 -0.3413 -0.1077
   76MOL   C14824298   3.960   7.284   5.558 -0.2073  0.0740 -0.0465
   76MOL   C14924299   3.982   7.333   5.699 -0.1914  0.0972 -0.7247
   76MOL   C15024300   3.995   7.222   5.806 -0.9606  0.2861 -1.0488
   76MOL   C15124301   4.093   7.273   5.268  0.5855  0.2023 -0.3138
   76MOL   H15224302   3.979   7.123   5.362  1.0850 -1.4184 -0.5249
   76MOL   H15324303   3.940   7.362   5.485  0.3126  3.0117  2.8655
   76MOL   H15424304   3.881   7.209   5.567 -0.3276  0.1556 -0.3963
   76MOL   H15524305   3.900   7.395   5.736 -0.5334 -1.0181  0.4093
   76MOL   H15624306   4.066   7.401   5.713 -0.3407  0.0270  0.6346
   76MOL   H15724307   3.909   7.155   5.807  0.7328 -1.9337 -1.1915
   76MOL   H15824308   3.995   7.272   5.902  0.1979  1.5279 -1.6793
   76MOL   H15924309   4.092   7.172   5.803 -1.4608 -0.7525 -0.1311
   76MOL   H16024310   4.089   7.233   5.167 -2.2135 -1.0922  0.2627
   76MOL   H16124311   4.014   7.347   5.276  0.6892  0.3219 -0.3976
   76MOL   C16224312   4.224   7.351   5.286 -0.1216 -0.1650  0.3385
   76MOL   O16324313   4.325   7.266   5.248  0.2866  0.6480 -0.4551
   76MOL   C16424314   4.451   7.284   5.305  0.6131 -0.1463  0.5869
   76MOL   C16524315   4.548   7.177   5.255 -0.6964  0.1619  0.2252
   76MOL   C16624316   4.691   7.198   5.315 -0.6266 -0.0373  0.6273
   76MOL   C16724317   4.225   7.482   5.203  0.7730 -0.0269 -0.0734
   76MOL   H16824318   4.240   7.384   5.388  1.4724 -0.4847  0.1918
   76MOL   H16924319   4.482   7.382   5.269 -1.8396  0.6077  0.4609
   76MOL   H17024320   4.435   7.283   5.413 -0.7679  1.9403  0.4338
   76MOL   H17124321   4.565   7.197   5.150  1.4114 -2.0189  0.1338
   76MOL   H17224322   4.504   7.080   5.278 -1.0685  0.5349  1.1447
   76MOL   H17324323   4.723   7.301   5.297  0.8820 -0.2858  1.8480
   76MOL   H17424324   4.758   7.138   5.255  1.4359  2.0374  0.7904
   76MOL   H17524325   4.699   7.169   5.420 -0.4465 -2.1327  0.0428
   76MOL   H17624326   4.143   7.539   5.246  1.5131  1.3906 -0.4930
   76MOL   H17724327   4.320   7.533   5.220  0.5312 -0.2199  1.9919
   76MOL   C17824328   4.211   7.469   5.046 -0.3802 -0.5855 -0.1170
   76MOL   O17924329   4.197   7.602   5.005  0.0665 -0.3056  0.5539
   76MOL   C18024330   4.105   7.619   4.895 -0.8857 -0.1100  0.1081
   76MOL   C18124331   4.114   7.759   4.838 -0.0800 -0.1655 -0.3595
   76MOL   C18224332   4.047   0.042   4.926 -0.0323  0.5284  0.0778
   76MOL   C18324333   4.326   7.396   4.980  0.3319  0.0113  0.8001
   76MOL   H18424334   4.119   7.414   5.028  0.3964 -1.5975 -1.0314
   76MOL   H18524335   4.115   7.545   4.815  1.0226  1.5935 -1.2613
   76MOL   H18624336   4.005   7.600   4.935 -1.2244  2.5317  0.5789
   76MOL   H18724337   4.054   7.749   4.748  1.2402 -1.1884 -1.1443
   76MOL   H18824338   4.215   7.782   4.802  0.1009  1.9681  1.4213
   76MOL   H18924339   3.943   0.047   4.894 -0.1898  0.5561  0.5933
   76MOL   H19024340   4.108   0.132   4.929  0.7110  0.0042  0.9199
   76MOL   H19124341   4.030   7.827   5.025  0.8807 -0.8476 -0.3541
   76MOL   H19224342   4.362   7.466   4.905 -0.4613 -0.5992 -0.1772
   76MOL   H19324343   4.421   7.393   5.033  0.9142  0.4573 -0.2078
   76MOL   C19424344   4.298   7.257   4.913  0.1191  0.3286  0.4750
   76MOL   O19524345   4.188   7.255   4.824 -0.2570  0.8327 -0.6880
   76MOL   C19624346   4.098   7.151   4.836  0.5396  0.8802  0.1903
   76MOL   C19724347   4.018   7.145   4.705 -0.2636 -0.0495  0.0318
   76MOL   C19824348   3.927   7.266   4.688  0.3265 -1.1065 -0.3699
   76MOL   C19924349   4.417   7.198   4.832 -0.5035 -1.3059 -0.5930
   76MOL   H20024350   4.277   7.189   4.996  0.7370  0.0240  0.3901
   76MOL   H20124351   4.145   7.055   4.857  0.8362  0.1396 -3.5051
   76MOL   H20224352   4.035   7.176   4.921  0.3295  0.3348  0.1956
   76MOL   H20324353   3.967   7.050   4.688  1.4930 -0.6556 -2.1856
   76MOL   H20424354   4.091   7.148   4.624  1.4662  0.1579  1.5609
   76MOL   H20524355   3.994   7.350   4.710 -0.9247 -0.1282 -0.2081
   76MOL   H20624356   3.845   7.283   4.757  1.7798 -3.1431  1.9166
   76MOL   H20724357   3.902   7.276   4.582  1.6361 -0.1183 -0.6050
   76MOL   H20824358   4.473   7.142   4.906 -0.9135  0.7760  1.3557
   76MOL   H20924359   4.379   7.117   4.771  1.9838 -1.0347 -2.5744
   76MOL   C21024360   4.514   7.292   4.757  0.6091  0.1824  0.1473
   76MOL   O21124361   4.619   7.336   4.845  0.1620 -0.1965 -0.0368
   76MOL   C21224362   4.695   7.450   4.800 -0.3529  0.4309  0.4260
   76MOL   C21324363   4.815   7.473   4.887 -0.1713  0.1996  0.0112
   76MOL   C21424364   4.769   7.505   5.032 -0.7778  0.0770 -0.2080
   76MOL   C21524365   4.580   7.214   4.638 -0.9067 -0.5890  0.3854
   76MOL   H21624366   4.440   7.367   4.729  1.9803  1.7539  0.6728
   76MOL   H21724367   4.730   7.443   4.697 -0.6243 -2.2042  0.4716
   76MOL   H21824368   4.639   7.543   4.810  0.2095  0.7459  0.6692
   76MOL   H21924369   4.869   7.555   4.841 -0.6267  1.7960  2.2493
   76MOL   H22024370   4.889   7.394   4.900  1.7550  2.1819  1.2660
   76MOL   H22124371   4.848   7.486   5.104 -1.1699 -1.6788 -0.2353
   76MOL   H22224372   4.672   7.459   5.050 -0.4885 -0.5571 -0.2539
   76MOL   H22324373   4.751   7.611   5.052  1.0282  0.6453 -1.3911
   76MOL   H22424374   4.673   7.265   4.613 -1.2730  1.1398  2.3501
   76MOL   H22524375   4.616   7.116   4.668 -0.9584 -0.9292 -0.6392
   76MOL   C22624376   4.492   7.188   4.516 -0.1590 -0.1596 -0.3310
   76MOL   O22724377   4.475   7.321   4.465 -0.7380 -0.6534  0.0490
   76MOL   C22824378   4.347   7.340   4.407  0.0777  0.1375 -0.3460
   76MOL   C22924379   4.308   7.484   4.411 -0.1165 -0.3380 -0.3281
   76MOL   C23024380   4.252   7.553   4.536  0.3405  0.2263  0.2951
   76MOL   C23124381   4.553   7.101   4.401  0.2413 -0.7990  0.1632
   76MOL   H23224382   4.402   7.151   4.564  1.1308 -2.4916  0.3692
   76MOL   H23324383   4.333   7.303   4.306  0.9859  1.1875 -0.8558
   76MOL   H23424384   4.274   7.283   4.465  1.5610 -1.1751  0.2952
   76MOL   H23524385   4.241   7.509   4.329  1.4356  2.0484 -0.9174
   76MOL   H23624386   4.393   7.549   4.389 -0.4976  0.4731  0.5756
   76MOL   H23724387   4.316   7.535   4.623 -1.6358 -0.0326  1.7357
   76MOL   H23824388   4.153   7.515   4.562  0.1490 -0.6291 -1.6425
   76MOL   H23924389   4.250   7.660   4.517  1.5177 -0.2845 -2.9650
   76MOL   H24024390   4.492   7.117   4.313  1.1308 -0.1228 -0.3426
   76MOL   H24124391   4.641   7.161   4.377  0.0389 -1.0459 -1.2201
   76MOL   C24224392   4.581   6.954   4.442  0.0157  0.1958 -0.3930
   76MOL   O24324393   4.461   6.899   4.506  0.1855 -0.8499 -0.4792
   76MOL   C24424394   4.487   6.815   4.616 -0.1914  0.1388 -0.6728
   76MOL   C24524395   4.364   6.756   4.673  0.6055 -0.3958 -0.0762
   76MOL   C24624396   4.285   6.852   4.758  0.2741 -0.0811 -0.1869
   76MOL   C24724397   4.617   6.864   4.328  0.3783  0.5502  0.0445
   76MOL   H24824398   4.658   6.959   4.518  1.3988  0.2576 -1.7720
   76MOL   H24924399   4.557   6.736   4.590 -0.6057 -0.0498 -1.2229
   76MOL   H25024400   4.538   6.878   4.690  0.9614 -1.5443 -0.0100
   76MOL   H25124401   4.379   6.665   4.731  1.6060 -0.5010 -0.4891
   76MOL   H25224402   4.313   6.726   4.582 -0.5968 -0.4397  0.6090
   76MOL   H25324403   4.259   6.924   4.680 -0.7638 -0.3232 -0.0741
   76MOL   H25424404   4.347   6.908   4.829 -1.5662  1.0757  0.5552
   76MOL   H25524405   4.191   6.814   4.798 -0.2036  1.7565  0.4902
   76MOL   H25624406   4.615   6.759   4.357 -4.1170  1.2874  3.0023
   76MOL   H25724407   4.534   6.870   4.258  1.7833 -1.2275 -1.8254
   76MOL   C25824408   4.751   6.908   4.270 -0.3005  0.6890  0.1709
   76MOL   O25924409   4.855   6.889   4.372 -0.5650  0.5201 -0.2639
   76MOL   C26024410   4.888   6.754   4.418 -0.2770  0.1844 -0.2713
   76MOL   C26124411   5.032   6.759   4.480  0.9862  0.0071 -0.9995
   76MOL   C26224412   5.142   6.781   4.374 -0.6159 -0.0006  0.1219
   76MOL   C26324413   4.782   6.837   4.128 -0.2481 -0.1159  0.6443
   76MOL   H26424414   4.749   7.012   4.238  0.5508  0.2578 -1.3061
   76MOL   H26524415   4.821   6.712   4.494 -1.3952  2.1665 -0.1203
   76MOL   H26624416   4.886   6.690   4.330  0.2401 -0.0115 -0.1402
   76MOL   H26724417   5.054   6.661   4.523 -0.2995 -0.0650 -0.4909
   76MOL   H26824418   5.033   6.840   4.554 -3.7396  0.1774 -0.9304
   76MOL   H26924419   5.137   6.871   4.314  2.1571  0.2057  0.1309
   76MOL   H27024420   5.137   6.705   4.296  0.9891  2.9896 -3.0299
   76MOL   H27124421   5.241   6.787   4.421 -0.9538  1.0159  0.7128
   76MOL   H27224422   4.783   6.730   4.149  0.4187 -0.5678 -1.5787
   76MOL   H27324423   4.704   6.848   4.053  0.4285 -0.9508 -0.1887
   76MOL   C27424424   4.908   6.874   4.053 -0.9174 -0.8787  0.2109
   76MOL   O27524425   4.902   6.798   3.935  0.1394  0.6898 -0.3874
   76MOL   C27624426   4.948   6.661   3.948  0.7515 -0.2906  0.9924
   76MOL   C27724427   4.989   6.629   3.808  0.4182  0.2271  0.0229
   76MOL   C27824428   4.882   6.636   3.704 -0.3828  0.3438 -0.0827
   76MOL   C27924429   4.914   7.021   4.017  0.2352  0.2066  0.0965
   76MOL   H28024430   4.996   6.858   4.115  0.4332  0.5392 -1.2940
   76MOL   H28124431   5.037   6.658   4.011  0.4733  1.2941  1.4776
   76MOL   H28224432   4.871   6.596   3.989  0.5654 -0.8823 -0.2713
   76MOL   H28324433   5.030   6.528   3.816  2.3268  0.9773  0.2007
   76MOL   H28424434   5.081   6.681   3.780 -0.1399  0.2896 -1.6908
   76MOL   H28524435   4.903   6.616   3.599 -0.6890 -0.6367  0.0300
   76MOL   H28624436   4.847   6.739   3.712  1.3578  1.0504 -1.3907
   76MOL   H28724437   4.792   6.577   3.724 -1.2167  1.8477  0.7206
   76MOL   H28824438   4.809   7.051   4.008  0.5607  0.9359 -1.3525
   76MOL   H28924439   4.950   7.084   4.098  0.2188  0.3237  0.0130
   76MOL   C29024440   5.015   7.043   3.897 -0.7832 -0.2104 -1.0379
   76MOL   O29124441   5.032   7.184   3.890 -0.2377  0.0862 -0.7587
   76MOL   C29224442   4.954   7.253   3.797  0.0683 -0.5051  0.1438
   76MOL   C29324443   4.977   7.402   3.815  0.2368 -0.6142 -0.3631
   76MOL   C29424444   4.968   7.456   3.958 -0.1310 -0.2049  0.9515
   76MOL   C29524445   5.156   6.986   3.919  0.2874 -0.1257 -0.5456
   76MOL   H29624446   4.969   7.001   3.808 -1.6245 -1.6575  0.0446
   76MOL   H29724447   4.990   7.233   3.696 -1.1231  1.9575 -0.8200
   76MOL   H29824448   4.852   7.222   3.816 -0.8635  2.0845 -0.3748
   76MOL   H29924449   4.931   7.464   3.738  0.1753 -2.5399 -1.9203
   76MOL   H30024450   5.085   7.415   3.806 -0.1451  2.5380 -0.9486
   76MOL   H30124451   4.864   7.465   3.989 -0.8285 -1.7141 -0.8309
   76MOL   H30224452   5.019   7.552   3.956 -0.1774 -0.2129 -0.7248
   76MOL   H30324453   5.010   7.383   4.027 -2.1464 -0.6258  1.7807
   76MOL   H30424454   5.206   7.029   4.006  2.5612  0.4253 -2.0669
   76MOL   H30524455   5.146   6.881   3.947  0.7865  0.1731  0.7590
   76MOL   C30624456   5.249   7.015   3.805 -0.4671  0.1134 -0.0437
   76MOL   O30724457   5.376   6.978   3.851  0.4851  0.0957 -0.7403
   76MOL   C30824458   5.493   7.055   3.813 -0.1792  0.1928 -0.3760
   76MOL   C30924459   5.600   7.008   3.918 -0.1021  0.5259  0.2290
   76MOL   C31024460   5.551   7.038   4.059 -0.4747 -0.0670  0.7499
   76MOL   C31124461   5.227   6.950   3.663 -0.0681 -0.2339 -0.9280
   76MOL   H31224462   5.251   7.124   3.801  1.6300  0.0793 -0.5828
   76MOL   H31324463   5.524   7.031   3.712  0.4563  0.0037 -0.1385
   76MOL   H31424464   5.482   7.163   3.822 -1.3839  0.1900 -1.6219
   76MOL   H31524465   5.693   7.060   3.893  0.0564 -0.4434 -1.2767
   76MOL   H31624466   5.618   6.901   3.918 -0.5935  0.4428  0.5014
   76MOL   H31724467   5.635   7.027   4.128 -0.9633 -3.2317  0.9352
   76MOL   H31824468   5.467   6.973   4.085 -0.9972  0.9919  1.7595
   76MOL   H31924469   5.509   7.138   4.066 -1.9291 -0.6008 -0.0470
   76MOL   H32024470   5.206   6.843   3.667 -1.4569 -0.0065 -1.7651
   76MOL   H32124471   5.135   6.980   3.612 -0.4494 -0.2616 -0.2663
   76MOL   H32224472   5.305   6.968   3.590  1.5104 -0.9111  0.5610
   77MOL     C124473   6.081   5.728   1.287  0.0458 -0.2985  0.1986
   77MOL     O224474   6.153   5.842   1.265  0.0375 -0.1203 -0.0699
   77MOL     C324475   6.259   5.863   1.359 -0.2495 -0.0944  0.1815
   77MOL     C424476   6.375   5.951   1.306 -0.3408  0.0979 -0.7291
   77MOL     C524477   6.411   5.907   1.158  0.1327 -0.2281  0.4492
   77MOL     C624478   6.024   5.704   1.427 -0.0190 -0.0913 -0.2129
   77MOL     H724479   6.144   5.649   1.246  0.3239  0.0165  0.0177
   77MOL     H824480   6.208   5.910   1.443  2.6410  1.1270  1.3246
   77MOL     H924481   6.322   5.778   1.383 -0.0714 -0.6874 -2.2093
   77MOL    H1024482   6.461   5.928   1.369 -1.0483 -3.1002 -0.8265
   77MOL    H1124483   6.336   6.051   1.320  2.4334  0.9346  1.4570
   77MOL    H1224484   6.319   5.888   1.102  1.1108 -0.0621 -1.2503
   77MOL    H1324485   6.469   5.815   1.166 -0.2026 -0.5375 -0.6224
   77MOL    H1424486   6.475   5.978   1.107  1.5360 -2.9232 -1.7241
   77MOL    H1524487   6.100   5.681   1.501 -0.7158 -1.0468  0.2166
   77MOL    H1624488   5.964   5.792   1.454 -1.0165 -0.5695 -0.8437
   77MOL    H1724489   5.993   5.741   1.224 -0.5082  2.2034  1.4380
   77MOL    C1824490   5.935   5.572   1.424  0.3939 -0.0897  0.1457
   77MOL    O1924491   6.019   5.467   1.381 -0.4251  0.6101  0.1035
   77MOL    C2024492   5.999   5.409   1.250  0.1395  0.1569  0.1986
   77MOL    C2124493   6.101   5.297   1.222  0.1779 -0.3109 -0.0822
   77MOL    C2224494   6.249   5.332   1.247  0.2912 -0.7452 -0.2388
   77MOL    C2324495   5.860   5.549   1.559 -0.3978 -0.2893  0.5561
   77MOL    H2424496   5.853   5.587   1.354  1.4449 -0.7351 -1.2412
   77MOL    H2524497   5.900   5.366   1.240  0.7305 -0.9193 -1.1690
   77MOL    H2624498   6.006   5.490   1.177  1.4904 -1.4533 -1.4804
   77MOL    H2724499   6.082   5.266   1.119 -1.3797 -2.3468  0.7722
   77MOL    H2824500   6.087   5.210   1.286  3.4731 -0.0630  1.0539
   77MOL    H2924501   6.305   5.242   1.271 -1.9693 -1.4979  2.4319
   77MOL    H3024502   6.267   5.410   1.321  0.1334 -0.3320 -0.6308
   77MOL    H3124503   6.278   5.370   1.149  3.4605 -1.5140  0.3232
   77MOL    H3224504   5.941   5.538   1.631  0.6637 -0.9571 -0.7136
   77MOL    H3324505   5.804   5.641   1.577 -0.4063 -0.5624  1.9583
   77MOL    C3424506   5.769   5.433   1.570 -0.2643 -0.3238  0.1191
   77MOL    O3524507   5.711   5.436   1.700 -0.2129 -0.5503  0.5696
   77MOL    C3624508   5.745   5.325   1.782 -0.1787  0.5447 -0.2004
   77MOL    C3724509   5.704   5.365   1.931 -0.3354 -0.0590  0.2542
   77MOL    C3824510   5.739   5.506   1.964 -0.2211  0.1706  0.3750
   77MOL    C3924511   5.661   5.424   1.463  0.1974 -0.1485 -0.0294
   77MOL    H4024512   5.834   5.348   1.548  0.6259  0.8961 -2.0596
   77MOL    H4124513   5.690   5.236   1.751 -1.0065  0.2997  1.9015
   77MOL    H4224514   5.850   5.299   1.792 -0.7303 -1.4548  0.5100
   77MOL    H4324515   5.750   5.284   1.988  2.6329  1.6065  0.3214
   77MOL    H4424516   5.597   5.353   1.948 -0.4891  0.2609 -0.4748
   77MOL    H4524517   5.842   5.526   1.934  0.1611 -0.8726  0.9629
   77MOL    H4624518   5.750   5.524   2.071 -0.7900 -0.5085  0.5523
   77MOL    H4724519   5.675   5.583   1.920 -0.4669  0.6561  1.5609
   77MOL    H4824520   5.588   5.503   1.474 -0.2820 -0.5192 -0.5358
   77MOL    H4924521   5.708   5.425   1.365  1.4791 -3.7009  0.4700
   77MOL    C5024522   5.586   5.293   1.466 -0.2277 -0.9071  0.1563
   77MOL    O5124523   5.484   5.303   1.366  0.7062 -0.4547  0.0230
   77MOL    C5224524   5.351   5.279   1.417 -0.1647 -0.0919  0.3960
   77MOL    C5324525   5.246   5.313   1.314  0.1654 -0.4131 -0.3940
   77MOL    C5424526   5.235   5.203   1.207 -0.1963  0.1922 -0.0278
   77MOL    C5524527   5.661   5.161   1.428 -0.4661 -0.9469 -0.1737
   77MOL    H5624528   5.539   5.276   1.562  0.3781  1.5202  0.9155
   77MOL    H5724529   5.348   5.178   1.458  1.0961  1.4364  4.5222
   77MOL    H5824530   5.341   5.348   1.501  0.4942  0.1810  0.2580
   77MOL    H5924531   5.265   5.407   1.263 -2.6139  0.2641 -0.2132
   77MOL    H6024532   5.150   5.313   1.365  0.0136  1.8477 -0.6467
   77MOL    H6124533   5.150   5.226   1.142  2.1930  0.1850 -3.2859
   77MOL    H6224534   5.232   5.098   1.237  1.3225  0.9901  3.1578
   77MOL    H6324535   5.312   5.212   1.130 -1.5448 -1.1585 -1.5708
   77MOL    H6424536   5.681   5.171   1.321  3.9821  0.1041  0.6685
   77MOL    H6524537   5.749   5.166   1.492 -0.0350  0.8469 -0.8937
   77MOL    C6624538   5.580   5.030   1.446 -0.3763 -0.1708  0.1459
   77MOL    O6724539   5.674   4.928   1.408 -0.5101  0.2009 -0.3748
   77MOL    C6824540   5.654   4.888   1.275 -0.1489  0.3073  0.6866
   77MOL    C6924541   5.742   4.765   1.258 -0.0608  0.8037  0.1160
   77MOL    C7024542   5.767   4.729   1.110 -0.3841 -0.1865  0.0954
   77MOL    C7124543   5.542   4.998   1.589  0.2608 -0.0912 -0.6725
   77MOL    H7224544   5.487   5.032   1.389  0.2979 -0.8194 -1.0049
   77MOL    H7324545   5.557   4.849   1.245  0.4199 -0.2245 -0.5149
   77MOL    H7424546   5.694   4.970   1.215  0.7841 -0.5612  0.1082
   77MOL    H7524547   5.698   4.682   1.313  3.7289 -0.8060  0.8738
   77MOL    H7624548   5.836   4.775   1.312  0.7145 -4.0329 -0.1373
   77MOL    H7724549   5.740   4.803   1.035  0.2207 -0.9446 -0.8950
   77MOL    H7824550   5.712   4.642   1.073  1.0440 -1.1679  0.2069
   77MOL    H7924551   5.872   4.705   1.093  0.3429  3.2283 -0.5373
   77MOL    H8024552   5.619   5.009   1.665 -0.2827 -1.8541  0.1476
   77MOL    H8124553   5.461   5.064   1.620 -1.1327 -2.3787  0.7147
   77MOL    C8224554   5.464   4.862   1.606  0.5950  0.7124  0.2093
   77MOL    O8324555   5.369   4.840   1.498  0.4785 -0.3836 -0.7587
   77MOL    C8424556   5.265   4.748   1.541 -0.0695 -0.4843 -0.1468
   77MOL    C8524557   5.172   4.709   1.432 -0.4585  0.5111  0.3201
   77MOL    C8624558   5.242   4.649   1.309  0.2721 -0.1681  0.5407
   77MOL    C8724559   5.560   4.750   1.643 -0.3219  0.0688  0.6349
   77MOL    H8824560   5.411   4.880   1.700  0.1906 -0.4771  0.2207
   77MOL    H8924561   5.315   4.660   1.584  0.8711  0.4136  0.6194
   77MOL    H9024562   5.202   4.791   1.619  1.4040  0.4031  0.5899
   77MOL    H9124563   5.112   4.797   1.405 -1.0786  0.2184  0.7436
   77MOL    H9224564   5.111   4.629   1.472  1.0264 -2.3173 -2.8294
   77MOL    H9324565   5.306   4.720   1.257  1.1175 -0.2683  1.4384
   77MOL    H9424566   5.169   4.622   1.232 -1.6720  1.6529  1.7035
   77MOL    H9524567   5.306   4.563   1.327  0.9142  0.7291  2.6241
   77MOL    H9624568   5.511   4.653   1.644 -0.4138  0.1172  1.1117
   77MOL    H9724569   5.634   4.745   1.564  1.2975  0.0996  2.1203
   77MOL    C9824570   5.612   4.756   1.788 -0.3204 -0.8772  0.2832
   77MOL    O9924571   5.503   4.725   1.866 -0.8451  0.1780  0.4182
   77MOL   C10024572   5.481   4.809   1.976 -0.4025  0.2566 -0.2894
   77MOL   C10124573   5.344   4.811   2.046  1.1049 -0.9916  0.5888
   77MOL   C10224574   5.224   4.899   2.000 -0.1100  0.1216  0.6230
   77MOL   C10324575   5.722   4.653   1.809  1.3224  0.2515 -0.3619
   77MOL   H10424576   5.656   4.853   1.811  1.1209 -1.6283  0.8001
   77MOL   H10524577   5.547   4.777   2.056 -1.9403  0.9277  1.2784
   77MOL   H10624578   5.506   4.915   1.963 -1.1743  0.7695  2.1469
   77MOL   H10724579   5.358   4.842   2.150  1.9151 -2.3392  0.9006
   77MOL   H10824580   5.311   4.708   2.059  3.9494 -2.1007 -0.5791
   77MOL   H10924581   5.261   5.002   1.996  2.2270 -0.6571  1.3161
   77MOL   H11024582   5.154   4.907   2.083 -0.1128 -1.4052  0.7705
   77MOL   H11124583   5.182   4.862   1.906 -0.2868 -1.3405  1.2753
   77MOL   H11224584   5.735   4.648   1.917  0.8084  2.8924 -0.1500
   77MOL   H11324585   5.683   4.557   1.776  0.8496  0.8654 -1.5923
   77MOL   C11424586   5.858   4.699   1.739 -0.2507  0.0311  0.5148
   77MOL   O11524587   5.889   4.835   1.755 -0.1566  0.0925  0.7708
   77MOL   C11624588   5.957   4.895   1.636 -0.3607  0.0761 -0.1363
   77MOL   C11724589   5.997   5.041   1.673  0.5005  0.3047  0.1085
   77MOL   C11824590   6.086   5.096   1.555  0.0642  0.5871 -0.1539
   77MOL   C11924591   5.979   4.614   1.788 -0.3692 -0.2662 -0.1374
   77MOL   H12024592   5.839   4.690   1.632 -1.0582  1.1743  0.5518
   77MOL   H12124593   6.051   4.841   1.623 -0.6682 -0.6089  0.4340
   77MOL   H12224594   5.890   4.902   1.551  0.7245  0.5962 -0.9702
   77MOL   H12324595   6.055   5.040   1.765 -1.4157  1.9617  1.3847
   77MOL   H12424596   5.909   5.103   1.689  0.4932  0.6583 -1.2920
   77MOL   H12524597   6.108   5.202   1.566 -0.2092  1.1062 -3.7166
   77MOL   H12624598   6.028   5.082   1.463  0.9535  2.8491 -1.1034
   77MOL   H12724599   6.183   5.053   1.530  0.2213  0.6011  0.4333
   77MOL   H12824600   6.070   4.672   1.774 -0.1570 -0.8359 -1.1923
   77MOL   H12924601   5.977   4.587   1.894 -1.1617 -2.0528 -0.5830
   77MOL   C13024602   5.985   4.484   1.697 -0.3553  0.0714  0.0959
   77MOL   O13124603   6.021   4.517   1.559  0.0027  0.3675  0.3035
   77MOL   C13224604   5.946   4.460   1.458  0.0799 -0.4718  0.6519
   77MOL   C13324605   6.036   4.481   1.328  0.0873 -0.7434  0.7226
   77MOL   C13424606   6.154   4.373   1.319 -0.4219 -0.1281 -0.3709
   77MOL   C13524607   6.092   4.382   1.741  0.3504  0.0026  0.1180
   77MOL   H13624608   5.893   4.428   1.716  1.4722 -2.1483  2.8830
   77MOL   H13724609   5.931   4.352   1.471 -1.5801 -0.5707 -1.6630
   77MOL   H13824610   5.850   4.507   1.438  0.1469 -0.8250 -0.5485
   77MOL   H13924611   6.077   4.581   1.318 -0.2098 -0.7762 -0.8996
   77MOL   H14024612   5.969   4.453   1.247  0.1163  1.1490  0.0302
   77MOL   H14124613   6.190   4.359   1.217 -1.4201  0.8449 -0.8730
   77MOL   H14224614   6.116   4.276   1.351 -0.5380 -0.4462 -1.4522
   77MOL   H14324615   6.244   4.400   1.375  1.9577 -3.9277 -2.1895
   77MOL   H14424616   6.177   4.439   1.701  0.8219  0.4901  1.7725
   77MOL   H14524617   6.094   4.375   1.849  1.3926 -0.8447  0.0523
   77MOL   C14624618   6.083   4.242   1.682  0.9292  0.5555 -0.0674
   77MOL   O14724619   6.208   4.176   1.698  0.1081  0.6637 -0.3427
   77MOL   C14824620   6.319   4.210   1.620 -0.4707  0.4766  0.6196
   77MOL   C14924621   6.438   4.139   1.683  0.6644  0.1017 -0.3071
   77MOL   C15024622   6.570   4.154   1.603  0.4874  0.0301 -0.3284
   77MOL   C15124623   5.966   4.152   1.735 -0.1736  0.5983  0.2230
   77MOL   H15224624   6.075   4.244   1.573 -0.3279  1.6082  0.0373
   77MOL   H15324625   6.308   4.189   1.514  1.1882  0.1474  0.4916
   77MOL   H15424626   6.330   4.319   1.620 -0.3578  0.4713 -0.4027
   77MOL   H15524627   6.420   4.036   1.713 -1.0094 -0.0457 -1.7262
   77MOL   H15624628   6.456   4.189   1.777  1.3449  0.3616 -0.5765
   77MOL   H15724629   6.648   4.094   1.650  0.0756  0.2986  0.7159
   77MOL   H15824630   6.614   4.254   1.603  0.6022 -0.0187  0.3706
   77MOL   H15924631   6.561   4.121   1.500  2.3129  0.5211 -0.6651
   77MOL   H16024632   5.956   4.160   1.843  2.2970  0.9781  0.4578
   77MOL   H16124633   5.878   4.197   1.689  0.5144  1.0387 -0.6775
   77MOL   C16224634   5.968   4.011   1.683 -0.0378 -0.0173  0.5649
   77MOL   O16324635   5.893   3.927   1.781  0.0143  0.2780  0.1169
   77MOL   C16424636   5.960   3.895   1.904  0.4514 -0.0185 -0.1651
   77MOL   C16524637   5.853   3.906   2.009 -1.0347  0.1990 -0.3995
   77MOL   C16624638   5.905   3.917   2.156  0.0776  0.0666  0.3953
   77MOL   C16724639   5.904   3.990   1.538  0.1880  0.0109  0.2306
   77MOL   H16824640   6.069   3.970   1.686 -0.3551 -0.9864 -1.0012
   77MOL   H16924641   6.008   3.797   1.900  0.2287 -0.2348  1.6973
   77MOL   H17024642   6.046   3.961   1.917 -0.6458  1.2294  0.8488
   77MOL   H17124643   5.791   3.817   2.000  0.1601 -0.7655  0.6889
   77MOL   H17224644   5.788   3.987   1.978 -0.6958  0.4088 -0.5592
   77MOL   H17324645   5.817   3.922   2.220 -0.5369 -1.6399 -0.2722
   77MOL   H17424646   5.959   4.010   2.172  1.7465 -1.1479  2.0963
   77MOL   H17524647   5.976   3.841   2.190 -0.5571 -1.4974 -1.6575
   77MOL   H17624648   5.801   4.026   1.531 -0.0316 -0.3707  1.3147
   77MOL   H17724649   5.959   4.044   1.461 -0.0649  0.6252  0.4846
   77MOL   C17824650   5.913   3.841   1.491  0.0973  0.5688 -0.2257
   77MOL   O17924651   5.833   3.835   1.373 -0.4077  0.4005  0.4646
   77MOL   C18024652   5.746   3.726   1.364 -0.2466  0.2547  0.5313
   77MOL   C18124653   5.648   3.740   1.245  0.6057 -0.0243  0.0260
   77MOL   C18224654   5.731   3.723   1.111  0.2220 -0.0587 -0.2724
   77MOL   C18324655   6.060   3.788   1.469 -0.6189 -0.2338 -0.3424
   77MOL   H18424656   5.867   3.786   1.573 -0.0367  1.0272  0.0038
   77MOL   H18524657   5.790   3.627   1.356  0.1304 -0.0108  4.5937
   77MOL   H18624658   5.683   3.729   1.454 -1.6598  1.3607 -0.4688
   77MOL   H18724659   5.584   3.829   1.239 -3.5727 -2.8262  0.7763
   77MOL   H18824660   5.587   3.650   1.255 -0.5084  0.7516  0.3748
   77MOL   H18924661   5.677   3.767   1.026 -1.7496 -1.5279  0.1731
   77MOL   H19024662   5.752   3.617   1.104  0.6515  0.0603 -0.8448
   77MOL   H19124663   5.825   3.775   1.129  0.5412 -0.8236  0.2859
   77MOL   H19224664   6.086   3.759   1.367 -0.0022  1.2524 -0.6136
   77MOL   H19324665   6.134   3.857   1.509 -0.0553 -1.1623  0.2425
   77MOL   C19424666   6.092   3.664   1.558  0.0110 -0.1422 -0.6596
   77MOL   O19524667   6.025   3.546   1.514 -0.7036  0.0273  0.6980
   77MOL   C19624668   5.987   3.455   1.615 -0.1337  0.0657 -0.3994
   77MOL   C19724669   5.916   3.335   1.540 -0.4964  0.1847 -0.2125
   77MOL   C19824670   5.818   3.372   1.434  0.9181  0.0336  0.1345
   77MOL   C19924671   6.244   3.624   1.558  0.2688 -0.2614 -0.7511
   77MOL   H20024672   6.062   3.686   1.661 -1.7006 -1.0132 -0.9626
   77MOL   H20124673   6.068   3.427   1.683 -2.5945 -0.1642  2.5446
   77MOL   H20224674   5.912   3.503   1.677 -0.2747  0.7395 -1.0927
   77MOL   H20324675   5.859   3.278   1.614 -1.6269 -1.4284 -2.2622
   77MOL   H20424676   6.000   3.286   1.490  0.2941  0.5944  0.6986
   77MOL   H20524677   5.751   3.452   1.465 -1.1016 -1.9295  0.9586
   77MOL   H20624678   5.757   3.285   1.408  3.3436 -1.0007 -2.4580
   77MOL   H20724679   5.865   3.396   1.339  0.4815 -1.1712 -0.4033
   77MOL   H20824680   6.251   3.533   1.618 -0.5595  0.1757 -0.0007
   77MOL   H20924681   6.283   3.594   1.460  0.3013  0.8226 -1.0701
   77MOL   C21024682   6.338   3.730   1.636 -0.3780  0.6369 -0.3684
   77MOL   O21124683   6.339   3.697   1.770  0.5461 -0.2305 -0.1504
   77MOL   C21224684   6.333   3.802   1.862 -0.5589 -0.9402  0.0507
   77MOL   C21324685   6.294   3.761   2.007 -1.0694 -0.1709  0.1492
   77MOL   C21424686   6.400   3.670   2.074 -0.7949 -0.8816  0.8326
   77MOL   C21524687   6.481   3.745   1.576  0.5776  0.1082 -0.6677
   77MOL   H21624688   6.304   3.834   1.631 -0.1249  0.7019 -0.7794
   77MOL   H21724689   6.431   3.850   1.872 -1.2718  1.5088 -3.7233
   77MOL   H21824690   6.262   3.877   1.829 -1.3335 -1.6495  0.1033
   77MOL   H21924691   6.200   3.708   1.995 -2.0561  1.3659  0.8604
   77MOL   H22024692   6.275   3.847   2.071 -0.4745 -0.6477  0.9655
   77MOL   H22124693   6.389   3.567   2.043  1.2005 -2.5447  5.1989
   77MOL   H22224694   6.392   3.678   2.183  1.0082 -1.8689  1.0521
   77MOL   H22324695   6.499   3.698   2.039 -0.8357  0.3458  1.6515
   77MOL   H22424696   6.527   3.829   1.628  1.6086 -1.2621  0.6778
   77MOL   H22524697   6.545   3.657   1.586  2.9370  2.0227  1.7231
   77MOL   C22624698   6.504   3.766   1.428  0.7406 -0.1986 -0.0179
   77MOL   O22724699   6.432   3.883   1.399  0.6212 -0.2187 -0.5199
   77MOL   C22824700   6.362   3.890   1.275  0.0827  0.0385 -0.2353
   77MOL   C22924701   6.275   4.017   1.259 -0.7261  0.6479 -0.1379
   77MOL   C23024702   6.169   4.013   1.147 -0.2167  0.8145 -0.2279
   77MOL   C23124703   6.652   3.781   1.384 -0.0044 -0.9892  0.0549
   77MOL   H23224704   6.461   3.683   1.372  0.5889 -1.5600  2.0591
   77MOL   H23324705   6.434   3.892   1.193  1.3365 -0.7695  0.8210
   77MOL   H23424706   6.305   3.798   1.264 -1.2784  0.9618 -1.0488
   77MOL   H23524707   6.337   4.104   1.239  3.0346 -2.0509 -0.6834
   77MOL   H23624708   6.227   4.042   1.354  1.1434  0.6824  0.8187
   77MOL   H23724709   6.091   3.943   1.177 -1.9189  1.2705 -3.4115
   77MOL   H23824710   6.211   3.976   1.054 -0.9063 -1.0479  0.1690
   77MOL   H23924711   6.119   4.107   1.126 -0.9050  0.0141 -2.3309
   77MOL   H24024712   6.666   3.779   1.275  1.8131 -1.6020  0.2773
   77MOL   H24124713   6.688   3.878   1.417  2.3133 -1.9807  0.5163
   77MOL   C24224714   6.750   3.669   1.416 -0.0693 -0.3245 -0.3272
   77MOL   O24324715   6.782   3.648   1.557  0.6331  0.0416  0.7062
   77MOL   C24424716   6.861   3.759   1.609  0.0442  0.3467  0.7765
   77MOL   C24524717   6.906   3.715   1.748  0.4035 -0.2498  0.2127
   77MOL   C24624718   6.791   3.642   1.823  0.6784  0.3846 -0.5287
   77MOL   C24724719   6.711   3.532   1.363 -0.3229 -0.1310  0.9954
   77MOL   H24824720   6.845   3.695   1.369 -0.6036  3.2962  0.4955
   77MOL   H24924721   6.943   3.768   1.537  0.3423 -2.0393  0.7797
   77MOL   H25024722   6.819   3.858   1.595  1.1473  0.7649  0.3257
   77MOL   H25124723   6.949   3.801   1.799  1.5031 -0.2823 -0.6279
   77MOL   H25224724   7.000   3.661   1.758  0.6637 -0.5828 -3.2660
   77MOL   H25324725   6.705   3.710   1.825  2.0343  2.1595 -1.1943
   77MOL   H25424726   6.814   3.635   1.929  0.9011 -1.5619 -0.6886
   77MOL   H25524727   6.767   3.542   1.787  2.4066 -1.0479  2.1279
   77MOL   H25624728   6.759   3.444   1.406 -2.2621 -1.0971  1.2641
   77MOL   H25724729   6.606   3.513   1.384 -0.7199 -0.1013 -0.9664
   77MOL   C25824730   6.740   3.515   1.211  0.7354 -0.0924  0.0788
   77MOL   O25924731   6.873   3.534   1.177  0.0912 -0.0004  0.0922
   77MOL   C26024732   6.980   3.450   1.236  0.0899 -0.0949 -0.1097
   77MOL   C26124733   7.105   3.423   1.146  0.9777  0.0792 -0.4799
   77MOL   C26224734   7.160   3.550   1.089  0.0127  0.3590 -0.0209
   77MOL   C26324735   6.690   3.382   1.144  0.4006 -0.5623 -0.7172
   77MOL   H26424736   6.678   3.587   1.158  2.0614 -0.5337 -2.1489
   77MOL   H26524737   7.029   3.490   1.325  2.4075  0.2478 -1.4971
   77MOL   H26624738   6.940   3.358   1.277  0.2445 -1.5373 -3.0655
   77MOL   H26724739   7.072   3.355   1.067  2.5152  0.7748 -1.7401
   77MOL   H26824740   7.187   3.378   1.202  0.3205 -1.7120 -0.9106
   77MOL   H26924741   7.237   3.530   1.015 -0.5551 -0.3752 -0.4269
   77MOL   H27024742   7.218   3.604   1.163 -0.0259 -1.5883  1.4759
   77MOL   H27124743   7.084   3.622   1.058 -0.1184 -0.1842 -0.9605
   77MOL   H27224744   6.760   3.349   1.068  0.2634 -0.0150 -1.0833
   77MOL   H27324745   6.688   3.305   1.222  1.9613  0.1290  0.0272
   77MOL   C27424746   6.548   3.397   1.086 -0.1265  0.9282  0.0672
   77MOL   O27524747   6.561   3.478   0.964  0.5089  0.0499 -0.4446
   77MOL   C27624748   6.431   3.533   0.928  0.6081  0.1712 -0.3730
   77MOL   C27724749   6.434   3.623   0.801 -0.1747  1.1359  0.5684
   77MOL   C27824750   6.292   3.665   0.761  0.3732  0.6912  0.5324
   77MOL   C27924751   6.484   3.263   1.054 -0.1607  0.2322 -0.2116
   77MOL   H28024752   6.489   3.461   1.152  2.5808  0.0965  3.3809
   77MOL   H28124753   6.358   3.454   0.913  1.5873 -0.3219 -2.6382
   77MOL   H28224754   6.381   3.594   1.004 -0.1715  0.1208 -0.8459
   77MOL   H28324755   6.474   3.571   0.713  2.3845  0.5430  2.0458
   77MOL   H28424756   6.510   3.700   0.809  1.5472 -0.2393 -1.7946
   77MOL   H28524757   6.216   3.587   0.752  2.0660 -0.7997 -1.3689
   77MOL   H28624758   6.291   3.724   0.669  3.4312 -2.0011 -1.3284
   77MOL   H28724759   6.241   3.707   0.848  1.2154 -3.0185  2.9372
   77MOL   H28824760   6.465   3.248   0.948 -1.4545  2.0192 -0.2498
   77MOL   H28924761   6.555   3.183   1.077 -2.1322 -0.7092  2.8084
   77MOL   C29024762   6.355   3.243   1.139 -0.4188  0.1265  0.6082
   77MOL   O29124763   6.274   3.356   1.114 -0.2489 -0.4230 -0.0708
   77MOL   C29224764   6.173   3.372   1.205 -1.0283  0.5036  0.3670
   77MOL   C29324765   6.098   3.507   1.180 -0.2017 -0.2955  0.8054
   77MOL   C29424766   6.024   3.500   1.045  0.5299  0.4888  0.2539
   77MOL   C29524767   6.286   3.112   1.099  0.0203  0.0543  0.3218
   77MOL   H29624768   6.397   3.238   1.239  1.3559 -0.4302 -0.1296
   77MOL   H29724769   6.098   3.293   1.204 -1.4603  0.9256 -0.1366
   77MOL   H29824770   6.212   3.387   1.306 -1.0523  0.7612  0.3366
   77MOL   H29924771   6.174   3.585   1.189  1.0591 -1.5988  1.7665
   77MOL   H30024772   6.021   3.525   1.255 -0.7972 -0.4637  0.2341
   77MOL   H30124773   5.949   3.422   1.056  0.2662  0.8409  0.9430
   77MOL   H30224774   6.099   3.479   0.968  2.5224  1.6307  1.8076
   77MOL   H30324775   5.964   3.588   1.025 -1.5778 -0.9917 -0.1487
   77MOL   H30424776   6.183   3.107   1.135  0.0561 -1.7444  0.2170
   77MOL   H30524777   6.270   3.123   0.992 -2.8895 -0.7216  0.6224
   77MOL   C30624778   6.364   2.986   1.139 -0.2822 -0.4523  0.2389
   77MOL   O30724779   6.341   2.967   1.282 -0.2938  0.0636  0.0034
   77MOL   C30824780   6.459   2.930   1.358 -0.1218  0.4375  0.3342
   77MOL   C30924781   6.407   2.891   1.496  0.1806  0.1320 -0.2742
   77MOL   C31024782   6.319   2.764   1.504  0.0728  0.7982 -0.7869
   77MOL   C31124783   6.296   2.866   1.075 -0.6682 -0.6522  0.0213
   77MOL   H31224784   6.471   2.991   1.116 -0.4148 -1.6712 -0.7051
   77MOL   H31324785   6.516   2.848   1.312 -0.4432  0.9665 -1.0416
   77MOL   H31424786   6.528   3.013   1.373  0.4305  0.4511 -2.0642
   77MOL   H31524787   6.363   2.983   1.535 -0.3109  0.2185 -1.0322
   77MOL   H31624788   6.492   2.870   1.562 -1.4422 -1.0857  1.4725
   77MOL   H31724789   6.366   2.678   1.457 -1.0250 -1.0070  1.2728
   77MOL   H31824790   6.221   2.776   1.458  0.0343  3.7641 -0.0337
   77MOL   H31924791   6.304   2.736   1.609  1.7994  1.8310 -0.2497
   77MOL   H32024792   6.310   2.858   0.967 -0.0449 -0.5542  0.0932
   77MOL   H32124793   6.344   2.775   1.109  0.2968 -1.4770 -3.3439
   77MOL   H32224794   6.192   2.858   1.108 -0.5811 -0.8284  0.2519
   78MOL     C124795   2.353   6.804   5.654 -0.6883 -0.1863  0.0031
   78MOL     O224796   2.353   6.916   5.741  0.3067 -0.0754  0.2802
   78MOL     C324797   2.378   6.873   5.876  0.0959  0.1287 -0.0819
   78MOL     C424798   2.420   6.997   5.961  0.8711  0.1961 -0.0416
   78MOL     C524799   2.309   7.089   6.012  0.3617  0.4038  0.1857
   78MOL     C624800   2.334   6.847   5.512  0.5953  0.2474 -0.2971
   78MOL     H724801   2.278   6.730   5.683  0.1029 -0.2481  1.9120
   78MOL     H824802   2.299   6.816   5.923  0.2244 -1.0792 -1.2882
   78MOL     H924803   2.464   6.805   5.875  0.4794  0.6205 -0.7236
   78MOL    H1024804   2.504   7.054   5.923 -0.1831  0.8750 -1.3932
   78MOL    H1124805   2.470   6.958   6.050  1.5770 -0.7278 -0.8196
   78MOL    H1224806   2.335   7.186   6.053  1.8518  0.3061 -0.4883
   78MOL    H1324807   2.249   7.037   6.086 -1.4950  1.7391 -0.3498
   78MOL    H1424808   2.246   7.116   5.927  0.2693 -0.3623  0.0098
   78MOL    H1524809   2.245   6.911   5.506 -0.0621 -0.7555 -1.5402
   78MOL    H1624810   2.411   6.917   5.479 -0.2157  1.1822 -0.2508
   78MOL    H1724811   2.449   6.754   5.662 -0.3652  0.4384  0.0239
   78MOL    C1824812   2.331   6.741   5.404 -0.1238 -0.4481 -0.1189
   78MOL    O1924813   2.208   6.666   5.408 -0.3852 -0.1599 -0.1443
   78MOL    C2024814   2.229   6.528   5.385 -0.7607  0.1329 -0.2886
   78MOL    C2124815   2.098   6.443   5.368  0.1629 -0.1952  0.1937
   78MOL    C2224816   2.009   6.490   5.254  0.3166 -0.2462 -0.6028
   78MOL    C2324817   2.322   6.802   5.265 -0.6582  0.3549 -0.0735
   78MOL    H2424818   2.422   6.682   5.411 -0.1294 -0.3679  0.6604
   78MOL    H2524819   2.270   6.526   5.284 -0.5484 -0.2925 -0.1961
   78MOL    H2624820   2.299   6.471   5.447  0.0203 -0.7415 -1.9475
   78MOL    H2724821   2.043   6.444   5.463  0.8012 -1.6074  0.6002
   78MOL    H2824822   2.124   6.338   5.357 -1.0127 -0.4668 -0.0301
   78MOL    H2924823   1.932   6.414   5.245 -0.4692  0.6014 -1.1416
   78MOL    H3024824   2.067   6.501   5.162  0.6231  3.3527 -0.0657
   78MOL    H3124825   1.963   6.583   5.290 -1.4275  0.2670 -3.9394
   78MOL    H3224826   2.315   6.729   5.183  2.5047 -2.6549  2.1704
   78MOL    H3324827   2.235   6.867   5.270 -0.5710  0.5140 -0.5641
   78MOL    C3424828   2.448   6.879   5.211  0.8824  0.5698 -0.0854
   78MOL    O3524829   2.564   6.796   5.209  0.2646  0.1892  0.1129
   78MOL    C3624830   2.645   6.801   5.323  0.6820 -0.0055 -0.2810
   78MOL    C3724831   2.749   6.911   5.304 -0.4827 -0.5236 -0.2197
   78MOL    C3824832   2.850   6.881   5.186  0.2413 -0.1191  0.2035
   78MOL    C3924833   2.432   6.924   5.070  0.1061 -1.4857 -0.0721
   78MOL    H4024834   2.482   6.963   5.273  1.0528  0.0991  0.4687
   78MOL    H4124835   2.597   6.806   5.421  0.5407  1.0051 -0.3961
   78MOL    H4224836   2.699   6.707   5.329  0.5404  0.0540  2.5420
   78MOL    H4324837   2.816   6.923   5.388 -0.0943 -2.3999 -0.2422
   78MOL    H4424838   2.684   6.997   5.290 -1.9397 -1.7429 -1.1712
   78MOL    H4524839   2.790   6.854   5.098 -2.0436  2.8337  0.7827
   78MOL    H4624840   2.898   6.786   5.209  2.0967  0.7645  0.0939
   78MOL    H4724841   2.916   6.964   5.160  0.1484 -0.1676 -0.1976
   78MOL    H4824842   2.529   6.943   5.024  0.1388 -0.2272  0.5112
   78MOL    H4924843   2.406   6.837   5.008 -0.2166 -1.3017 -0.1964
   78MOL    C5024844   2.337   7.038   5.042  0.5329 -0.3281  0.2646
   78MOL    O5124845   2.388   7.156   5.103  0.2933  0.0726  0.0769
   78MOL    C5224846   2.304   7.221   5.197 -0.3101 -0.1504 -0.1306
   78MOL    C5324847   2.387   7.345   5.243 -0.4598  0.7020 -0.5003
   78MOL    C5424848   2.336   7.424   5.360 -0.4565  0.0253 -0.6021
   78MOL    C5524849   2.316   7.056   4.896  0.1234  0.0675 -0.3245
   78MOL    H5624850   2.239   7.014   5.082  0.5242  1.3978  1.3465
   78MOL    H5724851   2.204   7.254   5.171 -0.5684 -1.6767 -1.0803
   78MOL    H5824852   2.288   7.143   5.272 -1.1611  0.3611  0.2207
   78MOL    H5924853   2.388   7.410   5.156  0.7465  2.2001  0.5930
   78MOL    H6024854   2.489   7.312   5.264 -0.6508  0.1783 -0.3792
   78MOL    H6124855   2.389   7.517   5.382  2.3287 -1.6278 -0.0025
   78MOL    H6224856   2.360   7.361   5.446 -2.3910 -0.0490 -0.0852
   78MOL    H6324857   2.232   7.455   5.363  0.1253  1.9148  1.3429
   78MOL    H6424858   2.408   7.051   4.838  0.2614  0.6530 -0.1674
   78MOL    H6524859   2.255   6.968   4.878  1.2163 -0.7941  0.1254
   78MOL    C6624860   2.225   7.179   4.854 -0.2215 -0.3176  0.5445
   78MOL    O6724861   2.117   7.208   4.943 -0.1094  0.1993 -0.1456
   78MOL    C6824862   2.006   7.124   4.921  0.5430 -0.0972  0.1248
   78MOL    C6924863   1.900   7.167   5.020  0.0430 -0.1206 -0.4689
   78MOL    C7024864   1.834   7.295   4.980  0.1419  0.4917 -0.5925
   78MOL    C7124865   2.303   7.307   4.838  0.6271  0.3070  0.4383
   78MOL    H7224866   2.182   7.155   4.757  0.5855  1.1616 -0.2017
   78MOL    H7324867   1.973   7.126   4.817  0.6317  1.1399  0.1119
   78MOL    H7424868   2.021   7.016   4.931 -2.0294 -0.6338 -1.4315
   78MOL    H7524869   1.951   7.187   5.114  0.3451  0.2990 -0.7167
   78MOL    H7624870   1.818   7.095   5.027 -1.3005  1.4296 -0.1150
   78MOL    H7724871   1.793   7.285   4.880  0.4274  1.1417 -0.7832
   78MOL    H7824872   1.902   7.380   4.970 -0.6002  1.1320 -0.3022
   78MOL    H7924873   1.755   7.318   5.051  1.7060  2.5194  0.5582
   78MOL    H8024874   2.224   7.380   4.819  0.4576 -0.1708 -0.7476
   78MOL    H8124875   2.355   7.328   4.931 -1.9907  2.8381  1.4232
   78MOL    C8224876   2.396   7.311   4.712 -0.2438 -0.2458  0.0307
   78MOL    O8324877   2.304   7.296   4.602 -0.4445  0.0126  0.6543
   78MOL    C8424878   2.361   7.254   4.482 -0.5364 -0.2002 -1.0959
   78MOL    C8524879   2.248   7.210   4.381 -0.1334 -0.1466  0.7291
   78MOL    C8624880   2.317   7.141   4.262 -0.0403 -0.1002  0.0906
   78MOL    C8724881   2.480   7.443   4.694  0.3489  1.0383  0.0994
   78MOL    H8824882   2.457   7.221   4.725  1.3217  1.1135  2.5318
   78MOL    H8924883   2.423   7.331   4.436  0.1787 -0.1880 -0.1113
   78MOL    H9024884   2.430   7.171   4.495 -0.1630  0.1592 -0.7850
   78MOL    H9124885   2.183   7.291   4.347 -1.2823 -0.4274  2.1543
   78MOL    H9224886   2.173   7.141   4.420 -0.9099 -0.4914 -1.3260
   78MOL    H9324887   2.406   7.195   4.230 -0.9223  2.5899  1.9599
   78MOL    H9424888   2.250   7.148   4.176 -1.7867  1.9731  1.5651
   78MOL    H9524889   2.342   7.037   4.281 -1.2017 -0.6176 -1.1561
   78MOL    H9624890   2.551   7.427   4.613 -1.3131 -0.0799 -1.1655
   78MOL    H9724891   2.412   7.522   4.662 -2.6297 -1.7353 -0.6523
   78MOL    C9824892   2.567   7.474   4.813 -0.7345 -0.0290  0.2519
   78MOL    O9924893   2.675   7.375   4.831  0.2996 -0.8966 -0.1363
   78MOL   C10024894   2.657   7.266   4.923 -0.6539  0.7657 -0.0026
   78MOL   C10124895   2.780   7.182   4.909 -0.1717 -0.1523 -0.1134
   78MOL   C10224896   2.906   7.248   4.956  0.6124 -0.3148 -0.1767
   78MOL   C10324897   2.627   7.609   4.780 -0.0816  0.6092 -0.0330
   78MOL   H10424898   2.512   7.484   4.907  0.9881  0.1518  1.2717
   78MOL   H10524899   2.646   7.303   5.025  0.9233 -0.6652  0.7010
   78MOL   H10624900   2.565   7.213   4.898  0.2392 -1.1434  0.6547
   78MOL   H10724901   2.793   7.158   4.804  0.5383  0.9051 -0.2800
   78MOL   H10824902   2.762   7.097   4.975  0.7429  0.5122  1.0215
   78MOL   H10924903   2.992   7.183   4.966  0.8139 -0.2011 -1.0625
   78MOL   H11024904   2.888   7.285   5.057  2.4100  0.5727 -0.1633
   78MOL   H11124905   2.934   7.343   4.910 -0.8776  0.2229  0.0113
   78MOL   H11224906   2.678   7.611   4.684 -0.4250  1.3029 -0.1994
   78MOL   H11324907   2.550   7.686   4.787 -0.1130  0.4900  1.0970
   78MOL   C11424908   2.742   7.650   4.880 -0.1905  0.7488 -0.3708
   78MOL   O11524909   2.799   7.781   4.852 -0.0450 -0.4098 -0.2309
   78MOL   C11624910   2.909   7.782   4.766  0.7920 -0.5087  1.0628
   78MOL   C11724911   2.954   0.096   4.733  0.4402  0.2834 -0.3639
   78MOL   C11824912   3.043   0.157   4.841  0.4118  0.8476  0.3400
   78MOL   C11924913   2.687   7.675   5.024  0.1631 -0.0603 -0.0762
   78MOL   H12024914   2.826   7.582   4.885 -0.0974  1.0149  2.3257
   78MOL   H12124915   2.985   7.722   4.816  0.5383 -0.4586  1.5104
   78MOL   H12224916   2.897   7.724   4.675  0.8854  0.3712  0.4842
   78MOL   H12324917   2.877   0.164   4.695  1.8105  0.6493 -2.6304
   78MOL   H12424918   3.031   0.081   4.658  0.6583 -0.1585 -0.0520
   78MOL   H12524919   3.105   0.076   4.880 -1.2330 -1.4554 -1.6915
   78MOL   H12624920   2.989   0.195   4.928 -1.0445  0.7519 -0.5083
   78MOL   H12724921   3.104   0.243   4.815 -1.5031  2.1960  0.2076
   78MOL   H12824922   2.667   7.580   5.074  1.8705 -0.6772 -0.5322
   78MOL   H12924923   2.761   7.725   5.086  0.6855 -1.2179  0.2482
   78MOL   C13024924   2.569   7.772   5.035 -0.4187 -0.1110  0.5064
   78MOL   O13124925   2.452   7.709   4.992  0.3391  0.0377 -0.7347
   78MOL   C13224926   2.346   7.798   4.950  0.0563  0.1586  0.3072
   78MOL   C13324927   2.218   7.719   4.909  0.6631 -0.2788 -0.0258
   78MOL   C13424928   2.152   7.647   5.028  0.0565  0.4432 -0.3428
   78MOL   C13524929   2.548   0.009   5.171  0.2047  0.2425  0.1236
   78MOL   H13624930   2.586   0.026   4.965  2.8645 -0.3185  0.9943
   78MOL   H13724931   2.312   0.048   5.019  0.4036  0.9309 -0.3781
   78MOL   H13824932   2.385   0.019   4.860 -0.0421  0.7564  0.5849
   78MOL   H13924933   2.239   7.644   4.833  1.6941 -0.7905  0.7549
   78MOL   H14024934   2.154   7.796   4.866  0.2346 -1.3238 -1.2999
   78MOL   H14124935   2.214   7.559   5.043 -1.7481 -0.2888  3.5516
   78MOL   H14224936   2.049   7.613   5.017  0.4866 -0.4714 -1.5989
   78MOL   H14324937   2.151   7.709   5.118  1.9889 -0.4018  0.2840
   78MOL   H14424938   2.447   0.042   5.193 -0.4431 -0.8218 -1.2389
   78MOL   H14524939   2.577   7.765   5.247  1.6831 -0.5006 -1.0853
   78MOL   C14624940   2.646   0.127   5.187  0.2789 -0.2975  0.3025
   78MOL   O14724941   2.571   0.240   5.126 -0.3744  0.3960 -0.1284
   78MOL   C14824942   2.658   0.341   5.082 -0.2314 -0.1657 -0.0035
   78MOL   C14924943   2.719   0.310   4.949 -0.2694 -0.1852 -0.4236
   78MOL   C15024944   2.625   0.332   4.825  0.1917  0.0175 -0.9771
   78MOL   C15124945   2.684   0.159   5.333  0.2495  0.5916  0.3301
   78MOL   H15224946   2.739   0.110   5.131 -0.0087  0.7547 -0.5152
   78MOL   H15324947   2.589   0.425   5.071 -1.2821 -1.0883 -0.6123
   78MOL   H15424948   2.737   0.360   5.154 -1.9729 -0.4033  2.0147
   78MOL   H15524949   2.755   0.207   4.945  0.8777  0.1639  0.5112
   78MOL   H15624950   2.800   0.382   4.940  0.9486 -1.5882 -0.9172
   78MOL   H15724951   2.526   0.291   4.843  0.0585  1.4047  1.6917
   78MOL   H15824952   2.666   0.296   4.731  2.0182  0.3077 -0.3223
   78MOL   H15924953   2.622   0.441   4.814  1.4927  0.3414  1.4584
   78MOL   H16024954   2.723   0.061   5.360 -0.8919  0.7801  2.7351
   78MOL   H16124955   2.772   0.223   5.344  1.1001 -0.7097  1.2002
   78MOL   C16224956   2.570   0.205   5.423 -0.2654 -0.0414 -0.5407
   78MOL   O16324957   2.488   0.103   5.461  0.0671 -0.5570  0.3691
   78MOL   C16424958   2.344   0.122   5.443 -0.0784  0.3246  0.0045
   78MOL   C16524959   2.276   7.818   5.459 -0.3381  0.2168  0.4160
   78MOL   C16624960   2.308   7.733   5.582 -0.2636 -0.3421 -0.1785
   78MOL   C16724961   2.624   0.240   5.560  0.4869  0.5187 -0.0900
   78MOL   H16824962   2.514   0.289   5.380  1.4598  2.5406  2.0172
   78MOL   H16924963   2.314   0.188   5.524  0.4255  1.3306 -0.6159
   78MOL   H17024964   2.334   0.159   5.341  1.9198 -0.5712 -0.5492
   78MOL   H17124965   2.303   7.749   5.379 -0.7960  0.8556 -0.2893
   78MOL   H17224966   2.168   7.827   5.451 -0.2227  1.3826  0.1264
   78MOL   H17324967   2.415   7.727   5.605 -0.4553  1.0208  1.1173
   78MOL   H17424968   2.264   7.635   5.565 -0.1110 -0.5114  0.3730
   78MOL   H17524969   2.253   7.771   5.668  1.2605  2.0552 -0.2215
   78MOL   H17624970   2.546   0.234   5.636  1.2769 -1.0314  0.6249
   78MOL   H17724971   2.693   0.156   5.574 -0.7441 -0.4646  0.2095
   78MOL   C17824972   2.692   0.382   5.562 -1.0146 -0.3413 -0.2387
   78MOL   O17924973   2.577   0.468   5.570  0.0710 -1.1111  0.0063
   78MOL   C18024974   2.561   0.567   5.471  0.6668 -0.7438 -0.1671
   78MOL   C18124975   2.441   0.658   5.504 -0.1489 -0.8353  0.0396
   78MOL   C18224976   2.478   0.750   5.620 -0.1218 -0.1533 -0.4245
   78MOL   C18324977   2.794   0.405   5.680 -0.6639  0.1103 -0.7757
   78MOL   H18424978   2.746   0.416   5.473 -2.8881  2.5906 -0.3232
   78MOL   H18524979   2.654   0.624   5.466 -0.4741  1.1794  0.3465
   78MOL   H18624980   2.536   0.528   5.372 -1.8377 -0.0600  0.1618
   78MOL   H18724981   2.349   0.604   5.528 -0.9905  0.7272  0.3891
   78MOL   H18824982   2.419   0.718   5.416 -0.4328  0.0364  0.7092
   78MOL   H18924983   2.514   0.692   5.705 -0.8830 -0.8637 -0.5836
   78MOL   H19024984   2.386   0.806   5.636 -0.4100 -0.5261 -0.7684
   78MOL   H19124985   2.554   0.822   5.591  0.1672 -0.4277 -0.3442
   78MOL   H19224986   2.802   0.513   5.689 -1.6517  0.3752 -2.8180
   78MOL   H19324987   2.741   0.369   5.769  0.8037 -0.6398 -0.1796
   78MOL   C19424988   2.930   0.343   5.673  0.1995  0.2466  0.4213
   78MOL   O19524989   2.996   0.372   5.558  0.2612 -0.3171 -0.0020
   78MOL   C19624990   3.068   0.266   5.496 -0.4556 -0.2246  0.3694
   78MOL   C19724991   3.116   0.317   5.359 -0.0967  0.3263  0.1412
   78MOL   C19824992   3.013   0.331   5.244  0.7754 -0.5502  0.2212
   78MOL   C19924993   3.019   0.350   5.797 -0.3393 -0.1020  0.1036
   78MOL   H20024994   2.912   0.236   5.668 -0.4801  0.4404 -1.8869
   78MOL   H20124995   3.154   0.237   5.555 -1.3037  0.7144  2.0938
   78MOL   H20224996   3.003   0.178   5.485 -0.2306 -0.2899 -0.4903
   78MOL   H20324997   3.198   0.258   5.319  0.0801  0.0878  0.8494
   78MOL   H20424998   3.162   0.415   5.370 -0.4455  0.2235  3.0942
   78MOL   H20524999   3.056   0.366   5.150  0.2989  0.9052  0.5216
   78MOL   H20625000   2.931   0.396   5.274  0.6458 -0.2362 -0.8059
   78MOL   H20725001   2.967   0.234   5.228  0.6891 -0.8018  1.8666
   78MOL   H20825002   2.972   0.289   5.874  2.6644  0.9889  2.9229
   78MOL   H20925003   3.105   0.287   5.773 -0.2128 -0.4460  1.4028
   78MOL   C21025004   3.051   0.489   5.856  0.1968  0.1786 -0.4405
   78MOL   O21125005   2.921   0.528   5.904  0.3531  1.2196  0.1782
   78MOL   C21225006   2.899   0.667   5.907 -0.6398 -0.2916 -0.1274
   78MOL   C21325007   2.769   0.695   5.987 -0.2538 -0.5269 -0.0556
   78MOL   C21425008   2.777   0.664   6.131  0.5219 -0.2127  0.4799
   78MOL   C21525009   3.151   0.503   5.982  0.1634  0.1355 -0.0068
   78MOL   H21625010   3.079   0.553   5.772  0.2017  1.1079  0.2552
   78MOL   H21725011   2.979   0.732   5.944 -0.2452 -0.4470 -0.7027
   78MOL   H21825012   2.879   0.696   5.804  0.7004 -2.1376 -0.9265
   78MOL   H21925013   2.689   0.634   5.946 -1.2018  0.4125  0.3927
   78MOL   H22025014   2.739   0.799   5.981  0.0880 -0.2599  2.2414
   78MOL   H22125015   2.846   0.736   6.177  0.8194 -0.9886  1.2595
   78MOL   H22225016   2.802   0.560   6.150 -2.6233 -1.0089  0.5447
   78MOL   H22325017   2.681   0.683   6.180 -0.9424 -0.5948 -2.1497
   78MOL   H22425018   3.123   0.597   6.030 -0.1979  0.6496 -1.2049
   78MOL   H22525019   3.153   0.419   6.052  0.8229 -1.0926 -1.4523
   78MOL   C22625020   3.297   0.517   5.930 -0.1716  0.0972  0.3467
   78MOL   O22725021   3.319   0.648   5.880  0.0003  0.0119  0.2040
   78MOL   C22825022   3.384   0.651   5.756  0.2982  0.2074 -0.2178
   78MOL   C22925023   3.377   0.794   5.694  0.3545 -0.0715 -0.6110
   78MOL   C23025024   3.442   0.893   5.784  1.0562  0.5625  0.6021
   78MOL   C23125025   3.390   0.518   6.054  0.2850 -0.2663 -0.1472
   78MOL   H23225026   3.321   0.446   5.850 -1.4332  0.3543 -0.2684
   78MOL   H23325027   3.491   0.636   5.770 -0.5332 -1.2763  5.9392
   78MOL   H23425028   3.351   0.576   5.685  1.7480  0.9647 -1.7466
   78MOL   H23525029   3.279   0.829   5.663  0.0582 -0.7419 -0.4558
   78MOL   H23625030   3.434   0.798   5.601  0.2984  0.6379 -0.6153
   78MOL   H23725031   3.389   0.887   5.879 -0.1922 -0.1760 -0.1321
   78MOL   H23825032   3.423   0.994   5.748 -0.5996 -0.3463 -1.1449
   78MOL   H23925033   3.551   0.885   5.793  0.9426  0.3547  1.9192
   78MOL   H24025034   3.417   0.618   6.088 -1.1693 -0.6824  2.3228
   78MOL   H24125035   3.341   0.463   6.135 -0.1357  1.3278  0.6959
   78MOL   C24225036   3.524   0.449   6.020  0.2230 -0.7314  0.0519
   78MOL   O24325037   3.606   0.466   6.133 -0.7171 -0.1246 -0.6055
   78MOL   C24425038   3.695   0.578   6.128 -0.1645 -0.0562 -0.1020
   78MOL   C24525039   3.821   0.544   6.220  0.1415 -0.1224 -0.3717
   78MOL   C24625040   3.913   0.436   6.155  0.1520 -0.4693 -0.4791
   78MOL   C24725041   3.502   0.301   6.000  0.2368  0.0461  0.5433
   78MOL   H24825042   3.561   0.500   5.931 -1.0390 -0.7967 -0.5340
   78MOL   H24925043   3.732   0.600   6.028 -1.2494  1.6217 -0.1540
   78MOL   H25025044   3.640   0.660   6.173  0.7079  0.3558  0.2100
   78MOL   H25125045   3.793   0.513   6.320  1.8802 -1.1517 -0.1830
   78MOL   H25225046   3.870   0.640   6.239  0.7003 -0.1910 -1.4108
   78MOL   H25325047   3.883   0.332   6.174 -0.0795 -0.0124  1.7945
   78MOL   H25425048   4.009   0.456   6.202  1.4397 -1.5427 -2.5795
   78MOL   H25525049   3.928   0.453   6.049 -0.5820  0.2785 -0.4702
   78MOL   H25625050   3.504   0.249   6.095  1.0140  1.5896  1.3893
   78MOL   H25725051   3.396   0.286   5.980 -0.8272  3.3400  3.2450
   78MOL   C25825052   3.582   0.241   5.883  0.3162  0.4990  0.3955
   78MOL   O25925053   3.544   0.307   5.757  0.0096  0.1146  0.2091
   78MOL   C26025054   3.463   0.233   5.668 -0.1873 -0.7196 -0.0634
   78MOL   C26125055   3.435   0.295   5.526 -0.3411  0.4460  0.1030
   78MOL   C26225056   3.558   0.360   5.463  0.1966  0.5675  0.7117
   78MOL   C26325057   3.723   0.264   5.897  0.3319 -0.3094 -0.3403
   78MOL   H26425058   3.570   0.133   5.875  1.3489  0.4268 -0.1311
   78MOL   H26525059   3.513   0.138   5.652  0.6666 -0.5549  1.5932
   78MOL   H26625060   3.372   0.201   5.720  1.3666 -2.0435  1.8904
   78MOL   H26725061   3.358   0.370   5.542 -0.2136  1.0009 -1.7529
   78MOL   H26825062   3.394   0.219   5.460 -2.2194  0.8233  0.8126
   78MOL   H26925063   3.540   0.392   5.360 -0.0470 -2.4630 -0.2189
   78MOL   H27025064   3.636   0.286   5.455  0.3329  0.6735  1.0463
   78MOL   H27125065   3.606   0.442   5.516 -0.5124  1.5991 -0.2153
   78MOL   H27225066   3.743   0.371   5.897 -2.1636  0.1768 -1.0462
   78MOL   H27325067   3.754   0.240   5.999  0.8076  1.6091 -0.0182
   78MOL   C27425068   3.812   0.194   5.792  0.0852 -0.3700 -0.2112
   78MOL   O27525069   3.937   0.265   5.800 -0.2311 -0.2576 -0.3343
   78MOL   C27625070   3.961   0.363   5.696 -0.5416  0.6637 -0.1310
   78MOL   C27725071   4.092   0.436   5.705  0.2732  0.8057 -0.1941
   78MOL   C27825072   4.122   0.542   5.817 -0.3975  0.3621  0.6223
   78MOL   C27925073   3.837   0.046   5.822 -0.6371 -0.6953 -0.1455
   78MOL   H28025074   3.773   0.212   5.692  0.0667 -0.9026 -0.3010
   78MOL   H28125075   3.942   0.318   5.599  1.1954  0.7130 -0.5017
   78MOL   H28225076   3.892   0.445   5.716  0.2809  1.6490 -1.2962
   78MOL   H28325077   4.101   0.490   5.611  0.4452 -0.3123 -0.8374
   78MOL   H28425078   4.173   0.364   5.711 -1.5901 -1.3719 -0.2394
   78MOL   H28525079   4.223   0.582   5.825 -0.7614  1.2759  0.7069
   78MOL   H28625080   4.105   0.514   5.921 -0.3880 -0.2907  0.4456
   78MOL   H28725081   4.064   0.628   5.782  0.4429  0.0914 -1.4925
   78MOL   H28825082   3.869   0.041   5.926 -0.5945 -2.5480 -0.2288
   78MOL   H28925083   3.746   7.821   5.848 -0.8197  0.1391  0.9658
   78MOL   C29025084   3.919   7.789   5.715  0.6263  0.4279  0.4669
   78MOL   O29125085   3.848   7.817   5.589  0.1465  0.5576 -0.1464
   78MOL   C29225086   3.747   7.725   5.553 -0.6861  0.4211 -1.1277
   78MOL   C29325087   3.707   7.765   5.411 -0.8766  0.0124 -0.2975
   78MOL   C29425088   3.826   7.738   5.315 -0.3260 -0.0844 -0.4327
   78MOL   C29525089   4.064   0.018   5.704  0.4322 -0.2705 -0.2519
   78MOL   H29625090   3.930   7.682   5.736 -2.0859  0.1008  0.4686
   78MOL   H29725091   3.793   7.626   5.560 -1.8057 -0.0562 -0.4059
   78MOL   H29825092   3.669   7.729   5.629  0.1409 -1.0146 -0.1811
   78MOL   H29925093   3.675   0.041   5.408  0.7926  0.5190 -1.0456
   78MOL   H30025094   3.624   7.699   5.384 -1.5109  0.7547 -0.1931
   78MOL   H30125095   3.915   7.798   5.334 -0.9663  0.3215  1.2651
   78MOL   H30225096   3.810   7.757   5.209  1.9737  1.8251 -0.4731
   78MOL   H30325097   3.861   7.638   5.341  0.7119  1.4984  4.7426
   78MOL   H30425098   4.064   0.112   5.649 -0.0741  1.0032  1.8638
   78MOL   H30525099   4.085   0.049   5.806 -0.1874 -0.5803 -0.0303
   78MOL   C30625100   4.175   7.757   5.651 -0.0405  0.2746 -0.2172
   78MOL   O30725101   4.215   7.668   5.758 -0.8633  0.1302  0.0122
   78MOL   C30825102   4.343   7.598   5.734 -0.1366  0.1156  0.5384
   78MOL   C30925103   4.362   7.501   5.858 -0.9229 -0.3385  0.8641
   78MOL   C31025104   4.392   7.568   5.996  0.3043 -0.1749 -0.2445
   78MOL   C31125105   4.129   7.684   5.521  0.0373  0.2681  0.1573
   78MOL   H31225106   4.259   7.822   5.627  0.3310  0.2031  0.8514
   78MOL   H31325107   4.351   7.542   5.641 -1.6322  1.7347 -0.5858
   78MOL   H31425108   4.422   7.673   5.732 -0.3612  0.3661  1.0100
   78MOL   H31525109   4.449   7.438   5.837  1.4115  2.7799  0.6910
   78MOL   H31625110   4.270   7.444   5.871 -0.6364 -0.9613  0.1960
   78MOL   H31725111   4.488   7.619   5.985  0.0331  0.2470 -0.6680
   78MOL   H31825112   4.395   7.503   6.083 -1.0604 -0.6737 -0.5542
   78MOL   H31925113   4.314   7.643   6.012  0.8440  0.0960  1.2388
   78MOL   H32025114   4.040   7.621   5.525 -0.6573  1.2057 -0.4781
   78MOL   H32125115   4.121   7.757   5.441 -0.3119  1.3313  1.1555
   78MOL   H32225116   4.218   7.624   5.501 -0.9590 -0.3934 -2.4403
   79MOL     C125117   0.305   1.979   3.208  0.1062 -0.2409  0.4842
   79MOL     O225118   0.359   2.028   3.329 -0.2793 -0.7010  0.4464
   79MOL     C325119   0.350   1.940   3.444  0.1780 -0.7849  0.4261
   79MOL     C425120   0.435   2.003   3.555  0.2271  0.4939  0.0248
   79MOL     C525121   0.388   1.952   3.694  0.0114 -0.0617  0.7922
   79MOL     C625122   0.336   2.072   3.090 -0.5756 -0.0551 -0.6987
   79MOL     H725123   0.196   1.975   3.215  0.1765 -0.3514  1.4946
   79MOL     H825124   0.245   1.922   3.467 -0.9724  2.9460 -1.4014
   79MOL     H925125   0.391   1.841   3.424  1.4043 -0.2419  0.2116
   79MOL    H1025126   0.447   2.112   3.559  0.0289  0.4860  0.7834
   79MOL    H1125127   0.538   1.965   3.553 -0.3979 -1.1981 -0.7445
   79MOL    H1225128   0.285   1.978   3.718  0.1881 -0.3189  1.8559
   79MOL    H1325129   0.462   1.982   3.769  0.5955 -1.1811  0.6784
   79MOL    H1425130   0.395   1.844   3.685 -0.4865 -0.1135  1.0468
   79MOL    H1525131   0.292   2.171   3.100 -1.2558 -0.0216 -3.6330
   79MOL    H1625132   0.443   2.095   3.086 -1.3618  4.7743  1.8082
   79MOL    H1725133   0.338   1.876   3.190 -0.3092 -0.4203  0.7662
   79MOL    C1825134   0.288   2.011   2.962 -0.3090 -0.6198 -0.4680
   79MOL    O1925135   0.150   2.033   2.953  0.3857  0.0031  0.0624
   79MOL    C2025136   0.064   1.922   2.981 -0.3017 -0.3362 -0.4998
   79MOL    C2125137   7.760   1.949   2.915 -0.0502  1.3338 -0.0467
   79MOL    C2225138   7.695   1.821   2.870 -0.2589  0.2182  0.7153
   79MOL    C2325139   0.348   2.081   2.843 -0.5094  0.9438  0.0219
   79MOL    H2425140   0.305   1.903   2.960 -2.2781 -0.9912  1.3202
   79MOL    H2525141   0.108   1.834   2.934  1.0419 -2.0147  3.7140
   79MOL    H2625142   0.044   1.900   3.086 -1.7093 -0.0406 -0.6897
   79MOL    H2725143   7.780   2.012   2.829  0.5631  2.0423  0.6006
   79MOL    H2825144   7.694   2.014   2.972 -0.1711  1.9281 -0.8697
   79MOL    H2925145   7.672   1.750   2.949 -1.9868 -1.0511 -0.8831
   79MOL    H3025146   7.758   1.764   2.802 -1.0312 -0.5577  0.6543
   79MOL    H3125147   7.605   1.838   2.811 -0.1083  0.6215  0.5962
   79MOL    H3225148   0.350   2.190   2.854 -0.6176  1.2228 -2.4051
   79MOL    H3325149   0.453   2.053   2.845 -0.8812 -0.5052 -0.5216
   79MOL    C3425150   0.292   2.042   2.710  0.1727 -0.2480  0.7365
   79MOL    O3525151   0.373   2.102   2.601 -0.0980  0.1273 -0.0308
   79MOL    C3625152   0.353   2.241   2.585  0.4248 -0.3052 -0.1555
   79MOL    C3725153   0.412   2.312   2.455 -0.5585  0.4588  0.3742
   79MOL    C3825154   0.560   2.319   2.463  0.4981 -0.8212  0.9053
   79MOL    C3925155   0.312   1.893   2.678 -0.7570 -0.1591 -0.1351
   79MOL    H4025156   0.184   2.061   2.707  0.0350 -0.7868  1.7864
   79MOL    H4125157   0.245   2.253   2.588  0.5074  1.0275 -1.5613
   79MOL    H4225158   0.382   2.291   2.677 -2.5385 -0.6676  1.0457
   79MOL    H4325159   0.366   2.410   2.441 -0.3532  0.2286 -1.9673
   79MOL    H4425160   0.388   2.251   2.368  1.8757  0.6108 -0.4227
   79MOL    H4525161   0.615   2.227   2.484 -1.1853 -1.5338  2.3105
   79MOL    H4625162   0.594   2.379   2.547  3.4295 -0.4113 -0.5184
   79MOL    H4725163   0.583   2.364   2.366  0.1490 -1.5399  0.4824
   79MOL    H4825164   0.414   1.858   2.663 -1.1392 -0.8682 -1.1925
   79MOL    H4925165   0.279   1.834   2.763  1.8278  1.7460  2.2537
   79MOL    C5025166   0.232   1.854   2.546 -0.5538 -0.1193 -0.2010
   79MOL    O5125167   0.264   1.709   2.531 -0.3210 -0.8726 -0.0251
   79MOL    C5225168   0.377   1.684   2.451  0.0541  0.7332  0.2170
   79MOL    C5325169   0.448   1.553   2.496  0.1654  0.2752 -0.2024
   79MOL    C5425170   0.507   1.557   2.638 -0.0714  0.1155 -0.6051
   79MOL    C5525171   0.087   1.876   2.541  0.7837 -0.6449 -0.6143
   79MOL    H5625172   0.262   1.911   2.459 -0.5829 -0.0048 -0.1361
   79MOL    H5725173   0.353   1.667   2.346 -0.9519  0.1025  0.5426
   79MOL    H5825174   0.450   1.765   2.455  1.1516 -0.0384 -2.4337
   79MOL    H5925175   0.522   1.526   2.421  0.6805  0.8957  0.0842
   79MOL    H6025176   0.369   1.477   2.502 -1.5702  1.9933 -0.8226
   79MOL    H6125177   0.606   1.510   2.639  0.3749  1.0407 -1.0777
   79MOL    H6225178   0.442   1.489   2.695 -0.2243 -1.3125 -2.4396
   79MOL    H6325179   0.495   1.652   2.689 -0.2634  0.4410 -1.2590
   79MOL    H6425180   0.057   1.849   2.643 -1.1027  1.2398 -0.6238
   79MOL    H6525181   0.064   1.982   2.525  0.7048 -0.5204  0.2949
   79MOL    C6625182   0.005   1.788   2.447  0.6423 -0.2361 -0.2005
   79MOL    O6725183   7.699   1.849   2.464  0.1860 -0.2358  0.6815
   79MOL    C6825184   7.603   1.749   2.487  0.7841 -0.0275 -0.0985
   79MOL    C6925185   7.474   1.828   2.517  0.1880  0.7039  0.7570
   79MOL    C7025186   7.373   1.736   2.593 -0.4917  0.1326 -0.4384
   79MOL    C7125187   0.049   1.800   2.307 -1.4023 -0.2854 -0.4596
   79MOL    H7225188   0.008   1.688   2.488  1.4494 -0.1444 -0.0274
   79MOL    H7325189   7.593   1.678   2.404  3.7198  0.5806 -1.0513
   79MOL    H7425190   7.631   1.686   2.571 -0.8916 -0.8519 -0.1306
   79MOL    H7525191   7.448   1.870   2.420  1.0935  0.4045  0.3719
   79MOL    H7625192   7.491   1.910   2.587  0.1746 -0.8311  2.5880
   79MOL    H7725193   7.282   1.790   2.618 -0.3706  0.3137 -0.3934
   79MOL    H7825194   7.421   1.685   2.677  1.6369  0.7271 -1.2431
   79MOL    H7925195   7.345   1.667   2.513  0.7791 -1.5868  0.5651
   79MOL    H8025196   0.032   1.903   2.276  1.0389  1.0558  2.3351
   79MOL    H8125197   0.156   1.777   2.313 -0.8838  2.0278 -0.2957
   79MOL    C8225198   0.002   1.706   2.196  0.4123 -0.3100 -0.9531
   79MOL    O8325199   0.059   1.767   2.081 -0.2446 -0.0231  0.3185
   79MOL    C8425200   7.797   1.808   1.979  0.0435  0.6570  0.4216
   79MOL    C8525201   0.058   1.853   1.864 -0.6426  0.1135  0.4933
   79MOL    C8625202   7.805   1.887   1.744  0.0144  0.0803 -0.9270
   79MOL    C8725203   0.044   1.557   2.203  0.2050  0.5090  0.2385
   79MOL    H8825204   7.721   1.712   2.190  0.3932  0.3030 -0.0201
   79MOL    H8925205   7.739   1.727   1.935  3.6895 -0.0389 -3.4119
   79MOL    H9025206   7.727   1.885   2.012 -0.1765  0.3135  0.7650
   79MOL    H9125207   0.127   1.771   1.842 -0.2138  0.6376 -0.1440
   79MOL    H9225208   0.124   1.933   1.899  2.1817 -2.5416  1.5268
   79MOL    H9325209   7.748   1.980   1.752 -0.2273  0.3536 -4.6677
   79MOL    H9425210   7.727   1.815   1.720 -0.9155  0.8212 -0.2086
   79MOL    H9525211   0.041   1.891   1.656  2.3134 -0.7574  0.6646
   79MOL    H9625212   0.062   1.518   2.102 -2.7555  1.3152 -0.6412
   79MOL    H9725213   0.146   1.561   2.242  0.3854  1.2489 -0.2918
   79MOL    C9825214   7.781   1.458   2.279  0.3434 -0.3974  0.2907
   79MOL    O9925215   7.667   1.432   2.198 -0.0079 -0.2339 -0.3795
   79MOL   C10025216   7.543   1.391   2.268  0.0488 -0.1232  0.1877
   79MOL   C10125217   7.418   1.413   2.181 -0.6755  0.0376 -0.3175
   79MOL   C10225218   7.281   1.406   2.251  0.1619  0.0076  0.0245
   79MOL   C10325219   0.022   1.324   2.300 -0.7397  0.4140 -0.2595
   79MOL   H10425220   7.761   1.503   2.376  0.3273 -0.0708  0.1350
   79MOL   H10525221   7.540   1.283   2.283 -0.1099 -0.2911 -0.9919
   79MOL   H10625222   7.530   1.451   2.358  0.3703  0.6158 -0.2476
   79MOL   H10725223   7.409   1.339   2.101 -0.5519 -0.3473  0.0261
   79MOL   H10825224   7.432   1.504   2.122  1.5327 -0.2092 -0.1945
   79MOL   H10925225   7.274   1.489   2.321 -0.8409  0.6469 -0.8240
   79MOL   H11025226   7.252   1.313   2.300 -2.6346 -0.3095 -2.1075
   79MOL   H11125227   7.198   1.423   2.182  1.0672  0.0771 -1.0575
   79MOL   H11225228   7.776   1.245   2.317  0.6892 -0.6676  0.9587
   79MOL   H11325229   0.083   1.298   2.214  0.0322  1.5121 -0.0494
   79MOL   C11425230   0.118   1.314   2.420 -0.3774 -0.0391  0.8984
   79MOL   O11525231   0.038   1.327   2.538  0.1319  0.1363 -0.1673
   79MOL   C11625232   0.096   1.410   2.640 -0.7036 -0.3684 -0.7581
   79MOL   C11725233   7.824   1.414   2.745  0.3644 -0.4072 -0.2337
   79MOL   C11825234   0.041   1.450   2.885 -0.3282 -0.6325  0.3564
   79MOL   C11925235   0.186   1.175   2.431  0.6541  0.2565 -0.1359
   79MOL   H12025236   0.200   1.386   2.414  0.0101 -0.5137  0.3487
   79MOL   H12125237   0.187   1.370   2.683 -0.1823  0.0495 -1.4668
   79MOL   H12225238   0.125   1.507   2.602 -1.4424  0.5072  0.8597
   79MOL   H12325239   7.765   1.322   2.743 -1.0097  0.4337  0.7956
   79MOL   H12425240   7.756   1.490   2.709  2.6421  1.7973  0.0349
   79MOL   H12525241   0.127   1.386   2.905  0.4983 -0.6262 -2.9037
   79MOL   H12625242   7.792   1.424   2.958 -1.8216 -0.9612 -1.2948
   79MOL   H12725243   0.070   1.555   2.890 -2.5159 -0.0724  1.8838
   79MOL   H12825244   0.225   1.173   2.533 -0.9927 -2.5224  0.4875
   79MOL   H12925245   0.108   1.099   2.431  0.4780  0.4348 -0.0646
   79MOL   C13025246   0.295   1.143   2.327  0.0650 -0.1808 -0.3044
   79MOL   O13125247   0.403   1.233   2.337 -0.0577 -0.0465  0.2015
   79MOL   C13225248   0.481   1.262   2.222 -1.3189  0.1451 -0.2173
   79MOL   C13325249   0.413   1.334   2.101  0.2037 -0.5406  0.2960
   79MOL   C13425250   0.505   1.379   1.985 -0.3230 -0.3527 -0.6118
   79MOL   C13525251   0.347   1.005   2.345  0.6748  0.2841 -0.6527
   79MOL   H13625252   0.250   1.144   2.228  0.2321  0.4583 -0.3796
   79MOL   H13725253   0.552   1.329   2.272 -1.5837 -1.2044  2.0089
   79MOL   H13825254   0.537   1.178   2.181  1.5687  1.9636 -0.2184
   79MOL   H13925255   0.362   1.425   2.128  1.0979  0.0290  0.0978
   79MOL   H14025256   0.339   1.261   2.069 -2.2015  1.8490  0.3126
   79MOL   H14125257   0.598   1.415   2.028 -0.8527  0.4697 -0.1586
   79MOL   H14225258   0.459   1.462   1.932  3.2238  0.7879 -2.1128
   79MOL   H14325259   0.518   1.293   1.919 -0.8093 -0.2880 -0.7884
   79MOL   H14425260   0.430   1.001   2.275 -0.2163 -0.3139 -1.6915
   79MOL   H14525261   0.408   0.998   2.435  1.0782  2.0646 -0.7655
   79MOL   C14625262   0.250   0.885   2.319  0.6815  0.1732  0.1040
   79MOL   O14725263   0.166   0.919   2.211  0.3855  0.0444  0.0374
   79MOL   C14825264   0.049   0.844   2.192  0.2302 -0.1270  1.1204
   79MOL   C14925265   7.796   0.909   2.077  0.4239  0.2390  0.8371
   79MOL   C15025266   7.784   1.063   2.083 -0.6615  0.0865  0.1650
   79MOL   C15125267   0.328   0.758   2.272  0.3691 -0.1447  0.2750
   79MOL   H15225268   0.187   0.859   2.404  2.3198  0.6039  1.4822
   79MOL   H15325269   0.076   0.741   2.167 -1.2074  0.2898 -2.4033
   79MOL   H15425270   7.816   0.852   2.282 -0.5228 -2.2882  0.8367
   79MOL   H15525271   7.696   0.865   2.075  1.2807 -1.7813 -0.1531
   79MOL   H15625272   0.009   0.883   1.979 -0.9201 -0.3214  0.4141
   79MOL   H15725273   7.752   1.089   2.184 -0.9790 -3.6387  1.0958
   79MOL   H15825274   7.708   1.095   2.011 -0.6224 -0.1910 -0.0013
   79MOL   H15925275   0.049   1.108   2.048 -0.3467  0.9371  2.0215
   79MOL   H16025276   0.260   0.684   2.230  0.1085 -0.8306  1.8524
   79MOL   H16125277   0.392   0.782   2.188  2.0259 -3.1079  0.6520
   79MOL   C16225278   0.420   0.706   2.385  0.0344  0.3354  0.8406
   79MOL   O16325279   0.345   0.701   2.506  0.2806 -0.2842 -0.2658
   79MOL   C16425280   0.430   0.715   2.614  0.5801  0.0082  0.0679
   79MOL   C16525281   0.351   0.719   2.743  0.6918 -0.1487 -0.8545
   79MOL   C16625282   0.437   0.722   2.873  0.9297  0.2997 -0.3481
   79MOL   C16725283   0.479   0.569   2.341 -0.5471  0.1017  0.1744
   79MOL   H16825284   0.496   0.784   2.390 -0.8473  1.1928  0.9588
   79MOL   H16925285   0.508   0.641   2.630  2.2881  1.1874 -2.6368
   79MOL   H17025286   0.482   0.810   2.602 -0.0950  0.3083 -0.5606
   79MOL   H17125287   0.280   0.637   2.754  1.3042 -0.5788 -0.0419
   79MOL   H17225288   0.284   0.806   2.740  1.3748  0.4603  0.9041
   79MOL   H17325289   0.535   0.766   2.853  0.6367  1.1479  0.0501
   79MOL   H17425290   0.460   0.616   2.886 -0.6428 -0.0223 -0.0482
   79MOL   H17525291   0.389   0.757   2.965  0.0694  0.6473 -0.9313
   79MOL   H17625292   0.521   0.528   2.433  1.9381  2.7677  0.2933
   79MOL   H17725293   0.400   0.502   2.306  0.6217 -1.7689  1.0336
   79MOL   C17825294   0.597   0.568   2.240  0.0099  0.9841 -0.1983
   79MOL   O17925295   0.695   0.652   2.288  0.1121 -0.6750 -0.1375
   79MOL   C18025296   0.717   0.777   2.230 -0.2097  0.2060  0.2170
   79MOL   C18125297   0.783   0.868   2.335 -0.1238  0.3451  0.1130
   79MOL   C18225298   0.941   0.855   2.327  0.2356 -0.4793 -0.4776
   79MOL   C18325299   0.663   0.425   2.232  0.5311 -0.1716  0.5364
   79MOL   H18425300   0.569   0.604   2.141 -0.4480 -0.4737 -0.6089
   79MOL   H18525301   0.769   0.768   2.134 -1.3220 -0.7226 -0.3136
   79MOL   H18625302   0.619   0.816   2.202 -0.2134 -0.2080 -0.3458
   79MOL   H18725303   0.748   0.835   2.433 -2.1170 -0.7965 -0.9667
   79MOL   H18825304   0.756   0.973   2.326  2.4385  0.9645 -1.0357
   79MOL   H18925305   0.985   0.899   2.416 -0.2735 -1.2827  0.1650
   79MOL   H19025306   0.984   0.896   2.235  0.1088 -1.4534 -0.9804
   79MOL   H19125307   0.972   0.751   2.315  0.2010 -0.3411 -1.8492
   79MOL   H19225308   0.748   0.438   2.165  0.5127 -0.2793  0.4913
   79MOL   H19325309   0.700   0.393   2.329 -0.0895 -1.6469  0.3027
   79MOL   C19425310   0.572   0.313   2.164 -0.0186  0.4846 -0.1867
   79MOL   O19525311   0.482   0.279   2.266 -0.2405  0.4853  0.1017
   79MOL   C19625312   0.516   0.160   2.337 -0.2443  0.2010 -0.0827
   79MOL   C19725313   0.409   0.146   2.439 -0.4732 -0.3588  0.1870
   79MOL   C19825314   0.408   0.254   2.553 -0.0467  0.4020  1.1205
   79MOL   C19925315   0.488   0.344   2.030 -0.3375 -0.2602 -0.1304
   79MOL   H20025316   0.638   0.227   2.147 -1.0454 -0.0956 -1.3008
   79MOL   H20125317   0.518   0.070   2.276 -0.4197 -0.7847  1.3450
   79MOL   H20225318   0.608   0.166   2.395  0.0008 -1.9657 -0.2060
   79MOL   H20325319   0.405   0.052   2.496 -0.8540 -1.4723 -1.6435
   79MOL   H20425320   0.312   0.141   2.391 -1.9730  1.5454  2.8907
   79MOL   H20525321   0.501   0.241   2.608 -0.9463  0.6999  2.7420
   79MOL   H20625322   0.328   0.234   2.624  0.1022  1.3191  1.5575
   79MOL   H20725323   0.405   0.356   2.516  2.0137  1.5946  4.0705
   79MOL   H20825324   0.435   0.251   2.010 -0.3023 -0.0710 -1.1191
   79MOL   H20925325   0.413   0.418   2.054  1.3198  0.5161  2.8913
   79MOL   C21025326   0.570   0.385   1.910 -0.4741  0.5588  0.5893
   79MOL   O21125327   0.660   0.275   1.887 -0.4104  0.7374  0.2824
   79MOL   C21225328   0.779   0.309   1.814 -0.1127  0.4517 -0.2941
   79MOL   C21325329   0.882   0.187   1.818 -0.3989 -0.6272 -0.2625
   79MOL   C21425330   0.981   0.198   1.706  0.1964  0.5169 -0.0093
   79MOL   C21525331   0.477   0.417   1.789 -0.1142 -0.2118 -0.4565
   79MOL   H21625332   0.626   0.476   1.933 -0.3682  0.2140  1.7117
   79MOL   H21725333   0.766   0.341   1.710  2.5654  0.8977 -0.5250
   79MOL   H21825334   0.828   0.398   1.853  1.3297 -0.3579 -0.2413
   79MOL   H21925335   0.816   0.100   1.822  1.5337 -2.1406 -0.1840
   79MOL   H22025336   0.939   0.187   1.911 -0.5202  0.8403 -0.1866
   79MOL   H22125337   0.950   0.199   1.602 -1.0931  3.4313  0.3612
   79MOL   H22225338   1.042   0.108   1.719  2.1908  2.0920  1.9957
   79MOL   H22325339   1.032   0.293   1.719 -0.4139  0.7267  0.9111
   79MOL   H22425340   0.543   0.433   1.704  1.1006 -1.2829  0.2718
   79MOL   H22525341   0.415   0.328   1.776  0.3945 -0.8760  1.4754
   79MOL   C22625342   0.404   0.545   1.800 -0.7775 -0.7697  0.0187
   79MOL   O22725343   0.505   0.645   1.808 -0.2014 -0.2572 -0.2390
   79MOL   C22825344   0.460   0.747   1.895  0.2496  0.1800  0.5442
   79MOL   C22925345   0.550   0.869   1.872 -0.2718  0.4132  0.4556
   79MOL   C23025346   0.524   0.989   1.967  0.2295 -0.1749 -0.3856
   79MOL   C23125347   0.330   0.582   1.672  0.0431  0.0285 -0.2231
   79MOL   H23225348   0.336   0.546   1.885 -1.6103  0.0933 -0.6371
   79MOL   H23325349   0.355   0.773   1.883  0.2486  0.0177  0.2111
   79MOL   H23425350   0.475   0.721   2.000  1.3765  1.7539  0.7868
   79MOL   H23525351   0.531   0.902   1.770  0.1892  1.1939  0.6217
   79MOL   H23625352   0.652   0.837   1.890  0.1578 -0.0994 -2.6531
   79MOL   H23725353   0.519   0.954   2.070  1.2394  0.1186 -0.2293
   79MOL   H23825354   0.438   1.051   1.944  0.3174 -0.1612 -0.6778
   79MOL   H23925355   0.614   1.050   1.978 -2.3008  4.2426 -3.0613
   79MOL   H24025356   0.296   0.685   1.677 -0.1144  0.0634 -1.8895
   79MOL   H24125357   0.402   0.577   1.591 -1.0465 -3.8513 -1.0630
   79MOL   C24225358   0.215   0.483   1.633 -0.3933 -0.1848  0.4076
   79MOL   O24325359   0.127   0.475   1.741  0.0943 -0.0441  0.2146
   79MOL   C24425360   0.062   0.352   1.762  0.2166  0.0439 -0.1542
   79MOL   C24525361   7.801   0.360   1.887  0.3208  0.0817  0.7155
   79MOL   C24625362   0.042   0.383   2.018 -0.2009  0.1804 -0.5015
   79MOL   C24725363   0.144   0.533   1.507 -0.6067 -0.4146 -0.2250
   79MOL   H24825364   0.248   0.382   1.613 -3.4619 -1.1317 -0.0467
   79MOL   H24925365   0.000   0.338   1.673  1.7279  0.5060 -1.2910
   79MOL   H25025366   0.126   0.265   1.771  1.5707  1.0931  0.5998
   79MOL   H25125367   7.757   0.261   1.875  0.0008  0.4451 -1.4541
   79MOL   H25225368   7.730   0.443   1.888  2.9165  2.4460 -1.0768
   79MOL   H25325369   7.792   0.382   2.095 -0.2240  1.0870 -0.5076
   79MOL   H25425370   0.075   0.487   2.021 -1.0177  0.4068  0.9646
   79MOL   H25525371   0.125   0.316   2.037 -0.8199 -0.5154 -0.2088
   79MOL   H25625372   0.048   0.482   1.506 -1.1794  0.6000  0.9803
   79MOL   H25725373   0.115   0.638   1.513  0.3405 -0.1338 -0.3931
   79MOL   C25825374   0.217   0.503   1.369 -0.8570 -0.3597  0.0137
   79MOL   O25925375   0.324   0.592   1.353 -0.6437 -0.4335 -0.0353
   79MOL   C26025376   0.378   0.605   1.220 -0.2985  0.2173 -1.0711
   79MOL   C26125377   0.471   0.720   1.202  0.8368  1.0466 -0.0021
   79MOL   C26225378   0.510   0.743   1.061  0.9341  0.1130 -0.0612
   79MOL   C26325379   0.255   0.355   1.338  0.6998 -0.1202  0.0773
   79MOL   H26425380   0.148   0.534   1.290 -0.2586 -1.7317 -1.0737
   79MOL   H26525381   0.431   0.515   1.190 -0.9180 -0.8226  0.8401
   79MOL   H26625382   0.288   0.617   1.161 -0.9267 -0.3712 -0.2427
   79MOL   H26725383   0.557   0.704   1.267  2.1240  0.3728 -1.8355
   79MOL   H26825384   0.419   0.807   1.244  0.7683  0.2458  1.6208
   79MOL   H26925385   0.427   0.765   0.994  1.9757 -0.0021 -1.3925
   79MOL   H27025386   0.557   0.660   1.008 -0.0876  0.1984 -1.1159
   79MOL   H27125387   0.572   0.832   1.071  0.2459  0.7933 -1.6909
   79MOL   H27225388   0.288   0.340   1.235  2.5886 -2.0835  0.9176
   79MOL   H27325389   0.333   0.323   1.408  0.8916  2.4526  1.1092
   79MOL   C27425390   0.129   0.265   1.358  0.3525  0.1476 -0.4520
   79MOL   O27525391   0.032   0.320   1.270  0.1626  0.2367 -0.8526
   79MOL   C27625392   7.719   0.302   1.293  0.5671  0.8728 -0.2758
   79MOL   C27725393   7.633   0.362   1.174 -0.3678 -0.4188  0.5169
   79MOL   C27825394   7.630   0.515   1.166  0.5543 -0.5634  0.7372
   79MOL   C27925395   0.154   0.119   1.321  0.6655  0.0197  0.1719
   79MOL   H28025396   0.107   0.275   1.464 -0.1232 -1.1729 -0.4108
   79MOL   H28125397   7.691   0.197   1.295 -0.3369  1.0514 -2.7017
   79MOL   H28225398   7.678   0.342   1.386 -0.9591 -0.2890 -0.4374
   79MOL   H28325399   7.532   0.322   1.182 -0.7781  0.7562  1.5050
   79MOL   H28425400   7.676   0.323   1.082  0.3478 -2.6725  1.7803
   79MOL   H28525401   7.720   0.563   1.205 -0.5214  2.5960 -0.5778
   79MOL   H28625402   7.547   0.546   1.229  0.5273  1.7734 -0.3916
   79MOL   H28725403   7.623   0.559   1.066 -2.0049  1.2678  1.6723
   79MOL   H28825404   0.127   0.104   1.216 -0.2210 -0.8668  0.5141
   79MOL   H28925405   0.261   0.099   1.324  0.9328  1.4384  0.1502
   79MOL   C29025406   0.077   0.021   1.412 -0.1853  0.5255  0.5925
   79MOL   O29125407   0.102   7.715   1.365 -0.1973 -0.0255 -0.4663
   79MOL   C29225408   0.009   7.609   1.404 -0.0696 -0.4151 -1.0498
   79MOL   C29325409   0.075   7.474   1.363  0.1004 -0.1075 -0.5516
   79MOL   C29425410   0.224   7.461   1.404  0.2238 -0.2254 -0.8431
   79MOL   C29525411   0.117   0.028   1.556 -0.4891  0.7022  0.8196
   79MOL   H29625412   7.799   0.046   1.417 -0.2767  0.2640 -0.0676
   79MOL   H29725413   0.001   7.596   1.512  3.5424  0.2716 -0.6159
   79MOL   H29825414   7.738   7.610   1.358 -0.5467 -2.1024 -0.1011
   79MOL   H29925415   0.085   7.458   1.256  1.3152  0.3058 -0.5107
   79MOL   H30025416   0.011   7.395   1.400  1.2271  0.2436  2.2719
   79MOL   H30125417   0.263   7.365   1.369  1.6741 -0.5172  1.5119
   79MOL   H30225418   0.243   7.469   1.511 -1.3907 -1.4999 -0.4495
   79MOL   H30325419   0.286   7.542   1.366 -0.9860  0.4336 -1.4453
   79MOL   H30425420   0.093   0.124   1.601  0.3186  0.4138  1.9091
   79MOL   H30525421   0.051   7.781   1.600 -1.4220 -0.6117 -2.6661
   79MOL   C30625422   0.262   7.817   1.591 -0.0357  0.8815 -0.0620
   79MOL   O30725423   0.351   0.091   1.570 -0.0827 -0.3034  0.8441
   79MOL   C30825424   0.486   0.048   1.535  0.2158 -0.5019 -0.2458
   79MOL   C30925425   0.555   0.170   1.470 -0.1876 -0.2940  0.0266
   79MOL   C31025426   0.708   0.168   1.475 -0.5995  0.1753 -0.3288
   79MOL   C31125427   0.281   7.789   1.740 -0.4155 -0.4435 -0.0069
   79MOL   H31225428   0.288   7.730   1.531 -0.5695 -0.4699  1.6327
   79MOL   H31325429   0.536   0.036   1.631 -0.4867  0.5890  0.2668
   79MOL   H31425430   0.491   7.783   1.479 -0.9737 -0.1023 -1.0177
   79MOL   H31525431   0.524   0.258   1.526 -0.3845  0.3765 -1.1250
   79MOL   H31625432   0.512   0.182   1.370  1.6024 -2.4983 -1.0666
   79MOL   H31725433   0.756   0.104   1.400 -3.1470 -1.2447 -0.8167
   79MOL   H31825434   0.745   0.119   1.565 -0.1948 -0.7021 -0.9618
   79MOL   H31925435   0.748   0.267   1.455  2.0848 -0.7226  0.4402
   79MOL   H32025436   0.383   7.762   1.767 -1.1651 -0.8640  2.5844
   79MOL   H32125437   0.252   0.057   1.783 -1.0393  0.0134 -1.4096
   79MOL   H32225438   0.205   7.718   1.772  1.8104 -2.2698  1.3720
   80MOL     C125439   3.516   6.623   3.626  0.3049  0.5098  0.2510
   80MOL     O225440   3.599   6.718   3.557 -0.2360  0.1135 -0.4388
   80MOL     C325441   3.524   6.841   3.554  0.3325 -0.0583  0.1292
   80MOL     C425442   3.426   6.856   3.433  0.2262  0.8402 -0.0522
   80MOL     C525443   3.493   6.808   3.301  0.1703 -0.4687  0.1989
   80MOL     C625444   3.598   6.486   3.630 -0.2216 -0.9650 -0.3634
   80MOL     H725445   3.423   6.603   3.574  0.8015 -0.2081 -0.3834
   80MOL     H825446   3.453   6.848   3.637  0.9230  1.7393  0.5132
   80MOL     H925447   3.589   6.925   3.580 -1.1188  0.4253  2.3526
   80MOL    H1025448   3.403   6.962   3.421 -0.9914  0.6524  0.5224
   80MOL    H1125449   3.334   6.799   3.442  1.4329 -1.0597  0.4927
   80MOL    H1225450   3.578   6.866   3.266 -0.1764  0.5407  1.0088
   80MOL    H1325451   3.425   6.798   3.216 -0.6544  0.6356  0.7114
   80MOL    H1425452   3.546   6.713   3.312 -1.1801 -1.2468  0.2428
   80MOL    H1525453   3.639   6.484   3.529  1.4474  2.1644  0.1924
   80MOL    H1625454   3.679   6.478   3.702  0.5238 -1.9690 -1.3047
   80MOL    H1725455   3.491   6.653   3.728 -0.0887 -0.4284  0.4370
   80MOL    C1825456   3.510   6.366   3.648 -0.1726  0.1332 -0.1563
   80MOL    O1925457   3.396   6.369   3.561  0.1823 -0.3168 -0.5934
   80MOL    C2025458   3.410   6.401   3.419  0.6365 -0.1096  0.1203
   80MOL    C2125459   3.285   6.357   3.343  0.4615  0.1778 -0.0383
   80MOL    C2225460   3.162   6.440   3.366  0.6149 -0.5979  0.7538
   80MOL    C2325461   3.578   6.224   3.627 -0.4689 -0.5428  0.4365
   80MOL    H2425462   3.477   6.358   3.751 -0.5417 -1.1851 -0.3633
   80MOL    H2525463   3.414   6.508   3.399  0.6856 -0.4220 -1.6251
   80MOL    H2625464   3.503   6.355   3.385 -0.0816 -1.3582 -0.2124
   80MOL    H2725465   3.267   6.250   3.360  2.8340 -0.3738 -0.9280
   80MOL    H2825466   3.303   6.354   3.236 -1.4247 -2.6379 -0.3354
   80MOL    H2925467   3.114   6.424   3.463  0.4294  1.9653  1.1141
   80MOL    H3025468   3.087   6.402   3.298  1.2417 -0.0878 -0.2292
   80MOL    H3125469   3.195   6.543   3.358  0.2806 -0.3851  2.0212
   80MOL    H3225470   3.635   6.220   3.535 -0.1002 -1.3514  0.6996
   80MOL    H3325471   3.650   6.205   3.707 -0.8165  2.4680  1.5552
   80MOL    C3425472   3.478   6.104   3.627 -0.2310 -0.1909 -0.0259
   80MOL    O3525473   3.531   5.990   3.561 -0.4463 -0.8660 -0.1727
   80MOL    C3625474   3.506   5.990   3.420 -0.3119 -0.0430 -0.3924
   80MOL    C3725475   3.555   5.871   3.338  0.3826 -0.7332 -0.9701
   80MOL    C3825476   3.479   5.836   3.210 -0.0825  0.3273  0.1928
   80MOL    C3925477   3.444   6.048   3.762 -0.4669 -0.1003  0.6570
   80MOL    H4025478   3.383   6.132   3.581 -0.3158  0.4833  0.5499
   80MOL    H4125479   3.398   5.983   3.410 -0.2594 -1.1685 -0.2250
   80MOL    H4225480   3.538   6.083   3.373 -1.8324 -0.7588 -2.9139
   80MOL    H4325481   3.553   5.788   3.408  0.0920  0.7292  0.7949
   80MOL    H4425482   3.658   5.883   3.303  0.5313  0.1362 -0.2589
   80MOL    H4525483   3.383   5.793   3.237  0.1368 -1.2954 -1.4711
   80MOL    H4625484   3.530   5.752   3.162 -3.0443 -1.0717 -0.6237
   80MOL    H4725485   3.459   5.918   3.141 -1.7501 -0.7029 -0.5787
   80MOL    H4825486   3.539   6.002   3.791  1.3064  1.1189 -2.8587
   80MOL    H4925487   3.423   6.122   3.839  0.5091 -0.0640  0.8942
   80MOL    C5025488   3.335   5.928   3.769  0.0378 -0.5954 -0.3718
   80MOL    O5125489   3.338   5.856   3.891 -0.0328 -0.2382  0.2734
   80MOL    C5225490   3.445   5.766   3.895 -0.0005 -0.2284  0.0360
   80MOL    C5325491   3.408   5.661   4.001  0.4929 -0.2190  0.0316
   80MOL    C5425492   3.273   5.584   3.981  0.0319 -0.1006  0.2058
   80MOL    C5525493   3.195   5.984   3.760  0.4382 -0.1332 -1.0134
   80MOL    H5625494   3.348   5.869   3.678 -1.4932 -0.2371 -0.8384
   80MOL    H5725495   3.459   5.713   3.801  0.0371 -0.1094 -0.0250
   80MOL    H5825496   3.540   5.816   3.915 -1.7015  2.8851  0.7833
   80MOL    H5925497   3.396   5.720   4.091 -0.2153  0.2166 -0.3366
   80MOL    H6025498   3.494   5.595   4.004 -1.6186 -3.1658 -1.2841
   80MOL    H6125499   3.262   5.498   4.048  0.6455 -0.8696 -0.6693
   80MOL    H6225500   3.269   5.529   3.887 -1.8685  1.0993 -0.4433
   80MOL    H6325501   3.180   5.640   3.986  1.0247  1.5727  0.3183
   80MOL    H6425502   3.172   6.027   3.857 -0.7253 -1.5684 -0.6404
   80MOL    H6525503   3.197   6.075   3.700 -0.7960 -1.0803 -2.5235
   80MOL    C6625504   3.103   5.866   3.718 -0.2481  0.1154  0.3321
   80MOL    O6725505   2.965   5.881   3.754 -0.2785  0.3990  0.1053
   80MOL    C6825506   2.931   5.873   3.889 -0.4000  0.0386 -0.2725
   80MOL    C6925507   2.779   5.880   3.896 -0.4837 -0.0300  0.0589
   80MOL    C7025508   2.733   6.033   3.888  0.0963 -0.2911  0.2642
   80MOL    C7125509   3.108   5.846   3.562 -0.0287  0.3559 -0.9293
   80MOL    H7225510   3.136   5.775   3.769 -0.2258  0.6680  1.3266
   80MOL    H7325511   2.968   5.779   3.930  0.3913  1.3984  2.2305
   80MOL    H7425512   2.981   5.946   3.952  0.8674 -1.1490  0.1233
   80MOL    H7525513   2.746   5.843   3.993 -0.7797  0.4834  0.1586
   80MOL    H7625514   2.719   5.827   3.821  2.1775  2.2928 -3.9037
   80MOL    H7725515   2.626   6.045   3.874  0.3362  1.2349 -0.3938
   80MOL    H7825516   2.786   6.071   3.800  1.1814 -0.4232  0.8519
   80MOL    H7925517   2.769   6.093   3.972  0.2114  0.2918 -0.1954
   80MOL    H8025518   3.021   5.898   3.522  1.8688  3.2851 -1.4401
   80MOL    H8125519   3.195   5.892   3.514  1.6070 -2.1993 -0.5228
   80MOL    C8225520   3.087   5.699   3.522 -0.0939 -0.9521  0.9630
   80MOL    O8325521   3.067   5.690   3.378 -0.2533 -0.7498 -0.1034
   80MOL    C8425522   2.937   5.729   3.332 -0.6669  0.3155 -0.1509
   80MOL    C8525523   2.916   5.687   3.184 -0.4925  0.4655  0.4358
   80MOL    C8625524   2.792   5.760   3.125 -0.4971 -0.6854  0.6917
   80MOL    C8725525   3.210   5.617   3.546  0.0036 -0.2816 -0.1713
   80MOL    H8825526   3.001   5.652   3.569 -0.8472 -0.9303 -0.3754
   80MOL    H8925527   2.859   5.684   3.393  0.0783  1.5565  1.7696
   80MOL    H9025528   2.920   5.836   3.344 -1.6068  0.0896  0.5566
   80MOL    H9125529   2.914   5.578   3.172  0.8062  0.6117 -1.2652
   80MOL    H9225530   2.995   5.733   3.125 -1.6370  0.0276 -1.4969
   80MOL    H9325531   2.706   5.727   3.183 -1.0659  0.4786  0.5110
   80MOL    H9425532   2.773   5.719   3.026 -2.3575  0.0013  0.7597
   80MOL    H9525533   2.793   5.869   3.119  0.3187 -0.6031  2.1596
   80MOL    H9625534   3.297   5.682   3.555  0.1031 -0.6231  1.4399
   80MOL    H9725535   3.202   5.570   3.643 -0.3469 -0.5315 -0.3209
   80MOL    C9825536   3.244   5.508   3.443  0.0880  0.1885 -0.7440
   80MOL    O9925537   3.355   5.437   3.490 -0.0873  0.0231 -0.0722
   80MOL   C10025538   3.477   5.494   3.438  0.2382  0.1643  0.0827
   80MOL   C10125539   3.591   5.410   3.502 -0.9709 -0.1394 -0.5301
   80MOL   C10225540   3.730   5.454   3.453  0.3712 -0.5336  0.4764
   80MOL   C10325541   3.143   5.391   3.440  0.5708 -0.0113  0.0716
   80MOL   H10425542   3.264   5.550   3.345  1.4777 -2.4550 -1.6408
   80MOL   H10525543   3.480   5.478   3.330  1.4660 -0.4147  0.1914
   80MOL   H10625544   3.479   5.602   3.457 -0.7000 -0.1583  2.0821
   80MOL   H10725545   3.572   5.304   3.487 -1.9401 -0.0074 -0.2537
   80MOL   H10825546   3.595   5.417   3.611  1.3615 -2.5848 -0.4158
   80MOL   H10925547   3.737   5.429   3.347  1.1839  2.6740 -0.2726
   80MOL   H11025548   3.800   5.392   3.511  1.7281  1.7453  1.3620
   80MOL   H11125549   3.749   5.557   3.482  0.7173 -0.7357  0.9827
   80MOL   H11225550   3.130   5.361   3.544  1.3183  2.0969  0.7817
   80MOL   H11325551   3.052   5.433   3.398  0.5771 -2.0281 -2.0805
   80MOL   C11425552   3.185   5.267   3.353  0.2976 -0.1509  0.1396
   80MOL   O11525553   3.091   5.164   3.360 -0.2919  0.7606  0.1061
   80MOL   C11625554   3.101   5.090   3.487  0.9565  0.1171  0.4783
   80MOL   C11725555   3.056   4.943   3.466  0.2725 -0.9687  0.1210
   80MOL   C11825556   3.076   4.865   3.597  0.2587 -0.2037 -0.6523
   80MOL   C11925557   3.190   5.300   3.205 -0.4513 -0.3337 -0.6359
   80MOL   H12025558   3.283   5.224   3.374  0.1182 -0.8727 -0.4730
   80MOL   H12125559   3.204   5.097   3.523  1.6221  1.1412 -1.5510
   80MOL   H12225560   3.030   5.144   3.549  1.0493 -0.7026  1.3142
   80MOL   H12325561   3.107   4.895   3.382  0.1838 -0.5777 -0.1547
   80MOL   H12425562   2.953   4.958   3.436  0.3717  0.2776  0.3910
   80MOL   H12525563   3.066   4.916   3.693 -2.0094  1.6408 -1.8263
   80MOL   H12625564   3.177   4.824   3.601 -0.2039 -1.5884 -2.3404
   80MOL   H12725565   3.015   4.774   3.592 -0.4012  0.2252 -0.3751
   80MOL   H12825566   3.089   5.310   3.163 -0.0639  1.3799 -1.2070
   80MOL   H12925567   3.220   5.405   3.196 -1.4634 -0.0202 -0.4853
   80MOL   C13025568   3.262   5.194   3.119  0.2791  0.1423 -0.7805
   80MOL   O13125569   3.233   5.224   2.984  0.0265 -0.3272  0.1146
   80MOL   C13225570   3.142   5.138   2.917 -0.2716  0.8123 -0.1165
   80MOL   C13325571   3.076   5.218   2.808 -0.1030 -0.0962  0.2588
   80MOL   C13425572   3.143   5.195   2.676  0.0041  0.3641  0.6341
   80MOL   C13525573   3.416   5.205   3.144  0.4277  0.6283  0.3724
   80MOL   H13625574   3.230   5.094   3.147 -3.1955  1.1634 -0.8406
   80MOL   H13725575   3.186   5.044   2.883  0.5046  0.5968  1.4281
   80MOL   H13825576   3.069   5.105   2.992  2.4980  0.1119  2.3878
   80MOL   H13925577   3.066   5.324   2.831  2.2123  1.0447 -3.5113
   80MOL   H14025578   2.977   5.181   2.784  0.2368  0.3789 -1.9697
   80MOL   H14125579   3.085   5.256   2.607  0.0510 -0.4660 -0.1492
   80MOL   H14225580   3.145   5.090   2.645  0.5849  0.9384 -1.3798
   80MOL   H14325581   3.248   5.224   2.684  0.1892 -0.1434  0.1428
   80MOL   H14425582   3.446   5.241   3.045 -0.9648  1.7794  0.3426
   80MOL   H14525583   3.437   5.288   3.211  0.2520 -0.7811  2.1981
   80MOL   C14625584   3.487   5.079   3.187 -0.2237  0.2198 -0.0737
   80MOL   O14725585   3.620   5.115   3.211  0.4281 -0.0135 -0.3532
   80MOL   C14825586   3.715   5.083   3.115  0.0107 -0.1205 -0.4410
   80MOL   C14925587   3.849   5.068   3.191  0.7656  0.6274 -0.5569
   80MOL   C15025588   3.957   5.006   3.103 -0.1729  0.1458  0.7280
   80MOL   C15125589   3.434   4.996   3.314  0.0115  0.2584 -0.2583
   80MOL   H15225590   3.475   5.007   3.106 -1.2886  1.2286 -0.8334
   80MOL   H15325591   3.691   4.992   3.060  0.6531  0.0728 -1.0481
   80MOL   H15425592   3.733   5.166   3.047  0.2161  1.2816  1.2845
   80MOL   H15525593   3.845   5.010   3.284 -0.0178 -1.1405 -1.6560
   80MOL   H15625594   3.898   5.161   3.220  2.2274  0.5347 -2.6959
   80MOL   H15725595   3.927   4.917   3.048  1.7006 -0.1017  0.0842
   80MOL   H15825596   4.051   4.994   3.157 -0.0764  3.5563  1.4459
   80MOL   H15925597   3.975   5.078   3.023 -1.4066 -2.0605 -1.5942
   80MOL   H16025598   3.418   5.068   3.394 -1.0651  0.0653 -0.2968
   80MOL   H16125599   3.333   4.962   3.293  0.1775 -0.3164 -0.1358
   80MOL   C16225600   3.525   4.884   3.368 -0.2764  0.2235  0.4356
   80MOL   O16325601   3.480   4.840   3.500  0.0540 -0.4781 -0.2523
   80MOL   C16425602   3.554   4.895   3.607 -0.7033 -0.3546  0.4043
   80MOL   C16525603   3.521   4.830   3.738 -1.0303  0.4748  0.4051
   80MOL   C16625604   3.578   4.684   3.748  0.1141  0.2307  0.3484
   80MOL   C16725605   3.534   4.763   3.275 -0.2400  0.9705  0.1641
   80MOL   H16825606   3.626   4.925   3.380 -0.6971  0.5817  3.0009
   80MOL   H16925607   3.660   4.888   3.584 -0.3679  2.8047  0.7894
   80MOL   H17025608   3.533   5.001   3.618 -3.5698 -1.0035  1.8395
   80MOL   H17125609   3.415   4.836   3.762 -1.0437 -2.1301  1.1691
   80MOL   H17225610   3.568   4.883   3.822 -1.2737 -1.2718  1.6746
   80MOL   H17325611   3.687   4.686   3.742  0.0776 -1.7355 -1.9595
   80MOL   H17425612   3.538   4.625   3.665 -0.2263  2.0983 -0.8648
   80MOL   H17525613   3.559   4.639   3.845  0.8509 -1.7518 -0.4071
   80MOL   H17625614   3.434   4.721   3.276  0.0815  0.2211  1.2161
   80MOL   H17725615   3.572   4.789   3.176  0.5940 -0.1558  0.1828
   80MOL   C17825616   3.627   4.645   3.314  1.0840  0.4704  0.0087
   80MOL   O17925617   3.606   4.532   3.224 -0.1135  0.1607  0.9004
   80MOL   C18025618   3.514   4.436   3.273  0.1760 -0.2858  0.0747
   80MOL   C18125619   3.517   4.314   3.189 -0.1893 -0.1627  0.3046
   80MOL   C18225620   3.649   4.248   3.208 -0.1501 -0.0192 -0.0847
   80MOL   C18325621   3.773   4.679   3.301 -0.3137 -0.2037 -1.0770
   80MOL   H18425622   3.598   4.613   3.414 -0.3404  0.0520 -0.5253
   80MOL   H18525623   3.529   4.407   3.377 -1.7749 -1.8633 -0.0523
   80MOL   H18625624   3.412   4.476   3.270  0.6320  1.1657  2.9070
   80MOL   H18725625   3.489   4.334   3.085  0.9859  2.4833  0.4625
   80MOL   H18825626   3.437   4.252   3.230 -1.2555  1.4615  0.7123
   80MOL   H18925627   3.731   4.314   3.181 -1.5658  2.1398  0.7735
   80MOL   H19025628   3.655   4.152   3.156 -1.8683 -0.5923  0.7082
   80MOL   H19125629   3.665   4.230   3.314  1.8952  0.9201 -0.2174
   80MOL   H19225630   3.787   4.699   3.195 -1.1438 -0.6179 -1.2728
   80MOL   H19325631   3.789   4.772   3.356  1.9594 -1.2972  0.1951
   80MOL   C19425632   3.866   4.561   3.357  0.2647 -0.3891 -0.5775
   80MOL   O19525633   4.005   4.576   3.340 -0.1822 -0.0272  0.1433
   80MOL   C19625634   4.048   4.619   3.207  0.8036 -0.3119  0.4736
   80MOL   C19725635   4.202   4.619   3.196 -0.0057  0.9343 -0.2196
   80MOL   C19825636   4.276   4.725   3.287  0.4382  0.2058  1.1060
   80MOL   C19925637   3.840   4.526   3.509 -0.3715  0.9837  0.0703
   80MOL   H20025638   3.828   4.475   3.303 -2.1271  2.4890 -3.7486
   80MOL   H20125639   3.997   4.561   3.130 -0.2623 -0.3087  1.1556
   80MOL   H20225640   4.005   4.719   3.199  0.2550 -0.7265 -1.9218
   80MOL   H20325641   4.230   4.647   3.094  0.8794  2.3136  0.3856
   80MOL   H20425642   4.243   4.520   3.215  0.7260  0.9183 -1.8298
   80MOL   H20525643   4.257   4.711   3.394 -0.2298 -1.8502  0.7253
   80MOL   H20625644   4.275   4.831   3.259  2.0331 -0.5158 -1.8682
   80MOL   H20725645   4.381   4.702   3.271  0.7675  2.4628 -0.1769
   80MOL   H20825646   3.831   4.618   3.567  0.3217  2.1294 -1.6206
   80MOL   H20925647   3.749   4.468   3.525  0.2099  0.3511  1.2068
   80MOL   C21025648   3.945   4.427   3.576  0.0954  0.2008  1.0226
   80MOL   O21125649   3.914   4.413   3.709  0.3599  0.4443  0.3075
   80MOL   C21225650   3.988   4.503   3.793 -0.3213  0.4946 -0.0040
   80MOL   C21325651   3.942   4.467   3.933  1.0823  0.2458 -0.5667
   80MOL   C21425652   3.796   4.505   3.966 -0.2211  0.0211  0.0642
   80MOL   C21525653   3.933   4.283   3.516  0.7696  0.3581 -0.3989
   80MOL   H21625654   4.046   4.465   3.566  0.3496 -0.9994 -1.3527
   80MOL   H21725655   4.094   4.484   3.776 -0.7166 -2.4261  0.4912
   80MOL   H21825656   3.973   4.606   3.762 -0.4315  0.1855 -1.0308
   80MOL   H21925657   3.998   4.524   4.007 -0.7117  2.3360 -0.7461
   80MOL   H22025658   3.946   4.363   3.966 -0.9716  0.0854 -0.7435
   80MOL   H22125659   3.774   4.609   3.992  0.4611  0.0387  0.5790
   80MOL   H22225660   3.763   4.448   4.053 -0.3100 -0.0332 -0.0057
   80MOL   H22325661   3.732   4.475   3.884 -1.0576  1.3103  0.2251
   80MOL   H22425662   3.846   4.232   3.557  2.9465 -1.1926  2.4363
   80MOL   H22525663   3.921   4.275   3.408 -1.7321  1.1488 -0.2153
   80MOL   C22625664   4.057   4.196   3.537 -0.4523 -0.1305 -0.2438
   80MOL   O22725665   4.020   4.062   3.520  0.2243  0.4656  0.5407
   80MOL   C22825666   3.951   4.000   3.627  0.1766 -0.1620  0.2988
   80MOL   C22925667   3.927   3.854   3.598  0.1725 -0.0357  0.1311
   80MOL   C23025668   3.890   3.818   3.452  0.1039 -0.1064  0.2083
   80MOL   C23125669   4.172   4.240   3.441 -0.7101 -0.0001 -0.3016
   80MOL   H23225670   4.070   4.209   3.645 -1.1813 -0.3296 -0.1258
   80MOL   H23325671   4.025   4.007   3.707 -0.7196 -0.6524  1.1731
   80MOL   H23425672   3.863   4.052   3.664  2.0793  2.1181  1.7185
   80MOL   H23525673   3.857   3.801   3.663  2.2880 -2.1998  0.6919
   80MOL   H23625674   4.022   3.805   3.617  0.4604 -0.1073 -1.4545
   80MOL   H23725675   3.969   3.826   3.377  1.1791 -0.6700  1.2464
   80MOL   H23825676   3.820   3.889   3.409 -1.3988  0.2433  3.0990
   80MOL   H23925677   3.851   3.716   3.449  1.0573 -0.5149  0.9973
   80MOL   H24025678   4.155   4.198   3.342 -0.0349  0.5357 -0.6412
   80MOL   H24125679   4.161   4.347   3.427  0.1552  0.3362  1.4388
   80MOL   C24225680   4.309   4.204   3.494 -0.1102  0.6231  0.1208
   80MOL   O24325681   4.351   4.271   3.609 -0.2302  0.1978 -0.0130
   80MOL   C24425682   4.365   4.409   3.586 -0.2716 -0.1713 -0.1011
   80MOL   C24525683   4.496   4.441   3.658  0.0570 -0.5428  0.5696
   80MOL   C24625684   4.488   4.439   3.811  0.1700 -0.7006  0.0827
   80MOL   C24725685   4.338   4.052   3.517 -0.3927  1.0016 -0.7169
   80MOL   H24825686   4.381   4.232   3.416  1.3901 -1.6647  0.6285
   80MOL   H24925687   4.377   4.451   3.486  0.5009 -0.1920 -0.0172
   80MOL   H25025688   4.278   4.457   3.631 -0.5840 -1.0418  0.2413
   80MOL   H25125689   4.516   4.542   3.622 -3.7087 -0.7664 -2.4882
   80MOL   H25225690   4.577   4.374   3.629 -0.8483 -0.7025 -1.7383
   80MOL   H25325691   4.571   4.481   3.868 -1.8845 -0.0649  2.7179
   80MOL   H25425692   4.479   4.334   3.837  1.7398 -0.6563  0.8469
   80MOL   H25525693   4.408   4.504   3.849 -0.2603 -0.1769 -1.7005
   80MOL   H25625694   4.254   4.007   3.571  0.6907  2.1414  2.0480
   80MOL   H25725695   4.343   4.005   3.419 -1.9399  1.8208 -1.2145
   80MOL   C25825696   4.481   4.021   3.566  0.0738 -1.0570  0.8931
   80MOL   O25925697   4.491   3.880   3.587 -0.1111  0.1305  0.0919
   80MOL   C26025698   4.441   3.821   3.703  0.8938  0.6657 -0.2605
   80MOL   C26125699   4.406   3.678   3.673  0.7321 -0.6532  0.9768
   80MOL   C26225700   4.284   3.663   3.579  0.7040 -0.4708  0.3916
   80MOL   C26325701   4.602   4.064   3.476 -0.2825  0.1714 -0.4466
   80MOL   H26425702   4.495   4.084   3.654  1.7092 -0.6286  0.3498
   80MOL   H26525703   4.515   3.817   3.783 -1.6470  2.5753  2.2936
   80MOL   H26625704   4.348   3.864   3.739  0.5749  0.2012 -0.5354
   80MOL   H26725705   4.386   3.633   3.771 -1.3207 -0.8139  0.5046
   80MOL   H26825706   4.482   3.613   3.629 -0.9419 -0.8039 -1.7606
   80MOL   H26925707   4.297   3.579   3.510 -1.5804 -0.7907  0.2920
   80MOL   H27025708   4.270   3.751   3.517  2.2651 -2.4635 -2.8909
   80MOL   H27125709   4.190   3.652   3.634 -0.7947  0.1652 -1.9667
   80MOL   H27225710   4.595   4.008   3.383 -2.4627 -0.7956  0.2828
   80MOL   H27325711   4.589   4.165   3.437 -1.1083 -0.5332 -2.0166
   80MOL   C27425712   4.735   4.043   3.539  0.3958 -0.0594 -0.1185
   80MOL   O27525713   4.828   4.105   3.449 -0.5351 -0.2359  0.3538
   80MOL   C27625714   4.861   4.027   3.337 -0.3710  0.0647  0.3653
   80MOL   C27725715   4.982   4.086   3.273 -0.3574  0.2903 -0.2690
   80MOL   C27825716   4.960   4.222   3.199 -0.0184  0.1927  0.7916
   80MOL   C27925717   4.756   4.117   3.674 -0.6306  0.0773 -0.7074
   80MOL   H28025718   4.761   3.939   3.554  0.0280 -0.4393 -1.9918
   80MOL   H28125719   4.898   3.928   3.364  1.2245  0.4987 -0.1812
   80MOL   H28225720   4.777   4.008   3.270 -1.0971  0.6005  1.1170
   80MOL   H28325721   5.027   4.017   3.202  1.0085  0.3493  0.5134
   80MOL   H28425722   5.060   4.097   3.348 -0.1259  0.3651 -0.5173
   80MOL   H28525723   4.875   4.202   3.134  0.5749 -2.4489  0.7965
   80MOL   H28625724   5.040   4.264   3.139 -1.3188  1.5897  0.0125
   80MOL   H28725725   4.933   4.300   3.271 -2.5190  0.4058 -0.3152
   80MOL   H28825726   4.743   4.225   3.666 -0.3382  0.1266 -0.5295
   80MOL   H28925727   4.682   4.080   3.745 -0.3409 -0.5881 -0.7440
   80MOL   C29025728   4.889   4.083   3.755  0.0787 -0.1094 -0.8754
   80MOL   O29125729   4.909   3.947   3.779 -0.3040  0.6234 -0.5967
   80MOL   C29225730   4.831   3.878   3.876 -0.1216 -0.8562  0.2944
   80MOL   C29325731   4.849   3.728   3.868 -0.1325 -0.1539  0.0071
   80MOL   C29425732   4.756   3.658   3.966 -0.5190  0.2057  0.1981
   80MOL   C29525733   5.016   4.148   3.689  0.1709  0.2479 -0.6823
   80MOL   H29625734   4.879   4.121   3.856  0.9256 -0.5583 -0.6190
   80MOL   H29725735   4.841   3.917   3.977  0.4404 -0.2095 -0.0129
   80MOL   H29825736   4.727   3.891   3.847  0.5182 -0.9469 -2.1679
   80MOL   H29925737   4.953   3.702   3.886 -0.0060 -1.3588 -2.2723
   80MOL   H30025738   4.834   3.697   3.764  2.3753 -2.4490  0.2664
   80MOL   H30125739   4.652   3.690   3.953 -0.0946  0.7456 -2.1584
   80MOL   H30225740   4.782   3.672   4.071  0.0356 -1.3892  0.2747
   80MOL   H30325741   4.764   3.550   3.964 -1.4185  0.1481 -1.3261
   80MOL   H30425742   5.020   4.114   3.586 -0.4804  1.0482 -0.9850
   80MOL   H30525743   5.003   4.253   3.662  0.6732  1.5241  3.6396
   80MOL   C30625744   5.136   4.129   3.768  0.4381 -0.0173  0.4947
   80MOL   O30725745   5.257   4.156   3.697  0.2763 -0.3556  0.4303
   80MOL   C30825746   5.352   4.047   3.695 -0.1842 -0.0028 -0.3381
   80MOL   C30925747   5.490   4.074   3.636 -0.0247 -0.3024 -0.3809
   80MOL   C31025748   5.579   3.946   3.635  0.2227 -0.7095 -0.0347
   80MOL   C31125749   5.144   4.211   3.894 -0.5777  0.3744  0.6374
   80MOL   H31225750   5.140   4.021   3.787  2.1304 -0.2215 -0.8370
   80MOL   H31325751   5.369   4.010   3.796 -0.4665 -2.2730 -1.1009
   80MOL   H31425752   5.321   3.964   3.633 -1.5128  1.1849 -1.3128
   80MOL   H31525753   5.545   4.151   3.690 -0.3964 -0.0919 -0.3005
   80MOL   H31625754   5.461   4.095   3.533 -1.2495 -0.5103 -0.0848
   80MOL   H31725755   5.665   3.948   3.568 -0.1919  2.1724 -0.5168
   80MOL   H31825756   5.516   3.857   3.625 -1.3712  0.4712 -0.6105
   80MOL   H31925757   5.615   3.945   3.738  2.9291 -1.1007 -0.9280
   80MOL   H32025758   5.175   4.315   3.878  2.4999 -0.9530 -2.6241
   80MOL   H32125759   5.046   4.227   3.938 -0.2306  3.0028  0.5428
   80MOL   H32225760   5.207   4.160   3.967 -1.5017  0.3207  1.4059
   81MOL     C125761   2.263   1.436   1.024 -0.0692 -0.1739  0.1546
   81MOL     O225762   2.183   1.321   1.006 -0.5414  0.1546 -0.5817
   81MOL     C325763   2.144   1.306   0.870  0.7320 -0.3354 -0.1475
   81MOL     C425764   2.036   1.201   0.843 -0.6836 -0.4937  0.3238
   81MOL     C525765   2.090   1.059   0.844  0.3042 -0.3159 -0.0179
   81MOL     C625766   2.330   1.428   1.165  0.2291 -0.0864 -0.1436
   81MOL     H725767   2.202   1.526   1.015 -2.5348 -1.6331  1.4391
   81MOL     H825768   2.125   1.403   0.824 -0.8693 -0.6197 -0.0994
   81MOL     H925769   2.232   1.276   0.813  0.5698 -1.8247  0.3641
   81MOL    H1025770   1.992   1.230   0.748  1.1043 -2.4244 -1.1223
   81MOL    H1125771   1.957   1.206   0.918 -0.7489 -1.1046  0.2969
   81MOL    H1225772   2.140   1.052   0.748  2.7050  0.2085  1.1501
   81MOL    H1325773   2.010   0.986   0.837  0.7951 -0.9285  0.7306
   81MOL    H1425774   2.163   1.041   0.923 -1.1441  2.6172  2.1289
   81MOL    H1525775   2.254   1.420   1.243 -0.3280  1.7341 -0.4758
   81MOL    H1625776   2.387   1.335   1.171 -0.1379 -0.3977 -1.3840
   81MOL    H1725777   2.337   1.442   0.945 -1.4917  2.2149 -1.0559
   81MOL    C1825778   2.427   1.542   1.182 -0.0073  0.0632  0.2586
   81MOL    O1925779   2.371   1.666   1.132 -0.4845  0.2907  0.7470
   81MOL    C2025780   2.461   1.771   1.108 -0.0904 -0.1006 -0.3405
   81MOL    C2125781   2.385   1.895   1.046 -0.4428 -0.0411  0.1505
   81MOL    C2225782   2.335   1.983   1.167  0.3682 -0.4654  0.0766
   81MOL    C2325783   2.479   1.562   1.329 -0.2592 -0.0831 -0.4186
   81MOL    H2425784   2.508   1.523   1.112 -0.3893 -0.2841 -0.0916
   81MOL    H2525785   2.498   1.805   1.205  0.2493 -2.4933  0.4069
   81MOL    H2625786   2.550   1.743   1.051 -0.2272  0.5104 -0.8527
   81MOL    H2725787   2.303   1.853   0.989 -0.2906  1.1904 -0.9848
   81MOL    H2825788   2.456   1.954   0.988  1.1988 -0.8153  1.2916
   81MOL    H2925789   2.291   2.076   1.130  1.7484 -0.1317 -0.7652
   81MOL    H3025790   2.418   2.014   1.230  0.8736 -2.3228  0.3330
   81MOL    H3125791   2.253   1.935   1.220 -1.3324 -0.1149 -2.1277
   81MOL    H3225792   2.555   1.639   1.321  0.1742 -0.1455  2.7430
   81MOL    H3325793   2.393   1.582   1.392 -1.7953 -3.9702 -1.1010
   81MOL    C3425794   2.543   1.433   1.384 -0.3674 -0.6157 -0.3400
   81MOL    O3525795   2.643   1.379   1.298 -0.2420 -0.1455 -0.1250
   81MOL    C3625796   2.664   1.239   1.312  0.6771 -0.2034 -0.1113
   81MOL    C3725797   2.713   1.183   1.176 -0.2302  0.2565  0.0331
   81MOL    C3825798   2.830   1.266   1.125  0.3812 -0.5728  0.1227
   81MOL    C3925799   2.608   1.457   1.518 -1.0117 -0.6238 -0.3439
   81MOL    H4025800   2.462   1.360   1.384 -3.1552  2.3714 -0.6369
   81MOL    H4125801   2.739   1.221   1.389  1.2512  1.9072 -0.1355
   81MOL    H4225802   2.576   1.182   1.341  0.1943  0.8293  0.4560
   81MOL    H4325803   2.631   1.187   1.104 -3.4238 -0.6809  3.4564
   81MOL    H4425804   2.744   1.079   1.188  0.3701  0.4408  0.1106
   81MOL    H4525805   2.863   1.225   1.030  0.2538 -0.1184 -0.1204
   81MOL    H4625806   2.910   1.276   1.200  1.3721  0.1902 -1.0134
   81MOL    H4725807   2.792   1.368   1.115  0.5298 -0.4316  0.9182
   81MOL    H4825808   2.689   1.388   1.541 -0.5501 -1.0334 -3.0700
   81MOL    H4925809   2.659   1.552   1.504 -1.1353 -0.3302  1.1341
   81MOL    C5025810   2.508   1.479   1.639 -0.4751  0.3615  0.3119
   81MOL    O5125811   2.504   1.352   1.699 -0.0434  0.6402  0.1270
   81MOL    C5225812   2.376   1.300   1.722 -0.1292 -0.2898 -0.4207
   81MOL    C5325813   2.371   1.181   1.813  0.1541 -0.3580 -0.3777
   81MOL    C5425814   2.453   1.073   1.745 -0.5844 -0.4820  0.1577
   81MOL    C5525815   2.542   1.590   1.737 -0.0080  0.3444 -0.6455
   81MOL    H5625816   2.414   1.505   1.590  1.2012  1.4325 -2.4775
   81MOL    H5725817   2.314   1.380   1.763  0.4484 -0.8289  1.5453
   81MOL    H5825818   2.327   1.282   1.626 -1.5336 -0.1776  0.2671
   81MOL    H5925819   2.267   1.149   1.811 -0.1339  0.5811 -0.7464
   81MOL    H6025820   2.399   1.192   1.917 -0.6587 -0.4471 -0.1486
   81MOL    H6125821   2.451   0.985   1.810 -0.0932  0.8941  2.1036
   81MOL    H6225822   2.554   1.105   1.719 -0.9721 -0.3323 -1.1653
   81MOL    H6325823   2.400   1.044   1.654  1.3305 -0.0874 -1.1114
   81MOL    H6425824   2.484   1.576   1.828 -1.2270 -1.5225 -1.6869
   81MOL    H6525825   2.645   1.582   1.771  0.2298  1.4264 -1.0649
   81MOL    C6625826   2.507   1.729   1.680  0.0489 -0.2079  0.5272
   81MOL    O6725827   2.367   1.743   1.669  0.2392 -0.3915  0.3529
   81MOL    C6825828   2.307   1.837   1.582  0.2827 -0.2888  0.0368
   81MOL    C6925829   2.152   1.798   1.565 -0.4910  0.1491  0.0718
   81MOL    C7025830   2.078   1.926   1.533 -0.1411  0.2686  0.0483
   81MOL    C7125831   2.568   1.845   1.767 -0.0874  0.7520  0.0254
   81MOL    H7225832   2.555   1.740   1.583 -1.1912 -3.5952 -0.5576
   81MOL    H7325833   2.319   1.943   1.603 -1.9096  0.5981 -2.8110
   81MOL    H7425834   2.355   1.823   1.485 -0.1152 -0.9840 -0.0577
   81MOL    H7525835   2.115   1.740   1.650 -2.2824 -0.5656 -1.1485
   81MOL    H7625836   2.143   1.724   1.485  1.6243 -0.8482  0.7387
   81MOL    H7725837   2.081   1.993   1.619 -1.5992 -0.4705  0.7108
   81MOL    H7825838   1.974   1.898   1.514 -0.8209  1.4627  1.8881
   81MOL    H7925839   2.129   1.961   1.444  0.6413 -0.3743  0.2412
   81MOL    H8025840   2.494   1.881   1.839 -1.5699 -0.5525 -0.8182
   81MOL    H8125841   2.652   1.814   1.828 -1.2058 -2.9428 -0.2063
   81MOL    C8225842   2.626   1.967   1.684 -0.9688 -0.5546  0.8333
   81MOL    O8325843   2.540   2.082   1.715 -0.3281  0.4578  0.1702
   81MOL    C8425844   2.503   2.167   1.614  0.3094 -0.2822 -0.3870
   81MOL    C8525845   2.404   2.273   1.662 -0.0372 -0.3008 -0.4482
   81MOL    C8625846   2.482   2.370   1.755  0.4186 -0.4182  0.0837
   81MOL    C8725847   2.772   2.018   1.725  0.1639 -0.1757  0.3197
   81MOL    H8825848   2.625   1.945   1.578 -0.9586  1.2895  0.4334
   81MOL    H8925849   2.592   2.204   1.563  1.5998 -0.8514  1.4042
   81MOL    H9025850   2.455   2.109   1.535  0.6925 -0.2835 -0.6180
   81MOL    H9125851   2.309   2.233   1.697 -0.7532  0.8179 -1.0775
   81MOL    H9225852   2.366   2.333   1.580  0.4291  0.5026 -0.0846
   81MOL    H9325853   2.415   2.453   1.780  0.6780  0.0144 -0.6214
   81MOL    H9425854   2.578   2.399   1.713 -0.4541  1.2529 -0.8365
   81MOL    H9525855   2.502   2.327   1.853  3.0667  1.0505  0.2396
   81MOL    H9625856   2.788   2.119   1.688  1.5187 -0.3416  0.4212
   81MOL    H9725857   2.780   2.019   1.834  0.9950 -2.9109  0.3446
   81MOL    C9825858   2.886   1.931   1.672 -0.7793 -0.0862  0.2831
   81MOL    O9925859   2.891   1.968   1.530 -0.2071 -0.5833 -0.6218
   81MOL   C10025860   2.939   1.870   1.445 -0.1126 -0.1878  0.6349
   81MOL   C10125861   2.850   1.750   1.430  0.1734 -0.8126  0.4652
   81MOL   C10225862   2.896   1.639   1.338  0.2267 -0.7063 -0.5926
   81MOL   C10325863   3.026   1.960   1.735  0.7214 -0.0420  0.3379
   81MOL   H10425864   2.857   1.827   1.685 -0.4282 -0.2634 -0.3149
   81MOL   H10525865   2.951   1.914   1.346  0.2859 -0.7393  0.4308
   81MOL   H10625866   3.036   1.837   1.484  1.4186  3.1647 -0.1813
   81MOL   H10725867   2.749   1.784   1.411  0.2451 -0.9323 -0.1450
   81MOL   H10825868   2.852   1.702   1.528 -0.1060 -1.4970  0.1405
   81MOL   H10925869   2.919   1.680   1.240  1.3749  0.3809  0.1226
   81MOL   H11025870   2.820   1.561   1.329  0.6942 -1.4196  1.4041
   81MOL   H11125871   2.980   1.585   1.381 -0.1524 -0.4129  0.5422
   81MOL   H11225872   3.104   1.941   1.660 -1.3432  1.0942 -2.1863
   81MOL   H11325873   3.042   2.062   1.768 -2.0765  0.5497 -0.0445
   81MOL   C11425874   3.064   1.882   1.868  0.0240 -0.2039  0.2445
   81MOL   O11525875   3.103   1.748   1.822  0.2763  0.2582  0.4627
   81MOL   C11625876   3.127   1.647   1.918 -0.2787  0.3537 -0.5830
   81MOL   C11725877   3.119   1.512   1.828  0.0165  0.2566  0.0768
   81MOL   C11825878   2.993   1.490   1.750  0.0105  0.4170 -0.3946
   81MOL   C11925879   3.182   1.939   1.951  0.4612 -0.2486 -0.1690
   81MOL   H12025880   2.979   1.874   1.935 -1.3718 -1.2668 -1.5949
   81MOL   H12125881   3.231   1.640   1.950 -0.3852  0.0487 -0.3046
   81MOL   H12225882   3.057   1.645   2.001  1.0963  2.4130  0.6498
   81MOL   H12325883   3.140   1.422   1.884 -3.4216 -1.3451 -1.0935
   81MOL   H12425884   3.199   1.523   1.754 -2.1951  1.5319 -2.1984
   81MOL   H12525885   3.016   1.429   1.662 -0.6216  0.9091 -0.9048
   81MOL   H12625886   2.948   1.585   1.722 -0.2906  0.7520  1.1879
   81MOL   H12725887   2.926   1.427   1.809 -1.2179  1.9293 -0.1623
   81MOL   H12825888   3.229   1.862   2.012  0.6889  0.5212  0.6326
   81MOL   H12925889   3.265   1.958   1.882  0.4953  0.6476  0.1165
   81MOL   C13025890   3.145   2.057   2.035 -0.0451  0.0810  0.3081
   81MOL   O13125891   3.047   2.010   2.125 -0.3960 -0.2426 -0.0295
   81MOL   C13225892   2.950   2.104   2.162  0.0346 -0.3458  0.5793
   81MOL   C13325893   2.843   2.030   2.248 -1.0499 -0.1805 -0.3517
   81MOL   C13425894   2.809   1.893   2.188 -0.4811 -0.0680 -0.0994
   81MOL   C13525895   3.269   2.131   2.096 -0.2527  0.0540 -0.0073
   81MOL   H13625896   3.099   2.120   1.958 -0.8017 -0.4820  0.2943
   81MOL   H13725897   2.998   2.180   2.224  0.5700 -0.3880  0.2114
   81MOL   H13825898   2.896   2.158   2.084 -0.1312 -0.9508  0.2778
   81MOL   H13925899   2.758   2.098   2.255 -0.1917  1.1262 -2.3187
   81MOL   H14025900   2.891   2.029   2.346  1.2434  3.1804 -1.3596
   81MOL   H14125901   2.885   1.817   2.204  0.2517  0.3479 -1.5406
   81MOL   H14225902   2.779   1.901   2.084  0.2100 -0.6377 -0.3412
   81MOL   H14325903   2.718   1.852   2.232 -1.0265  3.6717  2.4961
   81MOL   H14425904   3.233   2.181   2.186  2.6486  0.6467  0.8652
   81MOL   H14525905   3.336   2.054   2.135 -0.2816  0.9116  1.7730
   81MOL   C14625906   3.347   2.221   2.001  0.2231 -0.3454 -0.1836
   81MOL   O14725907   3.261   2.329   1.966 -0.0937  0.6932  0.2276
   81MOL   C14825908   3.259   2.385   1.840 -0.1382  0.3405  0.7865
   81MOL   C14925909   3.137   2.480   1.815 -0.1177 -0.1697 -0.6832
   81MOL   C15025910   3.008   2.400   1.810  0.1029  0.8375 -0.3898
   81MOL   C15125911   3.478   2.280   2.074  0.7351  0.5090  0.9232
   81MOL   H15225912   3.377   2.171   1.909  1.6338 -0.9555  0.5886
   81MOL   H15325913   3.350   2.445   1.838 -0.6447  1.1060  0.6756
   81MOL   H15425914   3.270   2.306   1.765 -0.8455 -1.9421  2.9911
   81MOL   H15525915   3.161   2.528   1.720  0.9810 -0.2492 -0.4514
   81MOL   H15625916   3.140   2.563   1.885  0.0612 -1.4298  0.8280
   81MOL   H15725917   3.003   2.328   1.891 -0.0693 -0.4458 -1.5276
   81MOL   H15825918   2.989   2.355   1.713 -2.7931  0.4826  0.2992
   81MOL   H15925919   2.924   2.466   1.833 -0.9168 -0.8625  0.8342
   81MOL   H16025920   3.528   2.354   2.011 -1.2184 -0.0627 -1.3521
   81MOL   H16125921   3.445   2.339   2.160  1.8417  1.3677  0.7701
   81MOL   C16225922   3.586   2.173   2.099  0.2395  0.5811  0.5126
   81MOL   O16325923   3.620   2.096   1.982 -0.6080  0.6095 -0.5928
   81MOL   C16425924   3.644   1.956   2.003  0.1279  0.2830 -0.7939
   81MOL   C16525925   3.640   1.889   1.866  0.4368 -0.0489  0.3934
   81MOL   C16625926   3.769   1.925   1.790  0.1266 -0.5846  1.6775
   81MOL   C16725927   3.718   2.234   2.156  0.3021  0.4708 -0.9452
   81MOL   H16825928   3.558   2.106   2.181  2.1533 -1.2204 -0.2570
   81MOL   H16925929   3.744   1.947   2.047 -0.6715 -1.5485  0.7561
   81MOL   H17025930   3.573   1.922   2.079  1.2883  1.8567  1.0443
   81MOL   H17125931   3.547   1.909   1.813  0.6341  0.1139  0.1067
   81MOL   H17225932   3.649   1.782   1.886  0.7696  0.3332  2.4861
   81MOL   H17325933   3.738   1.902   1.688 -0.7167  2.8000  1.0875
   81MOL   H17425934   3.858   1.878   1.829  1.7040  0.6683 -0.3036
   81MOL   H17525935   3.773   2.034   1.778 -2.4082 -0.8246 -2.5101
   81MOL   H17625936   3.777   2.153   2.199 -0.4623  0.6342  0.4353
   81MOL   H17725937   3.774   2.273   2.071  0.8385 -0.1017 -0.8573
   81MOL   C17825938   3.713   2.350   2.257  0.0395 -0.3912 -0.4951
   81MOL   O17925939   3.681   2.282   2.379  0.2180  0.4964  0.1034
   81MOL   C18025940   3.580   2.353   2.443 -0.0840 -0.4183  0.2132
   81MOL   C18125941   3.518   2.285   2.573 -0.1742  0.2457 -0.0766
   81MOL   C18225942   3.403   2.181   2.548 -0.1991  0.1451 -0.4686
   81MOL   C18325943   3.853   2.415   2.275  0.0417 -0.8153 -0.2647
   81MOL   H18425944   3.652   2.433   2.222 -1.9797 -1.1648  1.1225
   81MOL   H18525945   3.621   2.447   2.478  0.5708  0.2003 -2.0856
   81MOL   H18625946   3.496   2.362   2.373 -0.8817 -0.1813  1.1966
   81MOL   H18725947   3.481   2.354   2.649 -0.8847  0.1295 -0.3129
   81MOL   H18825948   3.605   2.245   2.626  0.8929  2.3709 -0.1643
   81MOL   H18925949   3.307   2.226   2.520 -1.5843 -2.0747  0.5634
   81MOL   H19025950   3.377   2.120   2.635 -1.2143  1.2545  0.0230
   81MOL   H19125951   3.428   2.099   2.481  0.8275 -0.1190  0.2338
   81MOL   H19225952   3.850   2.457   2.375 -1.2139  0.2157 -0.7242
   81MOL   H19325953   3.928   2.337   2.288  1.2436  0.4756  0.5972
   81MOL   C19425954   3.910   2.509   2.169 -0.2252  0.8891 -0.0041
   81MOL   O19525955   3.857   2.634   2.178 -0.2125  0.3566 -0.4614
   81MOL   C19625956   3.866   2.717   2.062 -0.5027 -0.5332  0.2942
   81MOL   C19725957   3.741   2.704   1.978  0.1438  1.0153  0.3447
   81MOL   C19825958   3.750   2.758   1.837 -0.7049 -0.0681  0.2444
   81MOL   C19925959   4.065   2.521   2.175  0.5423 -0.7864  0.3331
   81MOL   H20025960   3.893   2.467   2.070 -0.9528 -0.7793  0.7893
   81MOL   H20125961   3.890   2.819   2.091  0.9064 -0.5951 -0.5999
   81MOL   H20225962   3.957   2.697   2.005  1.4280  0.8440  2.8278
   81MOL   H20325963   3.651   2.743   2.025  0.0277  4.4488 -2.4787
   81MOL   H20425964   3.727   2.597   1.963  0.6338  1.1435 -1.1720
   81MOL   H20525965   3.806   2.687   1.776  0.8525  1.2903  0.0653
   81MOL   H20625966   3.798   2.856   1.834 -0.8476  0.1285  3.0709
   81MOL   H20725967   3.650   2.762   1.793 -1.4669 -1.1833  1.8558
   81MOL   H20825968   4.091   2.597   2.102  1.4663 -0.3469  1.1137
   81MOL   H20925969   4.097   2.560   2.272  1.2097  0.7255 -0.4851
   81MOL   C21025970   4.146   2.401   2.137  0.6772  0.5199 -0.2688
   81MOL   O21125971   4.099   2.348   2.010 -0.0061 -0.0141 -0.5525
   81MOL   C21225972   4.094   2.211   2.011 -0.2738  0.5533  0.4907
   81MOL   C21325973   4.039   2.170   1.875  0.4643  0.3571 -1.4192
   81MOL   C21425974   4.124   2.209   1.750  0.3386  0.2652  0.5463
   81MOL   C21525975   4.293   2.433   2.124  0.3069 -0.4161  0.5938
   81MOL   H21625976   4.146   2.322   2.212  0.1514  1.4641  0.7344
   81MOL   H21725977   4.192   2.170   2.035 -0.1596  0.9181  0.6537
   81MOL   H21825978   4.026   2.178   2.091  0.2960 -0.7824  0.4345
   81MOL   H21925979   3.939   2.214   1.874  0.3229  0.0767 -0.1481
   81MOL   H22025980   4.033   2.061   1.868  0.0207  0.2050  0.9949
   81MOL   H22125981   4.121   2.318   1.751  2.5850  0.4462 -2.9575
   81MOL   H22225982   4.077   2.183   1.656 -1.0537 -1.4296  1.6674
   81MOL   H22325983   4.223   2.164   1.750  0.0693 -0.3276 -0.1118
   81MOL   H22425984   4.343   2.352   2.070  0.4630 -0.6889  1.1468
   81MOL   H22525985   4.300   2.519   2.058  0.7046 -0.3085  0.7725
   81MOL   C22625986   4.369   2.466   2.253 -0.4677  0.4970 -0.0854
   81MOL   O22725987   4.346   2.357   2.350  0.7393 -0.1528 -0.1563
   81MOL   C22825988   4.373   2.398   2.483 -0.3245  0.4831  0.5093
   81MOL   C22925989   4.304   2.298   2.570 -0.4798 -0.6378 -0.0609
   81MOL   C23025990   4.291   2.328   2.719  0.1533  0.4083  0.2368
   81MOL   C23125991   4.522   2.479   2.228  0.4476  0.0750  0.1204
   81MOL   H23225992   4.316   2.556   2.286 -0.2526 -0.2776  2.4661
   81MOL   H23325993   4.480   2.395   2.501  0.1104 -0.6202 -2.0603
   81MOL   H23425994   4.331   2.495   2.511 -1.1322  0.2710  0.0419
   81MOL   H23525995   4.337   2.196   2.549 -3.3281 -1.4252 -0.9623
   81MOL   H23625996   4.204   2.287   2.528  0.5775 -1.4475 -2.4928
   81MOL   H23725997   4.270   2.427   2.760 -0.1645  0.1468  0.7063
   81MOL   H23825998   4.394   2.318   2.752  0.3494  0.9421 -0.1928
   81MOL   H23925999   4.227   2.254   2.767  0.9064 -0.4540 -0.0754
   81MOL   H24026000   4.573   2.490   2.323  3.3573 -1.5517 -1.1932
   81MOL   H24126001   4.561   2.386   2.186 -0.4744 -0.2160 -0.1146
   81MOL   C24226002   4.575   2.604   2.148 -0.0703  0.2180 -0.4784
   81MOL   O24326003   4.556   2.713   2.239  0.9418 -0.5732  0.2066
   81MOL   C24426004   4.516   2.825   2.162  0.2498  0.3131 -0.2604
   81MOL   C24526005   4.367   2.829   2.129  0.6562 -0.4027  0.1147
   81MOL   C24626006   4.277   2.877   2.251 -0.3987 -1.1752  0.5753
   81MOL   C24726007   4.720   2.594   2.104 -0.6006 -0.0024  0.0440
   81MOL   H24826008   4.518   2.615   2.056  0.9815 -0.1506 -1.1812
   81MOL   H24926009   4.535   2.915   2.220  1.4703  0.4837 -0.9233
   81MOL   H25026010   4.583   2.832   2.076  1.5031  1.5468  0.7999
   81MOL   H25126011   4.342   2.728   2.097 -2.2059  0.1731  0.4312
   81MOL   H25226012   4.359   2.888   2.038 -0.8690  1.0256  1.1505
   81MOL   H25326013   4.267   2.985   2.261 -0.2249 -1.3347  2.5189
   81MOL   H25426014   4.313   2.820   2.336 -1.1464 -0.9860  1.0206
   81MOL   H25526015   4.174   2.844   2.239 -0.7393 -0.0692  0.4257
   81MOL   H25626016   4.758   2.687   2.061  0.7012  0.2366  1.6767
   81MOL   H25726017   4.783   2.575   2.191 -3.6989 -1.5898  2.0509
   81MOL   C25826018   4.743   2.493   1.993 -0.1663  0.2762  0.2325
   81MOL   O25926019   4.733   2.562   1.868  0.1584  0.3659  0.1560
   81MOL   C26026020   4.712   2.487   1.750  0.5281  0.9302  0.0569
   81MOL   C26126021   4.565   2.476   1.714  0.3763 -0.8263  0.3767
   81MOL   C26226022   4.492   2.371   1.801 -0.5972  0.1110 -0.7027
   81MOL   C26326023   4.878   2.430   1.998  0.6683 -0.3252 -1.1212
   81MOL   H26426024   4.667   2.415   2.001  0.3380 -0.2022  0.3806
   81MOL   H26526025   4.751   2.542   1.664  1.5219  1.4313  0.8209
   81MOL   H26626026   4.764   2.391   1.748  0.2130  0.7544  0.3721
   81MOL   H26726027   4.575   2.454   1.607  2.5629  1.0660  0.1348
   81MOL   H26826028   4.523   2.576   1.711  1.3688 -0.4241 -0.9281
   81MOL   H26926029   4.391   2.344   1.770 -0.9317  0.3599  0.1540
   81MOL   H27026030   4.488   2.409   1.903  0.7424 -2.1192  0.2106
   81MOL   H27126031   4.549   2.279   1.795 -1.1688 -0.2304 -0.8895
   81MOL   H27226032   4.931   2.460   1.908  3.2823 -0.8004  0.1921
   81MOL   H27326033   4.934   2.475   2.081 -0.7920 -0.9767  0.2469
   81MOL   C27426034   4.888   2.270   2.014  0.0785 -0.0821  0.1043
   81MOL   O27526035   5.025   2.224   2.015 -0.0247 -0.6859 -0.2810
   81MOL   C27626036   5.072   2.190   1.888 -0.7373 -0.2876  0.1388
   81MOL   C27726037   5.209   2.118   1.910  0.0787 -0.5248  0.5391
   81MOL   C27826038   5.326   2.223   1.890 -0.5100  0.0571 -0.6054
   81MOL   C27926039   4.811   2.225   2.138  0.0539  0.1172  0.2121
   81MOL   H28026040   4.832   2.228   1.930 -1.0455  1.3385  0.1113
   81MOL   H28126041   5.007   2.128   1.827 -1.1574  2.2069 -2.0368
   81MOL   H28226042   5.098   2.279   1.830  0.7005  0.3945  1.7590
   81MOL   H28326043   5.215   2.031   1.844  0.0837  0.8313 -1.2781
   81MOL   H28426044   5.205   2.077   2.011  1.1347  0.7524  1.1039
   81MOL   H28526045   5.333   2.266   1.790  1.3486 -2.1233 -1.4542
   81MOL   H28626046   5.424   2.182   1.916 -1.8819 -1.6269  2.1945
   81MOL   H28726047   5.315   2.304   1.962  0.5421 -0.5508  0.2471
   81MOL   H28826048   4.823   2.291   2.223 -0.8491 -0.2986  0.6663
   81MOL   H28926049   4.702   2.229   2.135 -0.0142 -0.2917  1.6565
   81MOL   C29026050   4.846   2.076   2.170  0.1229 -0.5196 -0.5856
   81MOL   O29126051   4.777   2.039   2.290  0.3446 -0.2628 -0.2883
   81MOL   C29226052   4.858   2.018   2.399 -0.1196  0.5260  0.3520
   81MOL   C29326053   4.858   2.149   2.479  0.1681  0.4770 -0.1606
   81MOL   C29426054   4.715   2.202   2.513 -1.0518  0.1256  0.3429
   81MOL   C29526055   4.795   1.977   2.064  0.2629  0.5346  0.2322
   81MOL   H29626056   4.954   2.062   2.183  0.1229  1.1771  1.5514
   81MOL   H29726057   4.800   1.943   2.454  0.4911  0.1859  0.5499
   81MOL   H29826058   4.957   1.976   2.380 -1.0686 -1.3569 -0.5853
   81MOL   H29926059   4.918   2.220   2.422 -1.3824  2.3476  0.4542
   81MOL   H30026060   4.914   2.131   2.571  0.1536 -0.9012 -0.4054
   81MOL   H30126061   4.641   2.124   2.531 -1.1815  0.2327  0.2715
   81MOL   H30226062   4.677   2.261   2.430  0.7229 -0.5798 -1.0115
   81MOL   H30326063   4.716   2.281   2.588  0.5611  0.9113 -0.4815
   81MOL   H30426064   4.686   1.971   2.070  0.3254  0.7875  1.9621
   81MOL   H30526065   4.818   2.008   1.963 -1.2039 -2.5885 -1.1284
   81MOL   C30626066   4.848   1.826   2.070 -0.5034  0.3474  0.1850
   81MOL   O30726067   4.779   1.746   1.964  0.1098  0.1746 -0.2251
   81MOL   C30826068   4.674   1.658   2.012 -0.0705 -0.6368 -0.2303
   81MOL   C30926069   4.603   1.604   1.885  0.1039  0.0532  0.1572
   81MOL   C31026070   4.683   1.503   1.799  0.1844 -0.4954 -0.4272
   81MOL   C31126071   4.997   1.808   2.053 -0.7248  0.2544 -0.2099
   81MOL   H31226072   4.818   1.785   2.166 -0.9562 -1.2638 -0.6143
   81MOL   H31326073   4.716   1.580   2.075 -0.1473 -1.3335 -1.0309
   81MOL   H31426074   4.599   1.713   2.067  0.4851 -0.7756  0.6776
   81MOL   H31526075   4.562   1.681   1.821  0.6500  1.0280  0.9731
   81MOL   H31626076   4.510   1.563   1.925 -0.2577  0.7710  0.0472
   81MOL   H31726077   4.761   1.555   1.744  0.7284  1.8952  2.4970
   81MOL   H31826078   4.620   1.449   1.729 -1.4284  2.6964 -1.5202
   81MOL   H31926079   4.737   1.435   1.866 -1.6844 -0.8099  0.8104
   81MOL   H32026080   5.070   1.834   2.130  0.5445 -0.4573 -1.1384
   81MOL   H32126081   5.020   1.703   2.033  0.0560  0.7990 -2.2796
   81MOL   H32226082   5.030   1.863   1.965 -0.1977  0.0957 -0.1167
   82MOL     C126083   5.701   1.363   7.733 -0.0180 -0.5701 -0.8054
   82MOL     O226084   5.687   1.375   7.594  0.5405 -0.6294 -0.3584
   82MOL     C326085   5.752   1.287   7.504 -0.0823  0.3375 -0.5896
   82MOL     C426086   5.686   1.299   7.373 -0.2410 -0.8008 -1.0074
   82MOL     C526087   5.534   1.267   7.381 -0.7398 -0.1207  0.0002
   82MOL     C626088   5.634   1.234   7.784 -0.2159 -0.1977 -0.1995
   82MOL     H726089   5.649   1.445   7.782  1.3383 -1.3286  2.0191
   82MOL     H826090   5.860   1.305   7.502 -0.1042  0.9527  2.4319
   82MOL     H926091   5.754   1.186   7.547  0.9299  0.6961  0.2352
   82MOL    H1026092   5.732   1.230   7.302 -0.0376  0.9321 -2.6049
   82MOL    H1126093   5.701   1.403   7.345  0.8358  0.0608  2.5187
   82MOL    H1226094   5.477   1.336   7.443  1.1365 -0.3451  2.0129
   82MOL    H1326095   5.514   1.168   7.421  1.2794  0.2952  2.1920
   82MOL    H1426096   5.508   1.267   7.275 -1.2665  0.9276  0.1170
   82MOL    H1526097   5.538   1.229   7.734 -0.5103 -1.2183  0.4595
   82MOL    H1626098   5.693   1.146   7.755  0.1604 -0.1919  0.5465
   82MOL    H1726099   5.803   1.372   7.773 -0.6560 -0.6154  0.8755
   82MOL    C1826100   5.618   1.229   0.110 -0.7758 -0.5549 -0.1078
   82MOL    O1926101   5.534   1.122   0.152 -0.6209  0.1394 -0.5686
   82MOL    C2026102   5.397   1.147   0.142 -0.0947 -0.6166  0.4372
   82MOL    C2126103   5.324   1.035   0.226  0.5287  0.2595 -0.3297
   82MOL    C2226104   5.380   0.898   0.206 -0.5452 -0.7137 -0.0988
   82MOL    C2326105   5.754   1.209   0.175 -0.2706  0.3120 -0.1335
   82MOL    H2426106   5.583   1.326   0.146 -1.5375 -1.0399  0.4786
   82MOL    H2526107   5.375   1.250   0.167  2.1224  0.1678 -0.7901
   82MOL    H2626108   5.360   1.141   0.040  0.1428 -1.4349  0.3933
   82MOL    H2726109   5.218   1.037   0.203  1.1498  1.1627 -3.3285
   82MOL    H2826110   5.338   1.051   0.333  1.3859  0.9909 -0.5505
   82MOL    H2926111   5.486   0.890   0.231 -0.4998 -0.9703 -0.3708
   82MOL    H3026112   5.380   0.879   0.098  2.0569  1.0235 -0.4670
   82MOL    H3126113   5.324   0.812   0.242 -2.5923  0.7225  0.2118
   82MOL    H3226114   5.787   1.108   0.151  2.4565  0.0717  4.0978
   82MOL    H3326115   5.832   1.277   0.141 -1.4021  1.5210 -0.3296
   82MOL    C3426116   5.751   1.218   0.331  0.3727  0.1359 -0.6994
   82MOL    O3526117   5.820   1.114   0.399 -0.3092 -0.1799 -0.5139
   82MOL    C3626118   5.746   0.992   0.403 -0.0446 -0.3814 -0.4002
   82MOL    C3726119   5.825   0.893   0.500 -0.1680 -1.1803 -0.5257
   82MOL    C3826120   5.875   0.957   0.626 -0.3890 -0.4763 -0.5957
   82MOL    C3926121   5.810   1.353   0.373 -0.2183 -0.0974  0.1606
   82MOL    H4026122   5.648   1.196   0.361  0.3903  0.3264 -0.4933
   82MOL    H4126123   5.647   1.007   0.445  0.2863  1.1407 -0.1572
   82MOL    H4226124   5.736   0.953   0.302 -2.4428 -1.8930  0.3840
   82MOL    H4326125   5.905   0.859   0.433  1.3553 -1.9198  1.6378
   82MOL    H4426126   5.764   0.809   0.532 -1.1078 -0.2358  0.2098
   82MOL    H4526127   5.803   0.983   0.704  0.8056  0.7579  0.1199
   82MOL    H4626128   5.949   1.037   0.620  1.5454 -2.1340  0.7073
   82MOL    H4726129   5.929   0.872   0.669 -0.4509 -1.2632 -2.0476
   82MOL    H4826130   5.897   1.367   0.309 -2.3222 -0.3544 -2.8156
   82MOL    H4926131   5.737   1.427   0.342 -0.7694 -0.9532 -0.5918
   82MOL    C5026132   5.844   1.377   0.523  0.5382  0.2103  0.0761
   82MOL    O5126133   5.898   1.509   0.538 -0.3950  0.5746  0.0105
   82MOL    C5226134   6.038   1.508   0.528 -0.6753 -0.2511 -0.4872
   82MOL    C5326135   6.093   1.651   0.499  0.2668 -0.6830  0.1536
   82MOL    C5426136   6.046   1.725   0.368 -0.6863  0.1400 -0.3820
   82MOL    C5526137   5.713   1.368   0.609 -0.4001 -0.0365  0.3284
   82MOL    H5626138   5.914   1.301   0.558  1.7082  1.8165  1.2736
   82MOL    H5726139   6.079   1.474   0.623  1.1987 -0.2238 -1.2549
   82MOL    H5826140   6.064   1.437   0.449  0.8481  0.8883 -1.0431
   82MOL    H5926141   6.202   1.647   0.509  0.1755 -1.1871  0.9778
   82MOL    H6026142   6.064   1.721   0.578 -0.2455  1.3463 -1.7802
   82MOL    H6126143   6.077   1.828   0.384  1.1704 -0.7608  2.0896
   82MOL    H6226144   5.939   1.722   0.349 -0.7617 -0.7631  0.1583
   82MOL    H6326145   6.089   1.684   0.277  1.9091  0.9265  0.4555
   82MOL    H6426146   5.647   1.453   0.589 -2.9971 -1.5462  2.1451
   82MOL    H6526147   5.649   1.282   0.590  0.1255 -0.7948  1.9223
   82MOL    C6626148   5.731   1.394   0.761  0.9889 -0.2210 -0.4796
   82MOL    O6726149   5.597   1.408   0.821  0.0076 -0.3772  0.0445
   82MOL    C6826150   5.579   1.542   0.877 -0.4129  0.1626 -0.4901
   82MOL    C6926151   5.443   1.556   0.943 -0.1047 -0.0820  0.0424
   82MOL    C7026152   5.317   1.538   0.860  0.5037 -0.2470 -0.1604
   82MOL    C7126153   5.808   1.275   0.824 -0.2268 -0.1553  0.2531
   82MOL    H7226154   5.792   1.483   0.780 -1.1212  1.5072 -1.5594
   82MOL    H7326155   5.653   1.561   0.955  0.7355 -0.4879 -1.3989
   82MOL    H7426156   5.582   1.615   0.797 -0.6853 -1.8136 -2.3420
   82MOL    H7526157   5.432   1.659   0.976 -2.9044 -0.2709 -0.1633
   82MOL    H7626158   5.437   1.487   1.027 -3.0245 -0.2521 -0.2416
   82MOL    H7726159   5.306   1.610   0.778 -2.2532  2.7012  2.6143
   82MOL    H7826160   5.246   1.562   0.940  1.2993  0.1806  0.4263
   82MOL    H7926161   5.306   1.438   0.818  0.8251  0.8397 -2.9445
   82MOL    H8026162   5.731   1.198   0.820  0.4152 -0.7218 -2.2583
   82MOL    H8126163   5.888   1.238   0.760 -1.8522  0.5572 -2.2485
   82MOL    C8226164   5.862   1.304   0.964  0.1084  0.2521 -0.7814
   82MOL    O8326165   5.853   1.171   1.032  0.2517  0.5080  0.0992
   82MOL    C8426166   5.747   1.183   1.137 -0.0287  0.5422 -0.1369
   82MOL    C8526167   5.721   1.042   1.189 -0.0498 -0.9113 -0.5409
   82MOL    C8626168   5.838   0.988   1.271 -0.3212  0.1465 -0.6972
   82MOL    C8726169   6.000   1.356   0.981 -0.6575 -0.2597 -0.2011
   82MOL    H8826170   5.803   1.379   1.016  0.7647  0.2156  0.0249
   82MOL    H8926171   5.787   1.234   1.224 -1.8417  0.0067  1.0358
   82MOL    H9026172   5.658   1.240   1.112  1.4809  2.3420 -1.5668
   82MOL    H9126173   5.685   0.976   1.110  1.0996  0.2252 -2.0446
   82MOL    H9226174   5.631   1.061   1.249 -0.4345 -2.0549 -0.7529
   82MOL    H9326175   5.808   0.893   1.313 -0.5553  0.3697 -0.3561
   82MOL    H9426176   5.860   1.059   1.352 -0.9506 -1.6868  1.1051
   82MOL    H9526177   5.930   0.977   1.213 -0.1837 -0.1987 -0.4128
   82MOL    H9626178   6.033   1.351   1.085  0.4184 -0.8966 -0.5777
   82MOL    H9726179   6.064   1.289   0.924  0.6208  0.2238  0.6407
   82MOL    C9826180   6.033   1.500   0.923  0.2427  0.5082  0.1521
   82MOL    O9926181   5.951   1.607   0.979 -0.1502 -0.0240  0.2471
   82MOL   C10026182   5.925   1.713   0.882  0.1098 -0.1615 -1.0628
   82MOL   C10126183   5.869   1.834   0.957 -0.1051  0.6109  0.6873
   82MOL   C10226184   5.801   1.925   0.859  0.8029  0.1435 -0.1112
   82MOL   C10326185   6.181   1.543   0.936 -0.2171  0.4740  0.4205
   82MOL   H10426186   6.013   1.487   0.817  2.4136 -1.5651 -0.0361
   82MOL   H10526187   6.021   1.740   0.837  0.6813 -2.3283 -1.2065
   82MOL   H10626188   5.854   1.672   0.811 -3.3491  1.1716  1.5263
   82MOL   H10726189   5.948   1.885   1.012  1.6976 -1.2110 -0.1446
   82MOL   H10826190   5.802   1.794   1.033  0.8873  0.9433  1.7637
   82MOL   H10926191   5.869   1.984   0.797  0.9535  0.5223  0.4078
   82MOL   H11026192   5.755   2.006   0.915  0.8558  0.4169 -0.4589
   82MOL   H11126193   5.736   1.872   0.790  0.4830 -1.0161  1.0827
   82MOL   H11226194   6.227   1.460   0.883  0.1452  1.3077 -0.5785
   82MOL   H11326195   6.182   1.619   0.858 -1.5405 -3.2222 -3.3682
   82MOL   C11426196   6.227   1.577   1.080 -0.1614  0.1641  0.7854
   82MOL   O11526197   6.263   1.455   1.149  0.3083 -0.1054 -0.5110
   82MOL   C11626198   6.241   1.461   1.287  0.7027  0.0268  0.4445
   82MOL   C11726199   6.294   1.337   1.355  0.1160  0.4287  0.3597
   82MOL   C11826200   6.232   1.208   1.300 -0.2988 -0.1619  0.2532
   82MOL   C11926201   6.357   1.659   1.069 -0.3018 -0.9525 -0.1490
   82MOL   H12026202   6.154   1.648   1.120 -1.4409  1.0905 -2.9410
   82MOL   H12126203   6.294   1.546   1.329  0.5373 -0.6894  2.1191
   82MOL   H12226204   6.134   1.469   1.309  0.0213 -3.3766 -1.3064
   82MOL   H12326205   6.261   1.328   1.458  0.9927 -0.1171  0.5938
   82MOL   H12426206   6.403   1.341   1.352  0.2325 -0.8385  2.2720
   82MOL   H12526207   6.125   1.195   1.315 -0.8589  1.8401 -1.6552
   82MOL   H12626208   6.283   1.116   1.329  0.5490  0.3863  0.5305
   82MOL   H12726209   6.243   1.217   1.192  0.2024 -0.4563  0.2754
   82MOL   H12826210   6.420   1.637   1.155  0.7735 -2.7068 -1.3646
   82MOL   H12926211   6.409   1.622   0.981  0.3137 -0.5703  0.0459
   82MOL   C13026212   6.325   1.815   1.069 -0.6875  0.1293 -0.3554
   82MOL   O13126213   6.288   1.845   1.203 -0.1161  0.0150 -0.0911
   82MOL   C13226214   6.213   1.965   1.211 -0.4958  0.9733  0.2530
   82MOL   C13326215   6.119   1.962   1.335  0.0358 -0.7379  0.0633
   82MOL   C13426216   5.994   1.876   1.328 -0.7856 -0.5776  0.1133
   82MOL   C13526217   6.452   1.897   1.035 -0.4549 -0.0256 -0.2247
   82MOL   H13626218   6.246   1.826   0.996 -0.5921  0.9475 -0.3319
   82MOL   H13726219   6.288   2.044   1.217  1.1141 -0.6194  1.6231
   82MOL   H13826220   6.155   1.991   1.123  1.1302 -0.2269 -1.1996
   82MOL   H13926221   6.093   2.066   1.356  1.2064 -0.6131  0.9158
   82MOL   H14026222   6.187   1.936   1.416 -0.1513 -1.9644 -0.1640
   82MOL   H14126223   5.974   1.824   1.421 -1.2527 -1.3413 -0.4086
   82MOL   H14226224   6.014   1.798   1.254 -0.3685  1.5165 -2.0810
   82MOL   H14326225   5.898   1.924   1.307 -0.6070  0.1055  0.8386
   82MOL   H14426226   6.442   2.002   1.063  1.0863  0.3137 -0.9292
   82MOL   H14526227   6.526   1.866   1.108  0.2567 -1.5219 -1.5423
   82MOL   C14626228   6.494   1.903   0.888  0.1793  0.3222 -0.2397
   82MOL   O14726229   6.394   1.965   0.812  0.2560 -0.3517 -0.7381
   82MOL   C14826230   6.396   1.924   0.675 -0.4001  0.2726  0.3341
   82MOL   C14926231   6.367   2.045   0.590  0.3514  0.0831  0.0144
   82MOL   C15026232   6.361   2.020   0.441 -0.8915  0.6137 -0.5392
   82MOL   C15126233   6.621   1.991   0.877  0.5321  1.1131  0.4276
   82MOL   H15226234   6.519   1.806   0.845 -2.6161 -0.8390  0.6201
   82MOL   H15326235   6.493   1.886   0.645 -1.5658 -1.5633 -1.2270
   82MOL   H15426236   6.327   1.840   0.662 -0.1717 -0.2359  2.2386
   82MOL   H15526237   6.434   2.125   0.622 -0.8099  0.7805  0.7312
   82MOL   H15626238   6.268   2.087   0.609  1.5953  3.0485  0.1473
   82MOL   H15726239   6.284   1.950   0.408  0.4027  0.0250 -2.4120
   82MOL   H15826240   6.459   1.980   0.413 -1.7389 -2.0002  0.1074
   82MOL   H15926241   6.361   2.115   0.388  0.3088  1.0666  0.2455
   82MOL   H16026242   6.642   1.998   0.771  1.0543 -2.8289  0.1751
   82MOL   H16126243   6.605   2.090   0.918  1.9765  1.3682  0.3880
   82MOL   C16226244   6.751   1.928   0.951 -0.5337  0.7493 -0.2622
   82MOL   O16326245   6.788   1.811   0.884 -0.1682  0.0348  0.5405
   82MOL   C16426246   6.763   1.692   0.953 -0.2412  0.2242 -0.1283
   82MOL   C16526247   6.813   1.581   0.857 -0.1505  0.4428 -0.2745
   82MOL   C16626248   6.713   1.562   0.741 -0.3353 -0.6231  0.3772
   82MOL   C16726249   6.876   2.014   0.918 -0.5396 -0.1299 -0.3520
   82MOL   H16826250   6.744   1.913   1.059 -0.5683 -0.4724 -0.4278
   82MOL   H16926251   6.808   1.688   1.052  0.7031 -0.8202 -0.5832
   82MOL   H17026252   6.658   1.674   0.976  0.0668  1.2510  2.2813
   82MOL   H17126253   6.810   1.497   0.927  0.0476 -0.7686 -1.6795
   82MOL   H17226254   6.915   1.610   0.832 -0.1565  1.2424  0.6173
   82MOL   H17326255   6.725   1.467   0.690  0.9525 -0.0093 -0.4853
   82MOL   H17426256   6.716   1.646   0.672 -2.2012 -0.7102  0.1400
   82MOL   H17526257   6.614   1.558   0.788  0.1184  0.4284  1.4613
   82MOL   H17626258   6.958   1.946   0.938 -0.5201 -0.2334 -0.7818
   82MOL   H17726259   6.868   2.039   0.812  1.5431  2.3661  0.0386
   82MOL   C17826260   6.898   2.142   0.996  0.3586  0.0436  0.1920
   82MOL   O17926261   6.929   2.088   1.127 -0.1883  0.3756 -0.5229
   82MOL   C18026262   6.865   2.146   1.235 -0.0099 -0.0762  0.1573
   82MOL   C18126263   6.908   2.086   1.371  1.1220 -0.1864  0.2196
   82MOL   C18226264   6.868   1.938   1.396 -0.1036 -0.1962  0.1203
   82MOL   C18326265   7.019   2.224   0.953 -0.2384 -0.3468 -0.1235
   82MOL   H18426266   6.809   2.205   1.000 -0.4062 -0.9020 -1.4559
   82MOL   H18526267   6.899   2.249   1.238 -1.4447  0.4954 -1.7521
   82MOL   H18626268   6.758   2.138   1.216  0.1146 -0.0071 -0.5928
   82MOL   H18726269   6.867   2.153   1.446 -0.4510  0.7883 -1.4616
   82MOL   H18826270   7.016   2.091   1.388  1.0058 -1.5675  1.4604
   82MOL   H18926271   6.937   1.869   1.348 -0.5289 -0.0627 -0.6829
   82MOL   H19026272   6.767   1.930   1.356  0.4408  1.8453 -1.8002
   82MOL   H19126273   6.866   1.913   1.502  1.2647  0.6172  0.3464
   82MOL   H19226274   7.026   2.306   1.025  0.8317 -1.0183  0.5566
   82MOL   H19326275   7.098   2.153   0.978 -1.3218 -2.5242 -2.6543
   82MOL   C19426276   7.031   2.268   0.799 -0.2678  0.3047  0.5918
   82MOL   O19526277   6.908   2.320   0.758 -0.2163  0.6766  0.2059
   82MOL   C19626278   6.865   2.283   0.632 -0.4212 -0.5206 -0.1638
   82MOL   C19726279   6.711   2.318   0.626  0.0694  0.2447  0.1415
   82MOL   C19826280   6.656   2.297   0.486 -0.1631  0.2272  0.8224
   82MOL   C19926281   7.145   2.381   0.770  0.0960 -0.1420 -0.6720
   82MOL   H20026282   7.058   2.181   0.738 -0.2786 -0.1610  1.2491
   82MOL   H20126283   6.904   2.341   0.549 -1.3415 -0.1141 -0.3172
   82MOL   H20226284   6.883   2.178   0.607 -3.0319 -0.7463 -1.3690
   82MOL   H20326285   6.684   2.419   0.657  1.0096  0.3344  0.6694
   82MOL   H20426286   6.651   2.257   0.693 -2.3949 -0.0853 -2.2401
   82MOL   H20526287   6.686   2.199   0.448  0.2082  1.1844 -1.4324
   82MOL   H20626288   6.682   2.378   0.418  0.1387  1.0373  1.8778
   82MOL   H20726289   6.548   2.307   0.495 -0.1384  1.1712  0.1272
   82MOL   H20826290   7.135   2.443   0.681 -1.2085 -0.5868 -0.8442
   82MOL   H20926291   7.140   2.454   0.851  1.3113  0.3661 -1.0506
   82MOL   C21026292   7.282   2.309   0.759  0.1964 -0.0603  0.2062
   82MOL   O21126293   7.282   2.238   0.634 -0.2868 -0.1146 -0.4388
   82MOL   C21226294   7.370   2.125   0.636 -0.5946 -0.2191  0.7266
   82MOL   C21326295   7.397   2.067   0.498 -0.5389  0.0140  0.0189
   82MOL   C21426296   7.491   1.950   0.490  0.3992  0.3601  0.6215
   82MOL   C21526297   7.397   2.415   0.761 -0.1999  0.6316 -0.3210
   82MOL   H21626298   7.297   2.242   0.843 -0.6080 -0.8015 -0.2325
   82MOL   H21726299   7.463   2.154   0.685 -2.0581  2.3158  2.0263
   82MOL   H21826300   7.329   2.048   0.701 -1.4270 -2.0068 -1.8205
   82MOL   H21926301   7.437   2.144   0.432  1.0797 -0.0762  0.8522
   82MOL   H22026302   7.300   2.039   0.457  0.4217 -0.1292 -2.1955
   82MOL   H22126303   7.443   1.863   0.535 -1.2316  0.2102 -1.3092
   82MOL   H22226304   7.590   1.972   0.530  1.6790 -0.8719 -1.7334
   82MOL   H22326305   7.504   1.918   0.386  0.3726  1.3019  0.3237
   82MOL   H22426306   7.479   2.370   0.706 -0.8530 -1.7827  0.5985
   82MOL   H22526307   7.358   2.501   0.707  0.7334  0.2798 -1.5803
   82MOL   C22626308   7.440   2.469   0.905  0.4519  1.0242 -0.5478
   82MOL   O22726309   7.483   2.351   0.980 -0.3300  0.4060 -0.4143
   82MOL   C22826310   7.456   2.357   1.122 -0.1139  0.4528 -0.0378
   82MOL   C22926311   7.573   2.284   1.189 -0.1462 -0.8132  0.1636
   82MOL   C23026312   7.699   2.372   1.187  0.3703  0.2909 -0.1044
   82MOL   C23126313   7.561   2.565   0.896  0.4144 -0.4788  0.5165
   82MOL   H23226314   7.355   2.512   0.958  0.6365  0.0462  0.5556
   82MOL   H23326315   7.444   2.459   1.158  0.8808  0.8207 -0.7358
   82MOL   H23426316   7.366   2.295   1.126  0.6057 -0.5984 -0.0389
   82MOL   H23526317   7.589   2.190   1.135  1.3364 -0.6705  0.3232
   82MOL   H23626318   7.541   2.252   1.288 -1.9973 -0.3652 -0.2645
   82MOL   H23726319   7.777   2.329   1.250 -0.6622 -2.8898 -0.9118
   82MOL   H23826320   7.677   2.471   1.228  1.1931 -0.1252  1.3843
   82MOL   H23926321   7.737   2.372   1.085  3.3093 -0.8168  0.9336
   82MOL   H24026322   7.605   2.562   0.996 -2.2754 -1.1769  1.7063
   82MOL   H24126323   7.624   2.505   0.831 -1.2952 -2.6020  0.7946
   82MOL   C24226324   7.517   2.706   0.843 -0.8722 -0.1395 -0.1856
   82MOL   O24326325   7.438   2.763   0.954  0.3703  0.3113  0.0959
   82MOL   C24426326   7.296   2.781   0.920 -0.4790 -0.4678  0.1135
   82MOL   C24526327   7.233   2.813   1.063 -0.0283 -0.0083 -0.5067
   82MOL   C24626328   7.212   2.697   1.158 -0.1053  0.1035 -0.0494
   82MOL   C24726329   7.635   2.802   0.823 -0.7325 -0.3251 -0.1108
   82MOL   H24826330   7.461   2.709   0.750  0.6089 -0.7563 -1.1167
   82MOL   H24926331   7.286   2.867   0.853 -2.9345 -1.8165 -1.3221
   82MOL   H25026332   7.254   2.689   0.879 -2.2364  1.1387 -1.8395
   82MOL   H25126333   7.138   2.865   1.050 -1.1630 -1.3811  1.9125
   82MOL   H25226334   7.294   2.889   1.112 -2.2102  1.8308 -0.5681
   82MOL   H25326335   7.303   2.643   1.183 -0.5558 -0.4748  0.3447
   82MOL   H25426336   7.143   2.628   1.110  2.0230 -2.4836  0.5106
   82MOL   H25526337   7.171   2.717   1.258  2.6335 -0.2038  1.1874
   82MOL   H25626338   7.604   2.902   0.793  1.1687  0.2464 -0.2521
   82MOL   H25726339   7.682   2.807   0.921  1.0310  0.6880 -0.9875
   82MOL   C25826340   7.724   2.748   0.713 -0.8335 -0.0681  0.0918
   82MOL   O25926341   7.642   2.694   0.607 -0.6693  0.5184  0.2078
   82MOL   C26026342   7.700   2.581   0.544 -0.2814 -0.4163  0.2381
   82MOL   C26126343   7.592   2.529   0.449  0.3712 -0.8523 -0.7923
   82MOL   C26226344   7.630   2.391   0.387 -0.0659  1.1594  0.8444
   82MOL   C26326345   0.008   2.853   0.665 -0.6908 -0.8034 -0.0092
   82MOL   H26426346   7.772   2.664   0.763  0.8453 -0.3778 -1.9791
   82MOL   H26526347   7.787   2.609   0.485 -0.6313  0.4196  0.1168
   82MOL   H26626348   7.728   2.507   0.619  0.8927  1.2552  1.4719
   82MOL   H26726349   7.566   2.611   0.382  1.2996  1.1876  1.2826
   82MOL   H26826350   7.499   2.522   0.506  1.4963  2.2627  1.5651
   82MOL   H26926351   7.727   2.395   0.338 -0.3132 -0.3289  0.2131
   82MOL   H27026352   7.546   2.378   0.320  1.6661 -0.3667 -1.0947
   82MOL   H27126353   7.630   2.314   0.464 -0.6573 -0.2491 -0.5371
   82MOL   H27226354   0.057   2.818   0.574  1.1261  2.1874 -0.2537
   82MOL   H27326355   7.784   2.943   0.631 -0.1912  1.0914  3.9088
   82MOL   C27426356   0.127   2.888   0.755  0.2873  0.3162  0.1504
   82MOL   O27526357   0.187   2.762   0.775  0.2862 -0.2150  0.7858
   82MOL   C27626358   0.250   2.757   0.905  0.2959  0.3174 -0.1947
   82MOL   C27726359   0.345   2.639   0.917 -0.4945 -0.4977  0.1519
   82MOL   C27826360   0.264   2.509   0.936  0.7659 -0.0395 -0.1863
   82MOL   C27926361   0.225   2.984   0.690  0.0847  0.1966  0.1066
   82MOL   H28026362   0.081   2.918   0.850 -1.7445 -0.1183 -0.6681
   82MOL   H28126363   0.302   2.852   0.915 -0.3394  0.7550 -1.0452
   82MOL   H28226364   0.168   2.755   0.978  0.0900  0.3630 -0.4259
   82MOL   H28326365   0.427   2.659   0.986 -0.0995 -1.1952 -0.1106
   82MOL   H28426366   0.398   2.634   0.822 -1.9833  1.4145 -0.7978
   82MOL   H28526367   0.212   2.516   1.031 -1.2406 -0.0736 -1.2722
   82MOL   H28626368   0.329   2.423   0.920  0.2208 -0.2117 -1.4698
   82MOL   H28726369   0.183   2.502   0.864 -0.5758 -1.8239  1.4314
   82MOL   H28826370   0.321   2.984   0.741 -0.0036 -1.6713  0.2908
   82MOL   H28926371   0.243   2.953   0.587  0.5143 -0.1827  0.2960
   82MOL   C29026372   0.173   3.132   0.681  0.2833  0.4747  0.5863
   82MOL   O29126373   0.202   3.180   0.814 -0.0082  0.3295 -0.5641
   82MOL   C29226374   0.089   3.220   0.889 -1.1687  0.0723  0.2343
   82MOL   C29326375   0.143   3.276   1.026  0.0612  0.6143 -0.5020
   82MOL   C29426376   0.157   3.173   1.135  0.1535 -0.5384  0.0528
   82MOL   C29526377   0.256   3.210   0.574 -0.5724 -0.4437  0.4828
   82MOL   H29626378   0.066   3.136   0.660  0.4119 -0.5471 -0.2910
   82MOL   H29726379   0.033   3.291   0.829  0.9067 -0.0951 -1.9886
   82MOL   H29826380   0.018   3.139   0.907 -0.1612 -0.8743  0.0242
   82MOL   H29926381   0.083   3.359   1.065  2.7721  2.6619 -0.5325
   82MOL   H30026382   0.244   3.315   1.010 -0.1608  0.9757 -1.0553
   82MOL   H30126383   0.227   3.091   1.118  0.0970 -0.7421  0.8119
   82MOL   H30226384   0.066   3.121   1.166  0.0150 -1.2037 -1.4309
   82MOL   H30326385   0.201   3.234   1.213  0.2677  0.3403 -0.6852
   82MOL   H30426386   0.362   3.193   0.596 -0.9216 -1.0717  1.7361
   82MOL   H30526387   0.242   3.177   0.471 -2.2219 -1.4492  1.0063
   82MOL   C30626388   0.218   3.363   0.567  0.2608  0.0563 -0.6536
   82MOL   O30726389   0.321   3.427   0.493  0.1566  0.8734 -0.4697
   82MOL   C30826390   0.331   3.569   0.507  0.3313 -0.1652 -0.5112
   82MOL   C30926391   0.486   3.593   0.513  0.4831 -1.1065  0.3699
   82MOL   C31026392   0.520   3.739   0.526 -0.3134 -0.8508 -0.8718
   82MOL   C31126393   0.082   3.376   0.498 -0.2574  0.0245 -0.4384
   82MOL   H31226394   0.221   3.403   0.669  0.6793 -3.2662  0.7007
   82MOL   H31326395   0.284   3.614   0.419 -3.3015 -1.0517  0.8995
   82MOL   H31426396   0.275   3.597   0.596 -1.0884  0.2315 -1.5137
   82MOL   H31526397   0.532   3.552   0.423  1.4653 -0.7651  0.7139
   82MOL   H31626398   0.543   3.542   0.591  0.6552 -2.1847 -0.4526
   82MOL   H31726399   0.488   3.784   0.620  0.2774 -1.5966 -0.3142
   82MOL   H31826400   0.471   3.795   0.446 -0.4188  1.0522  0.4671
   82MOL   H31926401   0.628   3.756   0.524 -0.5009  0.9394  1.5773
   82MOL   H32026402   0.008   3.317   0.552  0.4113 -1.4460 -1.0954
   82MOL   H32126403   0.045   3.477   0.484 -0.0061  0.1923  0.1212
   82MOL   H32226404   0.088   3.332   0.398 -1.8982 -1.0037 -0.1058
   83MOL     C126405   5.552   5.316   6.091  0.3712 -0.1960 -0.1929
   83MOL     O226406   5.575   5.413   6.189  0.3356 -0.6047  0.0997
   83MOL     C326407   5.459   5.480   6.242  0.5822  0.1044  0.3508
   83MOL     C426408   5.506   5.588   6.332  0.3953 -0.4676 -0.6908
   83MOL     C526409   5.400   5.658   6.424 -0.0817 -0.3826  0.4589
   83MOL     C626410   5.490   5.183   6.141  0.5701 -0.4336  0.4708
   83MOL     H726411   5.644   5.306   6.033  0.7782 -1.0558  0.5806
   83MOL     H826412   5.410   5.522   6.154 -0.0150  0.2974  0.7733
   83MOL     H926413   5.389   5.414   6.292 -0.2351  0.7108  0.0210
   83MOL    H1026414   5.575   5.656   6.283  1.0951 -0.8838 -0.2816
   83MOL    H1126415   5.580   5.548   6.401  0.3246 -1.6096 -1.2777
   83MOL    H1226416   5.443   5.727   6.497  0.0171 -1.5690  1.5217
   83MOL    H1326417   5.338   5.594   6.487  1.7688 -0.8504  1.8626
   83MOL    H1426418   5.331   5.721   6.367 -0.1420 -0.0689  0.8763
   83MOL    H1526419   5.390   5.197   6.183 -0.1905 -2.6461 -0.5540
   83MOL    H1626420   5.461   5.126   6.053 -1.5766  3.1161 -1.2430
   83MOL    H1726421   5.478   5.346   6.017  1.1842  1.6095 -0.3070
   83MOL    C1826422   5.592   5.108   6.226 -0.4024  0.4385 -0.5630
   83MOL    O1926423   5.552   5.120   6.363  0.1559 -0.4856  0.7088
   83MOL    C2026424   5.654   5.156   6.452 -0.2534  0.2850  0.5734
   83MOL    C2126425   5.589   5.172   6.589 -0.0521 -0.0111 -0.1750
   83MOL    C2226426   5.488   5.281   6.598 -0.2997 -0.0858 -1.0962
   83MOL    C2326427   5.608   4.956   6.180 -0.7152  0.4205 -0.1067
   83MOL    H2426428   5.683   5.158   6.194 -1.7172  1.5367 -2.7085
   83MOL    H2526429   5.733   5.081   6.456 -0.6160 -0.0915  0.6957
   83MOL    H2626430   5.702   5.251   6.429  1.2400 -0.4044  0.8335
   83MOL    H2726431   5.671   5.198   6.655  0.3088 -0.2595 -0.5179
   83MOL    H2826432   5.550   5.081   6.634 -1.1631  0.3005 -0.4934
   83MOL    H2926433   5.515   5.382   6.565  0.5578 -0.0140 -0.1985
   83MOL    H3026434   5.446   5.289   6.698  2.2070 -1.3878  0.0962
   83MOL    H3126435   5.404   5.245   6.539  0.0047 -2.1559 -0.3095
   83MOL    H3226436   5.674   4.930   6.263  0.5660 -1.2311 -1.6239
   83MOL    H3326437   5.517   4.898   6.196 -0.4668  0.2636  0.7917
   83MOL    C3426438   5.681   4.922   6.052 -0.0509 -0.6203 -0.3486
   83MOL    O3526439   5.804   5.000   6.054  0.0922  0.0540 -0.0155
   83MOL    C3626440   5.824   5.088   5.939  0.2383  1.1894 -0.0211
   83MOL    C3726441   5.938   5.187   5.965  0.2302 -0.0893 -0.0337
   83MOL    C3826442   5.994   5.254   5.841 -0.0884  0.3995 -0.1202
   83MOL    C3926443   5.712   4.772   6.042 -0.0050  1.1820  0.1624
   83MOL    H4026444   5.616   4.953   5.971  1.8262 -0.0941 -1.6920
   83MOL    H4126445   5.848   5.020   5.858  0.2398 -0.1363  1.0827
   83MOL    H4226446   5.730   5.140   5.924 -1.2572 -1.5352 -0.2830
   83MOL    H4326447   6.015   5.123   6.006 -0.4494 -2.3105 -2.1090
   83MOL    H4426448   5.901   5.261   6.036 -1.2676  1.3596 -2.2574
   83MOL    H4526449   6.049   5.187   5.775  0.9168  1.1623 -0.0696
   83MOL    H4626450   6.056   5.337   5.874 -1.7064  1.6145 -0.0733
   83MOL    H4726451   5.913   5.292   5.779  0.9906 -0.9108 -2.3657
   83MOL    H4826452   5.786   4.749   6.119  0.8091  0.1186 -0.9182
   83MOL    H4926453   5.633   4.705   6.075  0.5921  1.1390  1.5352
   83MOL    C5026454   5.766   4.720   5.905  0.4228  0.9778  0.4567
   83MOL    O5126455   5.800   4.580   5.905  0.4906  0.7594  0.0434
   83MOL    C5226456   5.925   4.552   5.965 -0.2405  0.5066 -0.0906
   83MOL    C5326457   5.946   4.409   5.911  0.6118 -0.3987 -0.8497
   83MOL    C5426458   5.978   4.415   5.760 -0.4800 -0.2999 -0.2157
   83MOL    C5526459   5.661   4.738   5.784 -0.7705  0.4230 -0.0568
   83MOL    H5626460   5.856   4.777   5.881  0.6968  1.5679  2.8076
   83MOL    H5726461   6.005   4.618   5.932  1.7149 -1.7140  0.0164
   83MOL    H5826462   5.917   4.546   6.074 -2.4204  1.7317 -0.1692
   83MOL    H5926463   5.861   4.351   5.947  0.5812 -0.2922 -0.7520
   83MOL    H6026464   6.034   4.364   5.958 -0.6281 -1.0315  0.9219
   83MOL    H6126465   5.903   4.469   5.701  2.6115  1.3250 -2.8370
   83MOL    H6226466   5.973   4.310   5.734 -0.0901 -0.5447  0.6967
   83MOL    H6326467   6.080   4.452   5.749 -0.6905  0.2214 -0.4548
   83MOL    H6426468   5.596   4.650   5.786  0.1337 -0.2475  0.2537
   83MOL    H6526469   5.603   4.830   5.781  0.8619  1.5019  0.4760
   83MOL    C6626470   5.714   4.720   5.638 -0.4326 -0.2375 -0.5051
   83MOL    O6726471   5.595   4.695   5.575  0.0908  0.0220 -0.0201
   83MOL    C6826472   5.609   4.594   5.477 -0.3885 -0.2763  0.6123
   83MOL    C6926473   5.491   4.570   5.383 -1.1588  0.5780  0.3545
   83MOL    C7026474   5.438   4.696   5.313  0.4864 -0.0998  0.5015
   83MOL    C7126475   5.773   4.842   5.571  0.1670  0.9462 -0.0081
   83MOL    H7226476   5.783   4.637   5.652  1.3016  1.1908 -0.4444
   83MOL    H7326477   5.701   4.608   5.419 -0.7385  1.2988  0.3944
   83MOL    H7426478   5.630   4.500   5.528 -0.8564 -0.6703  0.0827
   83MOL    H7526479   5.412   4.541   5.452  0.7693 -0.0822  2.3592
   83MOL    H7626480   5.512   4.492   5.310  0.5940 -2.2949  3.7961
   83MOL    H7726481   5.348   4.675   5.256 -0.0058  1.7843  0.5431
   83MOL    H7826482   5.515   4.737   5.247 -2.0062 -0.1673 -2.5499
   83MOL    H7926483   5.413   4.773   5.387  2.1288  0.7353  0.2138
   83MOL    H8026484   5.760   4.855   5.463 -0.8590  0.7045  0.0842
   83MOL    H8126485   5.708   4.921   5.607  1.9367  2.7086 -0.5775
   83MOL    C8226486   5.918   4.872   5.595  0.4496  0.4011 -0.1428
   83MOL    O8326487   5.999   4.772   5.530  0.1643  1.0620  0.2836
   83MOL    C8426488   6.122   4.727   5.605 -0.1568 -0.0801 -0.3005
   83MOL    C8526489   6.231   4.644   5.516  0.4313 -0.1029  0.3132
   83MOL    C8626490   6.323   4.741   5.434 -0.2879  0.2290  0.3617
   83MOL    C8726491   5.967   5.011   5.540 -0.0858 -0.4835 -0.2677
   83MOL    H8826492   5.930   4.882   5.703  0.0628 -0.7907  0.0162
   83MOL    H8926493   6.172   4.810   5.654  2.2684 -0.2395 -2.3811
   83MOL    H9026494   6.070   4.669   5.681  1.3210 -0.7806  0.1943
   83MOL    H9126495   6.173   4.588   5.442  0.7672 -0.8608  0.6265
   83MOL    H9226496   6.294   4.579   5.576  0.8207  1.5260  1.6878
   83MOL    H9326497   6.261   4.808   5.374  1.0037 -0.0408 -1.3077
   83MOL    H9426498   6.389   4.687   5.366  0.5787  2.4829 -0.6256
   83MOL    H9526499   6.391   4.805   5.490 -1.7912  1.0581  1.2614
   83MOL    H9626500   5.903   5.086   5.587  0.7509 -0.2504  0.5168
   83MOL    H9726501   6.068   5.017   5.581 -0.3065 -0.7143  0.3119
   83MOL    C9826502   5.956   5.050   5.390  0.6678  0.1344  0.4838
   83MOL    O9926503   5.821   5.096   5.368 -0.2177 -0.2631 -0.7687
   83MOL   C10026504   5.766   5.108   5.241  0.2377 -0.1832  0.2765
   83MOL   C10126505   5.619   5.153   5.256  0.5368  0.6441 -0.5786
   83MOL   C10226506   5.595   5.300   5.224  0.0408  0.4767 -0.2251
   83MOL   C10326507   6.055   5.161   5.341 -0.0018 -0.0960 -0.4642
   83MOL   H10426508   5.975   4.961   5.330  2.8582 -1.1350  2.9098
   83MOL   H10526509   5.839   5.168   5.187 -2.7003  3.0894 -0.2482
   83MOL   H10626510   5.769   5.014   5.186 -1.2727 -0.0125 -0.1347
   83MOL   H10726511   5.568   5.120   5.347 -0.1437 -0.2343 -1.2701
   83MOL   H10826512   5.552   5.099   5.189  0.1550  0.4807 -0.0725
   83MOL   H10926513   5.611   5.367   5.308 -0.4257 -0.5450  0.6810
   83MOL   H11026514   5.492   5.315   5.191 -0.2135 -0.9598 -0.1211
   83MOL   H11126515   5.661   5.318   5.139 -0.1719  0.8653 -0.3101
   83MOL   H11226516   6.157   5.123   5.349  0.2169  0.3586 -1.0806
   83MOL   H11326517   6.049   5.188   5.236  1.0223 -0.0958 -0.5330
   83MOL   C11426518   6.046   5.295   5.411 -0.1735 -0.3930 -0.5651
   83MOL   O11526519   6.149   5.368   5.361  0.1759 -0.1746  0.4002
   83MOL   C11626520   6.267   5.364   5.431 -0.3970 -1.1027 -0.2115
   83MOL   C11726521   6.368   5.433   5.350  0.6011  1.0400 -0.0168
   83MOL   C11826522   6.329   5.575   5.310 -0.1410  0.1748 -0.7948
   83MOL   C11926523   5.923   5.386   5.371  0.0326  0.5609 -0.3105
   83MOL   H12026524   6.054   5.294   5.519 -0.4228  1.8661 -0.5176
   83MOL   H12126525   6.265   5.412   5.529  0.9995  0.3677 -0.8684
   83MOL   H12226526   6.308   5.265   5.448 -0.8875 -1.8755 -3.2395
   83MOL   H12326527   6.391   5.370   5.265  0.0935 -0.7270  1.1289
   83MOL   H12426528   6.455   5.432   5.416  0.3484  1.1790  0.3176
   83MOL   H12526529   6.389   5.603   5.224 -1.6041  0.2318 -1.8021
   83MOL   H12626530   6.354   5.649   5.386 -0.4756  0.7481 -1.2409
   83MOL   H12726531   6.224   5.581   5.282 -0.7222 -0.0527  1.2603
   83MOL   H12826532   5.907   5.374   5.264  0.1983 -1.2272 -0.1489
   83MOL   H12926533   5.833   5.338   5.408  1.0023 -0.6870  0.4909
   83MOL   C13026534   5.926   5.529   5.427 -0.0116  0.4761  0.3867
   83MOL   O13126535   5.812   5.599   5.380 -0.3719 -0.2615  0.1798
   83MOL   C13226536   5.832   5.671   5.260 -0.0449 -0.0054 -0.1238
   83MOL   C13326537   5.706   5.726   5.204 -0.8667  0.1610 -0.4121
   83MOL   C13426538   5.624   5.788   5.320  0.7835 -0.5332  0.2398
   83MOL   C13526539   5.919   5.532   5.580 -0.1469  0.5932 -0.0169
   83MOL   H13626540   6.018   5.573   5.388 -0.0436 -0.7852 -1.1965
   83MOL   H13726541   5.889   5.763   5.269  0.5989 -0.2276 -1.6597
   83MOL   H13826542   5.875   5.613   5.178 -0.1030 -0.6917  0.3238
   83MOL   H13926543   5.655   5.640   5.163 -1.0276  0.2691 -0.4370
   83MOL   H14026544   5.714   5.802   5.126 -0.6423  0.8318  0.2466
   83MOL   H14126545   5.531   5.832   5.284  0.0313 -2.8697 -0.7728
   83MOL   H14226546   5.684   5.865   5.369  0.3678  0.0057 -0.0909
   83MOL   H14326547   5.600   5.713   5.396 -0.2835 -1.7029 -1.2284
   83MOL   H14426548   5.833   5.475   5.613  0.9512 -0.0155  1.8638
   83MOL   H14526549   6.003   5.481   5.628 -0.5883  1.2669  1.4987
   83MOL   C14626550   5.928   5.670   5.641 -0.5177  0.2139  0.7354
   83MOL   O14726551   5.909   5.654   5.780  0.1410  0.0629  0.2908
   83MOL   C14826552   5.775   5.632   5.822 -0.8657 -0.3601  1.1093
   83MOL   C14926553   5.768   5.623   5.974 -0.1601  0.4478  0.6106
   83MOL   C15026554   5.787   5.756   6.041 -0.7467  0.6462 -0.1743
   83MOL   C15126555   6.074   5.733   5.635  0.1564  0.0269 -0.2875
   83MOL   H15226556   5.865   5.745   5.593  0.8728  0.2895 -1.0279
   83MOL   H15326557   5.705   5.705   5.782  2.7706  1.4449 -2.2324
   83MOL   H15426558   5.747   5.534   5.783  0.9549 -0.5380  0.2228
   83MOL   H15526559   5.848   5.560   6.011 -1.1778 -1.8027 -0.8589
   83MOL   H15626560   5.676   5.584   6.019 -0.5705  1.0668  0.3213
   83MOL   H15726561   5.884   5.793   6.006 -0.3903  0.8590  1.0002
   83MOL   H15826562   5.778   5.753   6.149  1.3032  2.7682  0.0915
   83MOL   H15926563   5.706   5.818   6.003 -3.1408 -0.2370  3.2175
   83MOL   H16026564   6.150   5.673   5.685  1.9801  1.6097 -1.0901
   83MOL   H16126565   6.109   5.729   5.531 -1.5159 -0.4209 -0.8544
   83MOL   C16226566   6.072   5.877   5.688  0.2573  0.2195 -0.3487
   83MOL   O16326567   6.201   5.916   5.727 -0.1922  0.5933  0.2487
   83MOL   C16426568   6.223   5.910   5.870 -0.2306  0.1199  0.0783
   83MOL   C16526569   6.353   5.974   5.909 -1.1868  0.5348 -0.4384
   83MOL   C16626570   6.359   6.115   5.866  0.2993  0.1537  0.6957
   83MOL   C16726571   6.033   5.977   5.573  0.5162  0.2359 -0.4950
   83MOL   H16826572   5.995   5.897   5.762 -0.6929 -1.8203 -0.7370
   83MOL   H16926573   6.137   5.955   5.919 -0.9683  0.2012 -1.2690
   83MOL   H17026574   6.228   5.807   5.905 -0.0237 -0.0944 -0.5757
   83MOL   H17126575   6.433   5.913   5.867 -2.2877 -0.1368 -1.6212
   83MOL   H17226576   6.356   5.949   6.015  0.9582  2.9384  0.1201
   83MOL   H17326577   6.367   6.127   5.758  3.7565 -0.2616  0.8215
   83MOL   H17426578   6.443   6.176   5.901 -1.0927  3.5243 -1.5567
   83MOL   H17526579   6.268   6.164   5.900 -1.7020 -1.7495 -1.7547
   83MOL   H17626580   6.107   5.973   5.493  1.1794  0.8691  0.0758
   83MOL   H17726581   5.941   5.941   5.528  0.4865  0.8847 -0.9586
   83MOL   C17826582   6.013   6.118   5.623  0.2303  0.3078  0.0104
   83MOL   O17926583   6.052   6.217   5.534 -0.2182 -0.0903 -0.3459
   83MOL   C18026584   6.190   6.240   5.524  0.7002  0.1348 -0.0458
   83MOL   C18126585   6.208   6.353   5.428  0.1626 -0.0900  0.5119
   83MOL   C18226586   6.229   6.488   5.488 -0.1509 -0.0061  0.1291
   83MOL   C18326587   5.863   6.149   5.640 -0.3379 -0.7594 -0.5800
   83MOL   H18426588   6.066   6.130   5.717 -0.8879  1.1367  0.5545
   83MOL   H18526589   6.222   6.268   5.625  0.4373 -0.0691  0.0965
   83MOL   H18626590   6.239   6.148   5.492  0.2529  0.0954 -0.6126
   83MOL   H18726591   6.117   6.362   5.369 -0.7668  0.9386  2.0630
   83MOL   H18826592   6.292   6.332   5.361  0.5400  4.2109 -0.4591
   83MOL   H18926593   6.148   6.498   5.560 -1.2466 -1.8898 -0.8153
   83MOL   H19026594   6.221   6.571   5.417  0.9202  1.1352  1.3145
   83MOL   H19126595   6.320   6.502   5.546  1.0429 -1.5179 -1.3077
   83MOL   H19226596   5.856   6.258   5.650  3.4725 -0.4834  0.1141
   83MOL   H19326597   5.820   6.117   5.545  0.0079 -1.0151 -0.6543
   83MOL   C19426598   5.789   6.108   5.765 -0.7861  0.6452 -0.1763
   83MOL   O19526599   5.845   6.173   5.881  0.3753  0.5628 -0.1890
   83MOL   C19626600   5.837   6.097   6.002  0.1375 -0.0935  0.0699
   83MOL   C19726601   5.873   6.186   6.113  0.0381  1.3061 -0.7897
   83MOL   C19826602   5.784   6.301   6.148 -0.8844  0.7544  0.3462
   83MOL   C19926603   5.641   6.153   5.754  0.0592 -0.7481  1.2934
   83MOL   H20026604   5.792   5.999   5.769  0.8958  0.7614  2.5610
   83MOL   H20126605   5.741   6.046   6.010 -0.6599  1.4897  0.8474
   83MOL   H20226606   5.907   6.013   6.003  1.1044  0.6519 -1.5521
   83MOL   H20326607   5.971   6.232   6.096  2.3612 -2.6008  1.0631
   83MOL   H20426608   5.884   6.119   6.198 -0.3206  1.1222 -0.8876
   83MOL   H20526609   5.678   6.276   6.160 -1.2834  1.5697 -1.2669
   83MOL   H20626610   5.777   6.369   6.063 -0.6188 -0.5333 -0.7275
   83MOL   H20726611   5.830   6.349   6.233 -1.3075  0.1092  0.9445
   83MOL   H20826612   5.618   6.217   5.840  1.5447  0.4450  0.8131
   83MOL   H20926613   5.623   6.207   5.661 -4.5477 -2.0971  1.2533
   83MOL   C21026614   5.537   6.031   5.756 -0.5607  0.6739  0.5735
   83MOL   O21126615   5.515   5.972   5.884  0.2623 -0.8928 -0.4016
   83MOL   C21226616   5.489   6.044   5.999 -0.3282 -0.3760 -0.3663
   83MOL   C21326617   5.472   5.955   6.116 -0.1231 -0.7297  0.2093
   83MOL   C21426618   5.460   6.051   6.240 -0.1146 -0.2055 -1.1050
   83MOL   C21526619   5.399   6.064   5.711  0.7367  0.0722 -0.2431
   83MOL   H21626620   5.584   5.954   5.695 -0.1421 -0.6958  2.5549
   83MOL   H21726621   5.565   6.118   6.025 -0.6446 -0.6260  1.3628
   83MOL   H21826622   5.396   6.099   5.983  0.4863  0.4753 -2.3944
   83MOL   H21926623   5.552   5.881   6.126  1.3478  0.7261 -0.6710
   83MOL   H22026624   5.379   5.901   6.097 -0.7041 -0.2720  1.7620
   83MOL   H22126625   5.374   6.119   6.236 -0.5071 -0.6234  0.0367
   83MOL   H22226626   5.544   6.118   6.260  1.1149 -2.2120  0.6172
   83MOL   H22326627   5.447   6.002   6.336  2.6470 -0.5107 -0.8626
   83MOL   H22426628   5.350   6.132   5.781  0.6552 -0.1746 -0.0584
   83MOL   H22526629   5.396   6.114   5.614 -0.0197 -1.5289 -1.0753
   83MOL   C22626630   5.310   5.938   5.707  0.2570 -0.2852  0.5641
   83MOL   O22726631   5.172   5.965   5.695 -0.4625 -0.0212  0.1046
   83MOL   C22826632   5.105   6.001   5.815  0.6619 -0.2717  0.6739
   83MOL   C22926633   4.963   6.045   5.768 -0.9738 -0.4363  0.5598
   83MOL   C23026634   4.875   6.083   5.884  0.6726  0.5977  0.5561
   83MOL   C23126635   5.341   5.856   5.577 -0.2843  0.4163  0.2855
   83MOL   H23226636   5.326   5.869   5.790 -1.1386 -2.6348 -1.0494
   83MOL   H23326637   5.104   5.912   5.878  0.4309 -0.5989  0.2129
   83MOL   H23426638   5.145   6.086   5.870 -0.2431 -0.5353  1.7574
   83MOL   H23526639   4.920   5.966   5.707 -0.5039  0.0689 -0.4356
   83MOL   H23626640   4.984   6.134   5.709  0.2575 -0.8563  0.3439
   83MOL   H23726641   4.777   6.113   5.848  1.0354  1.3920  0.2155
   83MOL   H23826642   4.912   6.179   5.920  0.8135  0.7589 -0.0075
   83MOL   H23926643   4.857   6.028   5.976  0.5277 -2.8787 -1.4697
   83MOL   H24026644   5.309   5.911   5.489  2.6996  1.1305 -0.3991
   83MOL   H24126645   5.449   5.844   5.574 -0.6327 -3.4741  1.1193
   83MOL   C24226646   5.291   5.712   5.582 -0.1891 -0.8835  0.6051
   83MOL   O24326647   5.284   5.658   5.451 -0.5648  0.0888  0.6281
   83MOL   C24426648   5.160   5.665   5.387  0.1468  0.5807  0.6144
   83MOL   C24526649   5.186   5.604   5.247 -0.1937 -0.3012 -0.4320
   83MOL   C24626650   5.245   5.458   5.254  0.5774  0.1142  0.0426
   83MOL   C24726651   5.376   5.618   5.671  0.0410  0.7799 -0.9747
   83MOL   H24826652   5.190   5.712   5.622 -0.9173 -0.0290 -1.1594
   83MOL   H24926653   5.100   5.605   5.455 -1.0187  0.5565 -0.4291
   83MOL   H25026654   5.118   5.765   5.381  0.0631  0.6292  1.9159
   83MOL   H25126655   5.267   5.656   5.196  0.2923  1.0427  1.6471
   83MOL   H25226656   5.100   5.607   5.180  0.7300  0.6768 -1.6080
   83MOL   H25326657   5.344   5.460   5.300  0.1029 -0.4727  1.1104
   83MOL   H25426658   5.257   5.423   5.152 -0.0609  1.2729 -0.4340
   83MOL   H25526659   5.180   5.399   5.318 -1.1681  2.2201  0.2706
   83MOL   H25626660   5.461   5.584   5.611 -0.3815 -2.2126  0.0083
   83MOL   H25726661   5.422   5.665   5.758  0.4638  1.6273 -1.6394
   83MOL   C25826662   5.291   5.495   5.725 -0.5072  0.3262  0.4268
   83MOL   O25926663   5.376   5.384   5.763 -0.1760  0.0497  0.5154
   83MOL   C26026664   5.384   5.276   5.665  0.0018 -0.0462 -0.0349
   83MOL   C26126665   5.507   5.188   5.701 -0.1807  0.3431  0.1583
   83MOL   C26226666   5.638   5.250   5.649 -0.1942 -0.0560 -0.7996
   83MOL   C26326667   5.203   5.526   5.848 -0.4154 -0.1306  0.9025
   83MOL   H26426668   5.238   5.462   5.636 -0.9754  0.2962  0.7127
   83MOL   H26526669   5.291   5.220   5.674 -1.6297  2.1962 -2.1238
   83MOL   H26626670   5.392   5.325   5.567  2.0070  2.9107  1.5421
   83MOL   H26726671   5.508   5.087   5.659 -0.5186 -0.6007  2.3344
   83MOL   H26826672   5.510   5.170   5.809  3.2610  0.7675  0.2107
   83MOL   H26926673   5.652   5.221   5.545 -1.4304 -0.5153 -0.8399
   83MOL   H27026674   5.723   5.199   5.694 -0.2734 -2.6364 -3.4104
   83MOL   H27126675   5.640   5.359   5.652 -0.7900 -0.0743  1.1958
   83MOL   H27226676   5.273   5.549   5.928  0.2234  0.4184  0.2050
   83MOL   H27326677   5.145   5.617   5.831 -3.2061 -2.2586 -1.5172
   83MOL   C27426678   5.112   5.412   5.890 -0.2977  0.3996 -0.8159
   83MOL   O27526679   5.044   5.355   5.783  0.0674  0.0348 -0.0249
   83MOL   C27626680   4.927   5.441   5.753  0.6945  0.0126 -0.3616
   83MOL   C27726681   4.845   5.367   5.649 -0.3215  0.0123  0.3257
   83MOL   C27826682   4.921   5.351   5.516  0.1935 -0.2203 -0.2694
   83MOL   C27926683   5.188   5.304   5.963  0.2642  0.1844  0.0450
   83MOL   H28026684   5.044   5.460   5.960  1.0263 -0.0973  0.8631
   83MOL   H28126685   4.873   5.448   5.847  0.4163  0.3897 -0.5465
   83MOL   H28226686   4.951   5.543   5.725  0.7034  0.3068  0.7205
   83MOL   H28326687   4.752   5.421   5.628 -1.3368 -1.8214 -0.0648
   83MOL   H28426688   4.817   5.271   5.691 -1.5023  0.5082  0.7060
   83MOL   H28526689   4.963   5.435   5.461 -1.6014 -0.8797 -2.7802
   83MOL   H28626690   4.845   5.305   5.452 -0.2795  0.7585 -0.4141
   83MOL   H28726691   5.001   5.277   5.517 -0.0962 -0.5319 -0.0194
   83MOL   H28826692   5.232   5.233   5.894  2.1109  1.2412  0.1000
   83MOL   H28926693   5.279   5.344   6.007  0.0342  1.6180 -0.7641
   83MOL   C29026694   5.115   5.215   6.069 -0.1261 -0.5237  0.3614
   83MOL   O29126695   5.097   5.294   6.189 -0.1408  0.3994 -0.3098
   83MOL   C29226696   5.080   5.220   6.307  0.3394  0.1612 -0.2914
   83MOL   C29326697   5.049   5.318   6.417 -0.2826  0.9543 -0.4926
   83MOL   C29426698   5.026   5.245   6.550  0.4620  0.1169  0.0342
   83MOL   C29526699   4.989   5.151   6.001  0.2348 -0.9943  0.3433
   83MOL   H29626700   5.179   5.128   6.085  0.2664 -0.6922 -1.8575
   83MOL   H29726701   5.013   5.134   6.294 -1.5000  1.3252  1.1838
   83MOL   H29826702   5.174   5.170   6.330  1.2550  1.4669 -1.1995
   83MOL   H29926703   4.963   5.377   6.387 -0.7260 -0.1554 -1.4324
   83MOL   H30026704   5.138   5.381   6.422 -1.0858  2.2171 -2.0737
   83MOL   H30126705   5.119   5.200   6.585  0.3161  0.9897  1.5848
   83MOL   H30226706   4.954   5.165   6.535  0.3967 -0.5159  3.3257
   83MOL   H30326707   4.993   5.306   6.635  0.1923 -0.7129  0.5312
   83MOL   H30426708   4.944   5.095   6.082 -1.2086  0.9665  0.9385
   83MOL   H30526709   4.918   5.227   5.967  1.4735  0.2230  0.4211
   83MOL   C30626710   5.018   5.034   5.897 -0.3402  0.6592 -0.3159
   83MOL   O30726711   5.096   4.924   5.958  0.0850 -0.2285 -0.0463
   83MOL   C30826712   5.184   4.869   5.861  0.2377  0.3470  0.1655
   83MOL   C30926713   5.241   4.738   5.917  1.0401  0.0548  0.3490
   83MOL   C31026714   5.337   4.758   6.034  0.2022  0.1312  0.1778
   83MOL   C31126715   4.884   4.988   5.838 -0.8071  0.1884 -0.3555
   83MOL   H31226716   5.070   5.082   5.814  2.1319  0.4020  1.0317
   83MOL   H31326717   5.144   4.857   5.760 -2.7758  3.3324  0.9175
   83MOL   H31426718   5.265   4.940   5.848  1.0653 -0.2862  1.7110
   83MOL   H31526719   5.303   4.688   5.842  1.4878  0.1939  0.6301
   83MOL   H31626720   5.158   4.672   5.942 -1.1301  1.6404 -2.3322
   83MOL   H31726721   5.307   4.847   6.091  1.4659  1.5289 -1.2942
   83MOL   H31826722   5.442   4.769   6.006  0.2439  1.7212  0.8599
   83MOL   H31926723   5.335   4.667   6.093 -3.0504 -0.0645 -0.1200
   83MOL   H32026724   4.822   4.946   5.918 -2.6495 -0.2058 -1.9577
   83MOL   H32126725   4.819   5.057   5.785  0.1681  0.9850 -0.5388
   83MOL   H32226726   4.907   4.899   5.779 -1.7805 -1.8476  2.1929
   84MOL     C126727   2.149   6.918   2.863 -0.7707  0.0337  0.0933
   84MOL     O226728   2.046   6.830   2.886  0.2525 -0.0301 -0.5846
   84MOL     C326729   2.061   6.696   2.849 -0.0831 -0.2596  0.0963
   84MOL     C426730   2.106   6.614   2.970 -0.4915  0.1085 -0.0076
   84MOL     C526731   2.007   6.603   3.091 -0.3759  0.4261 -0.0425
   84MOL     C626732   2.113   7.055   2.917  0.3780 -0.6428  0.4412
   84MOL     H726733   2.157   6.920   2.754 -0.6658  3.1058  0.1059
   84MOL     H826734   1.962   6.667   2.813  0.4784 -0.5994 -1.1964
   84MOL     H926735   2.132   6.693   2.767 -0.5539  0.4200 -0.3468
   84MOL    H1026736   2.193   6.663   3.013 -0.4208  0.8784 -1.0001
   84MOL    H1126737   2.134   6.513   2.940  2.9748  0.8490  0.6019
   84MOL    H1226738   2.055   6.544   3.168 -2.3467 -1.3908 -0.1767
   84MOL    H1326739   1.922   6.553   3.045 -0.2535 -0.1353  0.3495
   84MOL    H1426740   1.982   6.699   3.137 -0.0783  1.5948 -2.2065
   84MOL    H1526741   2.167   7.130   2.860 -1.5206 -0.0534 -0.6080
   84MOL    H1626742   2.011   7.077   2.886  0.8000 -0.3501 -0.7653
   84MOL    H1726743   2.242   6.884   2.909 -0.5299 -0.6064 -0.8404
   84MOL    C1826744   2.122   7.079   3.070  0.1141 -0.5319  0.2835
   84MOL    O1926745   2.259   7.067   3.118  0.1792 -0.7272 -0.2733
   84MOL    C2026746   2.281   6.967   3.215  0.5401  0.1808  0.3298
   84MOL    C2126747   2.420   7.003   3.272  0.1673 -0.5703 -0.4201
   84MOL    C2226748   2.527   7.017   3.167 -0.1988  0.4185 -0.4885
   84MOL    C2326749   2.044   7.200   3.126 -0.3815  0.2865  0.3286
   84MOL    H2426750   2.065   6.993   3.106  1.0830 -2.0929 -1.7721
   84MOL    H2526751   2.206   6.983   3.292 -0.5505 -0.7436 -0.5287
   84MOL    H2626752   2.272   6.870   3.166  0.4829  0.1686  0.3661
   84MOL    H2726753   2.443   6.952   3.366 -1.4617 -0.6024 -0.0345
   84MOL    H2826754   2.408   7.101   3.317 -0.6987 -1.1943  0.7288
   84MOL    H2926755   2.535   7.122   3.139  1.3380  0.9525  1.8105
   84MOL    H3026756   2.494   6.964   3.078  1.8437  1.4457 -1.8972
   84MOL    H3126757   2.617   6.972   3.207 -0.5171  0.4587  0.2801
   84MOL    H3226758   2.115   7.275   3.160 -0.8668  0.3433  1.2096
   84MOL    H3326759   1.982   7.244   3.047 -0.3401 -0.7773 -0.3125
   84MOL    C3426760   1.939   7.169   3.230 -0.6468 -0.4908 -0.1454
   84MOL    O3526761   1.878   7.295   3.272  0.6091 -0.1908  0.5175
   84MOL    C3626762   1.959   7.370   3.361 -0.4301  0.6423  0.3703
   84MOL    C3726763   1.865   7.453   3.450 -0.4531 -0.7962  0.5217
   84MOL    C3826764   1.790   7.557   3.354 -0.6868  0.1245  0.1178
   84MOL    C3926765   1.820   7.093   3.172  0.3072 -0.1281  0.7724
   84MOL    H4026766   1.990   7.108   3.305 -0.3210  0.6356  0.5637
   84MOL    H4126767   2.030   7.307   3.416 -0.0053  0.3211 -0.5362
   84MOL    H4226768   2.027   7.426   3.296 -0.3890  0.3281  0.1470
   84MOL    H4326769   1.928   7.504   3.523 -0.4247  1.3208 -0.9457
   84MOL    H4426770   1.795   7.392   3.508 -2.5987  1.0668 -0.0117
   84MOL    H4526771   1.730   7.624   3.416 -1.0494  0.0488 -0.1513
   84MOL    H4626772   1.715   7.518   3.285 -0.8902 -0.3707  0.6211
   84MOL    H4726773   1.851   7.625   3.294 -1.2222  1.5100  1.1179
   84MOL    H4826774   1.768   7.158   3.101  1.0012 -0.6872 -0.2714
   84MOL    H4926775   1.855   7.010   3.110  0.5336 -1.4619  2.6412
   84MOL    C5026776   1.725   7.038   3.276 -0.1081 -0.1805  0.3009
   84MOL    O5126777   1.610   6.975   3.217 -0.3109 -0.2990 -0.8703
   84MOL    C5226778   1.523   7.072   3.149 -0.4772  0.0599  0.1282
   84MOL    C5326779   1.398   6.994   3.097 -0.2529  0.2561 -0.0011
   84MOL    C5426780   1.333   7.074   2.977 -0.6678 -0.3920  0.2375
   84MOL    C5526781   1.790   6.938   3.367 -0.1639  0.1552 -0.5347
   84MOL    H5626782   1.690   7.121   3.337  1.4266 -0.2559  1.3253
   84MOL    H5726783   1.498   7.155   3.214 -0.6479 -1.7293  2.4223
   84MOL    H5826784   1.575   7.110   3.061 -1.3467 -0.1494 -0.4867
   84MOL    H5926785   1.326   6.983   3.178 -1.4857  0.1738 -1.1073
   84MOL    H6026786   1.422   6.894   3.062  2.9692 -0.0197  2.7603
   84MOL    H6126787   1.241   7.031   2.939  0.0895 -0.0874 -1.9957
   84MOL    H6226788   1.402   7.090   2.894 -0.9552 -0.5812 -0.0377
   84MOL    H6326789   1.291   7.166   3.017 -0.9025 -1.2230  1.9679
   84MOL    H6426790   1.770   6.838   3.328  1.5405 -0.1487 -0.6609
   84MOL    H6526791   1.898   6.951   3.365 -0.3239  1.5266 -1.6144
   84MOL    C6626792   1.741   6.938   3.514 -0.4008  0.5497 -0.0583
   84MOL    O6726793   1.792   6.821   3.575 -0.2239  0.4200 -0.0820
   84MOL    C6826794   1.748   6.701   3.519  0.6833 -0.4344 -0.9284
   84MOL    C6926795   1.758   6.613   3.642 -0.6244 -0.4328 -0.0707
   84MOL    C7026796   1.739   6.461   3.618 -0.5623 -0.3060 -0.0036
   84MOL    C7126797   1.795   7.051   3.598  0.0213  0.2721 -0.5074
   84MOL    H7226798   1.632   6.931   3.522 -0.4588 -0.4931 -1.5193
   84MOL    H7326799   1.647   6.701   3.478  0.6894  0.7236 -0.9433
   84MOL    H7426800   1.822   6.660   3.450  0.8837  2.3531 -2.4160
   84MOL    H7526801   1.701   6.655   3.726  1.4409  2.4908 -0.0406
   84MOL    H7626802   1.860   6.626   3.678 -1.0929  1.0681  0.7594
   84MOL    H7726803   1.653   6.447   3.551 -0.5790 -2.6822  0.4700
   84MOL    H7826804   1.734   6.400   3.708  1.7974 -1.0580 -0.3627
   84MOL    H7926805   1.830   6.435   3.565  0.4988  1.4409  0.9233
   84MOL    H8026806   1.904   7.042   3.602 -0.1294 -1.4822  0.1135
   84MOL    H8126807   1.783   7.149   3.551 -0.1205 -0.7919 -2.7291
   84MOL    C8226808   1.741   7.058   3.747 -0.7824  0.0920 -0.0826
   84MOL    O8326809   1.843   7.100   3.837 -0.1906  0.1801 -0.0226
   84MOL    C8426810   1.928   6.991   3.876  0.1296  0.6065  1.1437
   84MOL    C8526811   2.060   7.048   3.939  0.5672 -0.8080 -0.4239
   84MOL    C8626812   2.154   7.109   3.836  0.2841  0.3846  0.2997
   84MOL    C8726813   1.627   7.166   3.750  0.5162 -0.6626 -0.8767
   84MOL    H8826814   1.698   6.961   3.776 -0.1028 -0.5167 -1.0934
   84MOL    H8926815   1.867   6.924   3.936  1.0567 -0.2544  1.1462
   84MOL    H9026816   1.971   6.936   3.792 -0.1724  1.2786  0.5433
   84MOL    H9126817   2.107   6.959   3.980 -0.7832 -1.3592 -0.0545
   84MOL    H9226818   2.042   7.124   4.015 -0.4385 -0.2261 -1.2204
   84MOL    H9326819   2.130   7.210   3.803 -0.8332 -0.4547 -1.5248
   84MOL    H9426820   2.160   7.045   3.748 -2.6187 -2.0016  1.7522
   84MOL    H9526821   2.252   7.132   3.879  0.3324  1.2884 -0.2949
   84MOL    H9626822   1.666   7.268   3.749  0.4059 -0.5655  1.4120
   84MOL    H9726823   1.558   7.163   3.666 -1.1699  3.3953  0.2389
   84MOL    C9826824   1.534   7.156   3.873  0.1282  0.4524 -0.0795
   84MOL    O9926825   1.445   7.054   3.842  0.0697 -0.0058 -0.0938
   84MOL   C10026826   1.312   7.098   3.810  0.2538 -0.2576  0.4927
   84MOL   C10126827   1.245   7.000   3.707  0.2449  0.2410 -0.8008
   84MOL   C10226828   1.338   6.921   3.621 -0.8283  0.1460 -0.0824
   84MOL   C10326829   1.603   7.141   4.008 -0.5318 -0.5693  0.3446
   84MOL   H10426830   1.489   7.256   3.865 -0.9772  0.0996  1.4127
   84MOL   H10526831   1.258   7.103   3.905 -0.2955 -0.3621  0.1846
   84MOL   H10626832   1.321   7.199   3.768  1.2919  0.1229  1.6113
   84MOL   H10726833   1.190   7.069   3.644  0.0213  0.4992 -0.3273
   84MOL   H10826834   1.171   6.938   3.758  2.2393 -3.2086 -1.8860
   84MOL   H10926835   1.402   6.992   3.570  0.4691 -1.0855 -0.1791
   84MOL   H11026836   1.297   6.849   3.550 -0.6586  0.4049 -0.4455
   84MOL   H11126837   1.395   6.860   3.690  0.0151 -0.1512 -1.0479
   84MOL   H11226838   1.521   7.121   4.076 -1.3667  0.7553 -0.2526
   84MOL   H11326839   1.657   7.047   3.999  0.7690  0.1743  0.2044
   84MOL   C11426840   1.691   7.262   4.050  0.9791 -0.3542 -0.3774
   84MOL   O11526841   1.588   7.363   4.067 -0.2752 -0.7526  0.0325
   84MOL   C11626842   1.506   7.376   4.177 -0.0064 -0.1372 -0.3813
   84MOL   C11726843   1.393   7.483   4.154 -0.2190 -0.3302 -0.3942
   84MOL   C11826844   1.291   7.450   4.050 -0.1730  0.4323 -0.4286
   84MOL   C11926845   1.772   7.230   4.182  0.1122  0.4107  0.5834
   84MOL   H12026846   1.766   7.284   3.974  1.0450  0.0169 -0.2059
   84MOL   H12126847   1.445   7.288   4.197 -0.8787  0.5140 -0.1355
   84MOL   H12226848   1.560   7.403   4.268  0.4061  1.6796 -1.1437
   84MOL   H12326849   1.443   7.578   4.133 -1.1419  0.1604 -0.4047
   84MOL   H12426850   1.341   7.487   4.250 -0.8844  4.4830 -0.8459
   84MOL   H12526851   1.242   7.356   4.076 -4.4842  2.2277 -1.6583
   84MOL   H12626852   1.336   7.447   3.951  0.5946  2.1894 -0.1539
   84MOL   H12726853   1.215   7.528   4.046 -1.3764 -0.4715  3.3582
   84MOL   H12826854   1.691   7.203   4.250 -0.2547 -0.2638 -0.1067
   84MOL   H12926855   1.843   7.150   4.159  2.3578  1.9780  1.9428
   84MOL   C13026856   1.846   7.359   4.234  0.2364 -0.0268  0.8597
   84MOL   O13126857   1.909   7.326   4.359  0.0347  0.2767 -0.2922
   84MOL   C13226858   1.820   7.306   4.465  0.0828 -0.2586 -0.4416
   84MOL   C13326859   1.911   7.306   4.585  0.2159 -0.5336 -0.2357
   84MOL   C13426860   1.973   7.444   4.610  0.1832 -0.1034  0.0352
   84MOL   C13526861   1.958   7.414   4.143  0.1604  0.0320 -0.1275
   84MOL   H13626862   1.771   7.435   4.256 -0.3896 -0.3336 -0.1733
   84MOL   H13726863   1.743   7.383   4.470  0.8385  0.4308  1.2216
   84MOL   H13826864   1.764   7.213   4.456 -1.8151  0.7184  0.8983
   84MOL   H13926865   1.991   7.232   4.580  1.1924  0.5445 -0.9699
   84MOL   H14026866   1.846   7.282   4.670  0.2271  0.5967  0.1048
   84MOL   H14126867   2.041   7.467   4.529  1.6713 -1.1216  0.9569
   84MOL   H14226868   2.024   7.453   4.706 -2.4551 -2.3526  1.7645
   84MOL   H14326869   1.891   7.515   4.609  2.8800  3.0707 -0.8683
   84MOL   H14426870   2.030   7.334   4.124 -1.2544 -0.9390 -1.5184
   84MOL   H14526871   1.921   7.447   4.046 -0.1773 -0.2436 -0.0964
   84MOL   C14626872   2.029   7.543   4.197 -0.7500  0.4269 -0.3935
   84MOL   O14726873   2.112   7.581   4.096  0.3901  0.1305  0.7266
   84MOL   C14826874   2.246   7.566   4.131  0.3823 -0.1855 -0.3783
   84MOL   C14926875   2.347   7.570   4.016 -0.0627  0.2184 -0.1767
   84MOL   C15026876   2.321   7.467   3.896 -0.1124 -0.1187 -0.1698
   84MOL   C15126877   1.933   7.662   4.223  0.7034 -0.0132 -0.5258
   84MOL   H15226878   2.083   7.523   4.289 -2.1626  0.0775  0.3772
   84MOL   H15326879   2.282   7.647   4.195 -0.6296  1.3440 -1.7170
   84MOL   H15426880   2.264   7.475   4.188 -0.5973 -1.5630 -2.2106
   84MOL   H15526881   2.450   7.556   4.049 -0.9041 -2.0326  1.6234
   84MOL   H15626882   2.357   7.670   3.974  1.0720 -0.0335 -0.5155
   84MOL   H15726883   2.411   7.476   3.836  0.8917  0.2133  1.3475
   84MOL   H15826884   2.240   7.498   3.830  0.5713 -0.7303 -1.2978
   84MOL   H15926885   2.298   7.363   3.917 -0.9690  0.1310  0.1682
   84MOL   H16026886   1.897   7.694   4.125 -1.1624  3.1798  1.1297
   84MOL   H16126887   1.846   7.634   4.282  0.7003  0.5602 -0.2537
   84MOL   C16226888   1.995   7.792   4.284 -0.0507  0.1736  0.0839
   84MOL   O16326889   1.919   0.085   4.263 -0.1148  0.0068 -0.0117
   84MOL   C16426890   1.917   0.134   4.128  0.5103 -0.5272  0.7758
   84MOL   C16526891   1.884   0.291   4.123  0.8172 -0.1348  0.1956
   84MOL   C16626892   1.897   0.352   3.988 -0.2489  0.5838 -0.6661
   84MOL   C16726893   2.019   7.779   4.432  0.4840 -0.4419 -0.7102
   84MOL   H16826894   2.096   7.810   4.248  0.5173 -0.3232  1.3980
   84MOL   H16926895   2.018   0.120   4.090  0.1202  0.4162 -0.6295
   84MOL   H17026896   1.847   0.076   4.068  0.4355  0.3175  0.0408
   84MOL   H17126897   1.957   0.336   4.189  0.9275  2.0576 -1.3730
   84MOL   H17226898   1.783   0.299   4.164  0.4312 -1.0106 -0.5764
   84MOL   H17326899   1.797   0.367   3.948 -0.2793 -0.4219 -0.9809
   84MOL   H17426900   1.956   0.291   3.919 -0.4010 -1.6872  1.1478
   84MOL   H17526901   1.932   0.454   4.001 -1.9259  1.3334 -1.8356
   84MOL   H17626902   1.928   7.778   4.493  0.5571  1.6759 -0.4980
   84MOL   H17726903   2.066   7.681   4.437  0.9138 -0.2355 -0.7462
   84MOL   C17826904   2.115   0.059   4.506  0.3727 -0.6639 -0.2152
   84MOL   O17926905   2.247   0.060   4.447 -0.1412  0.4102 -0.5501
   84MOL   C18026906   2.337   7.784   4.483  1.0524 -0.0517 -0.3734
   84MOL   C18126907   2.486   7.808   4.451 -0.2023 -0.0698 -0.7877
   84MOL   C18226908   2.547   0.091   4.544  0.3924 -0.1144  0.2529
   84MOL   C18326909   2.060   0.198   4.508  0.4141 -0.1198 -0.6203
   84MOL   H18426910   2.127   0.023   4.608 -1.3560 -2.8091 -0.7290
   84MOL   H18526911   2.332   7.764   4.590 -2.6065 -0.2543 -0.5008
   84MOL   H18626912   2.307   7.693   4.432  1.1327 -1.4038  1.9226
   84MOL   H18726913   2.493   0.018   4.349 -1.7983 -0.4182 -1.0407
   84MOL   H18826914   2.536   7.713   4.471  0.6272  0.4930 -0.1920
   84MOL   H18926915   2.656   0.096   4.540  0.2875  0.2947 -2.6401
   84MOL   H19026916   2.512   0.069   4.645  0.7107  3.9840  1.3263
   84MOL   H19126917   2.498   0.184   4.519  0.0998  0.0207  1.3021
   84MOL   H19226918   2.090   0.242   4.413  1.2847 -2.8521 -1.6720
   84MOL   H19326919   1.952   0.185   4.501 -0.0935  1.4380  2.9955
   84MOL   C19426920   2.089   0.287   4.631 -0.5301  0.4437 -0.9346
   84MOL   O19526921   2.071   0.425   4.602 -0.2065  0.5409  0.0357
   84MOL   C19626922   2.188   0.499   4.574 -0.4037 -0.3106 -0.4518
   84MOL   C19726923   2.152   0.646   4.551 -0.1399 -0.7117 -0.4008
   84MOL   C19826924   2.072   0.704   4.666 -0.0460 -0.1954 -0.1585
   84MOL   C19926925   2.013   0.252   4.760 -0.0896  0.4383 -0.0764
   84MOL   H20026926   2.193   0.260   4.650 -0.2989  0.8747 -1.5815
   84MOL   H20126927   2.264   0.495   4.652 -1.6125 -2.8292  0.6582
   84MOL   H20226928   2.242   0.456   4.490 -0.0516 -0.7284 -0.0170
   84MOL   H20326929   2.086   0.651   4.464 -1.5310  1.3609  0.7267
   84MOL   H20426930   2.235   0.716   4.541 -0.1855 -0.6252 -0.1945
   84MOL   H20526931   2.074   0.813   4.659  1.9082 -0.3070 -2.0928
   84MOL   H20626932   2.104   0.673   4.765 -0.2126  1.1706  0.3345
   84MOL   H20726933   1.968   0.680   4.643  0.4445 -2.8651  0.1938
   84MOL   H20826934   2.036   0.145   4.767 -2.3027  0.0332  1.7939
   84MOL   H20926935   2.070   0.302   4.838  1.2292  1.2863 -1.5514
   84MOL   C21026936   1.862   0.283   4.769  0.4168  0.3946 -0.3811
   84MOL   O21126937   1.805   0.181   4.843 -0.0074  0.3514  0.0652
   84MOL   C21226938   1.735   0.090   4.768 -0.0865 -0.5805  0.5423
   84MOL   C21326939   1.687   7.814   4.870 -0.0009 -0.5504  0.7088
   84MOL   C21426940   1.794   7.708   4.905  0.7200  0.3215  0.2869
   84MOL   C21526941   1.834   0.409   4.848  0.2568 -0.4088 -0.9797
   84MOL   H21626942   1.819   0.298   4.669  1.7785 -0.5595 -1.1223
   84MOL   H21726943   1.640   0.126   4.729 -1.2794 -1.5863  2.4488
   84MOL   H21826944   1.789   0.046   4.684  0.3294  1.0700 -0.0763
   84MOL   H21926945   1.598   7.760   4.838 -0.6921  0.9761 -0.0166
   84MOL   H22026946   1.644   0.034   4.959 -2.1665 -0.6140 -0.2630
   84MOL   H22126947   1.773   7.650   4.994  1.2361  0.5466  0.5544
   84MOL   H22226948   1.891   7.759   4.908 -0.0029  2.0510 -2.6939
   84MOL   H22326949   1.799   7.642   4.819  0.3641  1.7239 -0.8426
   84MOL   H22426950   1.873   0.387   4.948 -0.4686  0.8452 -0.4103
   84MOL   H22526951   1.885   0.491   4.798 -0.4370  0.8781  0.3792
   84MOL   C22626952   1.680   0.452   4.860  0.5439 -0.2649 -0.7611
   84MOL   O22726953   1.668   0.578   4.939  0.5960  0.1883 -0.7471
   84MOL   C22826954   1.673   0.565   5.079  0.1826  0.4324  0.9308
   84MOL   C22926955   1.699   0.702   5.146 -0.1953  0.1977 -0.2840
   84MOL   C23026956   1.835   0.774   5.119  0.4833  0.0554  0.2596
   84MOL   C23126957   1.614   0.488   4.728  0.1730 -0.7853  0.0593
   84MOL   H23226958   1.622   0.375   4.911  0.8433  0.2949  0.4372
   84MOL   H23326959   1.583   0.514   5.112 -0.8436  0.2955 -1.9596
   84MOL   H23426960   1.754   0.491   5.088  0.2801  0.2032 -1.5732
   84MOL   H23526961   1.705   0.677   5.252 -1.6327 -1.4710 -0.5692
   84MOL   H23626962   1.615   0.768   5.127 -0.5751 -0.1756  0.1015
   84MOL   H23726963   1.914   0.749   5.190  0.9216 -1.3992 -0.7179
   84MOL   H23826964   1.810   0.880   5.131 -1.3568 -0.2381 -0.8775
   84MOL   H23926965   1.866   0.765   5.015 -0.9846 -1.5797 -0.0509
   84MOL   H24026966   1.617   0.596   4.709 -0.0146 -0.6629  0.7330
   84MOL   H24126967   1.662   0.438   4.644  1.5688 -0.1814  0.4904
   84MOL   C24226968   1.471   0.443   4.709  0.7666 -0.2443 -0.8682
   84MOL   O24326969   1.381   0.482   4.810  0.0872 -0.0423 -0.3113
   84MOL   C24426970   1.352   0.619   4.832  0.5100 -0.3485  0.4767
   84MOL   C24526971   1.230   0.637   4.918  0.6337  0.0509 -0.3525
   84MOL   C24626972   1.220   0.770   4.981 -0.0549 -0.1799  0.5590
   84MOL   C24726973   1.410   0.491   4.572  0.4442  0.3494 -0.1611
   84MOL   H24826974   1.467   0.334   4.713  0.8426 -0.2202 -0.0385
   84MOL   H24926975   1.440   0.668   4.874 -1.9291  3.0881  1.7500
   84MOL   H25026976   1.331   0.671   4.738  2.1056 -2.1843 -0.9514
   84MOL   H25126977   1.244   0.567   5.000  0.0461  0.6760  0.2983
   84MOL   H25226978   1.144   0.598   4.864  0.7799 -2.1596  0.9813
   84MOL   H25326979   1.126   0.793   5.033 -0.5631 -0.0667 -0.4062
   84MOL   H25426980   1.220   0.852   4.909 -1.3593 -2.8049 -2.5229
   84MOL   H25526981   1.293   0.801   5.056 -2.7286  0.9035  2.8728
   84MOL   H25626982   1.303   0.479   4.584  0.5154 -1.8334 -1.3829
   84MOL   H25726983   1.437   0.596   4.564  2.2497 -0.1689 -1.2444
   84MOL   C25826984   1.469   0.421   4.450 -0.0854 -0.2832 -0.3681
   84MOL   O25926985   1.433   0.286   4.441  0.2831 -0.5955  0.0132
   84MOL   C26026986   1.543   0.198   4.406  0.5589 -0.3914  0.2583
   84MOL   C26126987   1.486   0.072   4.351  0.2360 -0.3196  0.0328
   84MOL   C26226988   1.595   7.817   4.288  0.0526 -0.3105  0.0973
   84MOL   C26326989   1.411   0.493   4.320  0.5505 -0.2015  0.2239
   84MOL   H26426990   1.576   0.435   4.438 -0.4005  0.9597 -2.0287
   84MOL   H26526991   1.594   0.242   4.321  1.7814 -0.1156  1.1181
   84MOL   H26626992   1.610   0.176   4.489 -1.0161 -3.3756  0.8118
   84MOL   H26726993   1.425   0.102   4.266  1.0171 -1.0214 -0.7846
   84MOL   H26826994   1.427   0.026   4.430 -0.8620 -0.4032 -0.8354
   84MOL   H26926995   1.556   7.733   4.230  2.3176  0.0409 -2.0517
   84MOL   H27026996   1.666   7.785   4.364  0.2112  1.6612  0.8070
   84MOL   H27126997   1.651   0.051   4.217 -1.3185  1.4150  0.4858
   84MOL   H27226998   1.442   0.598   4.324  1.1357 -0.2118 -2.9363
   84MOL   H27326999   1.451   0.451   4.228 -0.5840  0.0164 -0.3873
   84MOL   C27427000   1.254   0.508   4.305 -0.0357 -0.2016 -0.4402
   84MOL   O27527001   1.197   0.599   4.405  0.6721 -0.2741 -0.6447
   84MOL   C27627002   1.058   0.610   4.411  0.6201  0.3631 -0.2171
   84MOL   C27727003   1.014   0.645   4.548 -0.0220 -0.1844 -0.2323
   84MOL   C27827004   1.075   0.773   4.603 -0.1203  0.0632  0.1544
   84MOL   C27927005   1.218   0.543   4.162 -0.1649 -0.1731 -0.5855
   84MOL   H28027006   1.214   0.408   4.322 -0.4174 -0.1218 -0.8598
   84MOL   H28127007   1.032   0.695   4.348  0.6174  0.8492  0.4346
   84MOL   H28227008   1.013   0.517   4.375  0.8116  0.0158  0.4348
   84MOL   H28327009   1.051   0.564   4.610 -0.2803 -0.1273 -0.0064
   84MOL   H28427010   0.905   0.649   4.548 -0.0139  0.3865 -1.0386
   84MOL   H28527011   1.183   0.761   4.611 -0.1026 -0.4624 -0.8634
   84MOL   H28627012   1.033   0.785   4.704 -2.1679  0.1936 -0.6855
   84MOL   H28727013   1.030   0.860   4.555  0.8092  0.9169  0.8167
   84MOL   H28827014   1.271   0.471   4.098  0.7353  0.2079 -0.2796
   84MOL   H28927015   1.111   0.530   4.145 -0.5845 -1.1402  2.4563
   84MOL   C29027016   1.268   0.682   4.109  0.5279 -0.5310 -0.0014
   84MOL   O29127017   1.230   0.690   3.975  0.3992  0.4314  0.2055
   84MOL   C29227018   1.343   0.667   3.891 -0.1686 -0.0065 -0.2364
   84MOL   C29327019   1.286   0.675   3.751  0.0805  0.9974 -0.0041
   84MOL   C29427020   1.190   0.562   3.719  0.7111 -0.3356  0.1689
   84MOL   C29527021   1.213   0.812   4.176  0.5898  0.1207  0.2174
   84MOL   H29627022   1.376   0.676   4.123  0.4423 -0.0845  0.9027
   84MOL   H29727023   1.417   0.746   3.904  0.3516 -0.8208  1.8976
   84MOL   H29827024   1.390   0.570   3.909 -2.1599 -1.1587 -1.1497
   84MOL   H29927025   1.366   0.672   3.677  1.8051  1.5736  1.7867
   84MOL   H30027026   1.225   0.764   3.739  1.4335  2.0375  0.7416
   84MOL   H30127027   1.101   0.563   3.782  1.0360 -2.5902  0.6910
   84MOL   H30227028   1.246   0.472   3.742  0.4395 -0.5475  0.0032
   84MOL   H30327029   1.157   0.556   3.615 -0.0533  0.4432  0.3526
   84MOL   H30427030   1.105   0.796   4.180  0.6604 -0.4742 -0.2750
   84MOL   H30527031   1.251   0.818   4.278 -1.9246  0.6594  1.1690
   84MOL   C30627032   1.249   0.950   4.110  0.0289  0.0204  0.0891
   84MOL   O30727033   1.183   1.056   4.186 -0.3340  0.1910  0.2722
   84MOL   C30827034   1.189   1.188   4.137 -0.4426 -0.6062  0.5704
   84MOL   C30927035   1.084   1.267   4.208  0.0048  0.3748 -0.6104
   84MOL   C31027036   1.087   1.275   4.364  0.3558 -0.0156 -0.4580
   84MOL   C31127037   1.399   0.977   4.130 -0.8289 -0.0559  0.3784
   84MOL   H31227038   1.222   0.947   4.005  3.2250 -1.4580 -0.7257
   84MOL   H31327039   1.280   1.242   4.161 -2.0899  1.6068  2.1308
   84MOL   H31427040   1.185   1.182   4.028  2.5525  2.6305  0.2006
   84MOL   H31527041   0.984   1.226   4.190 -1.0067  2.1265  0.8606
   84MOL   H31627042   1.078   1.367   4.166 -0.2952  0.0923 -1.2450
   84MOL   H31727043   1.028   1.363   4.389 -0.3573 -0.0437 -1.9724
   84MOL   H31827044   1.186   1.281   4.407 -0.6130  0.5029  1.7836
   84MOL   H31927045   1.037   1.187   4.407 -0.3237  0.2500 -0.6848
   84MOL   H32027046   1.469   0.911   4.079  0.6553  2.4779 -0.9906
   84MOL   H32127047   1.415   1.080   4.096 -1.7453 -0.3468 -0.9724
   84MOL   H32227048   1.415   0.974   4.238 -3.9192 -1.0316  0.8447
   85MOL     C127049   3.113   2.779   6.729  0.4600 -0.0631  0.6058
   85MOL     O227050   3.188   2.704   6.639 -0.6331 -0.0150 -0.0541
   85MOL     C327051   3.329   2.726   6.653  0.5496  0.5318  0.4883
   85MOL     C427052   3.397   2.621   6.562 -0.5490 -0.7016  0.1464
   85MOL     C527053   3.367   2.480   6.607 -0.1246 -0.5932  0.2447
   85MOL     C627054   2.960   2.765   6.704 -0.1772  0.4730  0.1214
   85MOL     H727055   3.142   2.883   6.740  1.7880 -0.5267  1.6198
   85MOL     H827056   3.355   2.826   6.617  0.6087  0.6301  0.8060
   85MOL     H927057   3.352   2.708   6.757  0.7600 -0.3114  0.2968
   85MOL    H1027058   3.501   2.646   6.580 -0.7082 -1.3881  2.1753
   85MOL    H1127059   3.370   2.625   6.456  0.7701  0.0630 -0.1604
   85MOL    H1227060   3.440   2.409   6.569  2.1176  0.7467  1.9210
   85MOL    H1327061   3.268   2.444   6.576  0.0824 -2.4180  1.5908
   85MOL    H1427062   3.376   2.469   6.715 -1.6613 -0.6902  0.3829
   85MOL    H1527063   2.946   2.657   6.694  0.2373  0.3348  1.0131
   85MOL    H1627064   2.895   2.795   6.786  1.0921 -1.4308  1.8691
   85MOL    H1727065   3.133   2.731   6.825 -2.7753  0.0390  1.3869
   85MOL    C1827066   2.910   2.839   6.584 -0.1061 -0.0266 -0.0493
   85MOL    O1927067   2.788   2.777   6.543  0.4095 -0.1047  0.1731
   85MOL    C2027068   2.783   2.746   6.402 -0.2505  0.5659 -0.2630
   85MOL    C2127069   2.849   2.612   6.363  0.1206  0.8287 -0.6116
   85MOL    C2227070   2.792   2.557   6.232 -0.4596 -0.9760  0.2775
   85MOL    C2327071   2.885   2.991   6.611 -0.5183  0.3121  0.1814
   85MOL    H2427072   2.989   2.825   6.510 -0.3112 -0.2091 -0.2361
   85MOL    H2527073   2.680   2.734   6.370 -0.5101  3.3197 -0.6079
   85MOL    H2627074   2.825   2.827   6.343  2.3115 -1.1238 -0.8310
   85MOL    H2727075   2.822   2.546   6.445 -0.3529  0.6560 -0.9017
   85MOL    H2827076   2.957   2.611   6.368  0.0808  1.5431  0.6735
   85MOL    H2927077   2.859   2.474   6.210  1.8728  0.5588  1.3084
   85MOL    H3027078   2.789   2.625   6.147 -0.4564  0.7438  1.6265
   85MOL    H3127079   2.688   2.524   6.239 -0.7776 -1.1663 -4.1252
   85MOL    H3227080   2.796   2.989   6.673  0.3322  3.0652  1.5916
   85MOL    H3327081   2.965   3.031   6.674 -0.4337 -0.1222  0.3528
   85MOL    C3427082   2.864   3.068   6.482  0.0665  0.5727 -0.0562
   85MOL    O3527083   2.827   3.190   6.546 -0.0858  0.6559 -0.8412
   85MOL    C3627084   2.732   3.264   6.470 -0.2807  0.0537  0.2938
   85MOL    C3727085   2.767   3.413   6.482 -0.3572 -0.1541 -0.1272
   85MOL    C3827086   2.754   3.472   6.618 -0.4225 -0.8847 -0.5596
   85MOL    C3927087   2.990   3.082   6.406 -0.2725  0.3096 -0.0370
   85MOL    H4027088   2.776   3.024   6.435  0.9754 -1.3318 -0.0212
   85MOL    H4127089   2.733   3.237   6.364  1.1233 -0.4841  0.4289
   85MOL    H4227090   2.628   3.249   6.499 -0.6396  0.9176 -0.5604
   85MOL    H4327091   2.695   3.467   6.420 -1.2651 -0.3341  0.7601
   85MOL    H4427092   2.869   3.428   6.447 -0.3899 -2.2987 -1.2432
   85MOL    H4527093   2.656   3.462   6.666  1.3714 -2.9302  2.8580
   85MOL    H4627094   2.777   3.578   6.630  1.6907 -1.2390 -1.3407
   85MOL    H4727095   2.831   3.421   6.676  1.2255  2.1066 -0.0285
   85MOL    H4827096   3.066   3.128   6.470  1.7380 -1.6681 -0.9644
   85MOL    H4927097   3.027   2.981   6.392  0.3663  0.6287 -0.6691
   85MOL    C5027098   2.984   3.146   6.269  0.0416 -0.1362  0.3863
   85MOL    O5127099   3.115   3.167   6.218  0.4961  0.3387 -0.0399
   85MOL    C5227100   3.175   3.288   6.265 -0.6299 -0.0330  0.1338
   85MOL    C5327101   3.309   3.288   6.198  0.0787 -0.4458  0.2763
   85MOL    C5427102   3.312   3.291   6.045  0.9387 -0.3734  0.4631
   85MOL    C5527103   2.909   3.054   6.164  0.0551  0.4829 -0.3562
   85MOL    H5627104   2.928   3.239   6.283  2.6779  1.6725 -0.6480
   85MOL    H5727105   3.105   3.367   6.238  1.0049  1.1441 -0.7385
   85MOL    H5827106   3.192   3.282   6.372  2.0042  3.2866 -0.0243
   85MOL    H5927107   3.375   3.211   6.237  1.9999 -0.3633 -2.6893
   85MOL    H6027108   3.364   3.376   6.232  0.8103 -0.1065 -1.7514
   85MOL    H6127109   3.272   3.198   6.006  1.4548 -0.9106  1.1880
   85MOL    H6227110   3.410   3.324   6.009  0.4755 -0.3333 -0.7635
   85MOL    H6327111   3.254   3.378   6.013  2.8349  0.8305  0.1931
   85MOL    H6427112   2.965   2.962   6.151  0.9564  0.8904  0.5329
   85MOL    H6527113   2.813   3.021   6.203 -0.7528 -0.1316 -2.8186
   85MOL    C6627114   2.890   3.122   6.027 -0.0503  0.1477  0.1087
   85MOL    O6727115   2.841   3.025   5.934 -0.1973  0.1741  0.5543
   85MOL    C6827116   2.943   2.970   5.854 -0.1244  0.4065 -0.0261
   85MOL    C6927117   2.895   2.850   5.777  0.5029 -0.4777 -0.0184
   85MOL    C7027118   2.819   2.877   5.648 -0.4288 -0.2613  0.1953
   85MOL    C7127119   2.791   3.242   6.037 -0.1252  0.8475  0.0748
   85MOL    H7227120   2.988   3.157   5.993  0.1489  1.7525  2.3054
   85MOL    H7327121   2.995   3.041   5.790 -0.6166 -0.4209 -1.3611
   85MOL    H7427122   3.026   2.930   5.912 -0.7436 -1.0631 -0.1353
   85MOL    H7527123   2.839   2.786   5.845  2.0559  0.5259  2.2341
   85MOL    H7627124   2.983   2.794   5.746  1.5617  0.8417  0.5296
   85MOL    H7727125   2.886   2.915   5.571  0.1117 -3.1408 -0.7892
   85MOL    H7827126   2.766   2.972   5.656  0.0839 -0.0649  1.4554
   85MOL    H7927127   2.763   2.793   5.607  0.5632 -0.1161 -1.4938
   85MOL    H8027128   2.698   3.217   6.088  0.5748  3.6417  2.9372
   85MOL    H8127129   2.835   3.319   6.100  1.1844  1.0474 -1.0682
   85MOL    C8227130   2.761   3.313   5.902  0.5932  0.2976 -0.3961
   85MOL    O8327131   2.673   3.422   5.934  0.3675  0.7738  0.1761
   85MOL    C8427132   2.535   3.392   5.925 -0.4492 -0.1951 -0.2711
   85MOL    C8527133   2.457   3.525   5.937  0.0841 -0.1562  0.1974
   85MOL    C8627134   2.305   3.504   5.959 -0.2854  0.5904 -0.3759
   85MOL    C8727135   2.880   3.369   5.826  0.7500 -0.6234  0.2411
   85MOL    H8827136   2.702   3.250   5.836  0.7506  0.7864 -1.0035
   85MOL    H8927137   2.514   3.338   5.832 -0.8253 -1.3769  0.4861
   85MOL    H9027138   2.504   3.325   6.005 -0.8730  0.8384  0.4311
   85MOL    H9127139   2.477   3.597   5.859 -0.8983 -0.0114  0.0773
   85MOL    H9227140   2.494   3.571   6.029 -1.3294  0.4081  0.4914
   85MOL    H9327141   2.278   3.427   5.887  0.9912  0.4270 -0.6934
   85MOL    H9427142   2.247   3.596   5.945 -0.6304  0.3890 -0.2686
   85MOL    H9527143   2.284   3.469   6.060  0.2271  1.9720  0.2250
   85MOL    H9627144   2.913   3.462   5.873 -1.3158  1.0795 -1.5397
   85MOL    H9727145   2.962   3.299   5.829  0.5230 -0.8427  1.7106
   85MOL    C9827146   2.853   3.397   5.677  0.0575 -0.1125 -0.5224
   85MOL    O9927147   2.964   3.472   5.616 -0.1686 -0.1826  0.0332
   85MOL   C10027148   2.949   3.610   5.616  0.4967  0.1397 -0.2686
   85MOL   C10127149   3.069   3.671   5.549 -0.6493 -0.4336  0.4254
   85MOL   C10227150   3.191   3.682   5.647 -0.1037 -0.5029  0.4619
   85MOL   C10327151   2.848   3.264   5.601  0.1839  0.8730 -0.6561
   85MOL   H10427152   2.752   3.435   5.659  0.5601  2.3883  1.5712
   85MOL   H10527153   2.863   3.616   5.549  0.6651 -1.6421 -0.6718
   85MOL   H10627154   2.926   3.656   5.712  2.5347  2.5628 -0.8819
   85MOL   H10727155   3.047   3.771   5.511 -1.7460 -1.2913 -1.2702
   85MOL   H10827156   3.101   3.614   5.462  1.0667 -0.1453  0.8579
   85MOL   H10927157   3.233   3.591   5.688  0.9263  0.2809  1.1678
   85MOL   H11027158   3.150   3.741   5.729  0.4766  2.1442 -1.0704
   85MOL   H11127159   3.270   3.728   5.587 -0.4204 -1.9234 -1.0840
   85MOL   H11227160   2.933   3.206   5.637 -1.5121 -0.1925  1.8337
   85MOL   H11327161   2.759   3.209   5.634  0.9808 -2.0012 -3.0869
   85MOL   C11427162   2.839   3.283   5.447 -0.1741  0.2870 -0.1640
   85MOL   O11527163   2.870   3.151   5.393  0.1049 -0.0691 -0.0293
   85MOL   C11627164   2.915   3.140   5.254  0.2256 -0.9712 -0.5992
   85MOL   C11727165   2.997   3.010   5.241 -0.1446 -0.5695  0.2863
   85MOL   C11827166   2.907   2.886   5.253  0.2923 -0.0522  0.1170
   85MOL   C11927167   2.707   3.353   5.388  0.6409 -0.0417  0.2082
   85MOL   H12027168   2.917   3.349   5.408 -2.7958  1.9341 -2.8129
   85MOL   H12127169   2.825   3.130   5.192  0.2833 -0.5095 -0.7530
   85MOL   H12227170   2.970   3.223   5.210 -0.1225  1.0647  2.7163
   85MOL   H12327171   3.070   3.013   5.322 -0.9229 -1.6865  1.0619
   85MOL   H12427172   3.056   3.028   5.152 -0.9553  1.7749  0.1823
   85MOL   H12527173   2.963   2.792   5.256 -0.0231 -0.3250 -2.0235
   85MOL   H12627174   2.854   2.868   5.160 -0.4796  1.3011  0.2870
   85MOL   H12727175   2.843   2.884   5.341  0.0260 -0.6482 -0.0853
   85MOL   H12827176   2.720   3.455   5.422  0.3591  0.1135 -0.1495
   85MOL   H12927177   2.714   3.358   5.279  0.1193  2.6686  0.2772
   85MOL   C13027178   2.578   3.290   5.432  0.7274  0.2606  0.1629
   85MOL   O13127179   2.474   3.382   5.391  0.0555  0.6565  0.0529
   85MOL   C13227180   2.458   3.504   5.465  0.1618 -0.5509 -0.4060
   85MOL   C13327181   2.312   3.526   5.457 -0.2137  0.5816  0.3829
   85MOL   C13427182   2.224   3.419   5.514  0.2865 -0.0096  0.2138
   85MOL   C13527183   2.547   3.162   5.349 -0.4160  0.4032 -0.3463
   85MOL   H13627184   2.577   3.265   5.538 -0.0163  1.1866  0.3873
   85MOL   H13727185   2.493   3.502   5.568  0.1657 -0.1290 -0.3970
   85MOL   H13827186   2.509   3.590   5.420 -1.4038 -0.0197 -1.1927
   85MOL   H13927187   2.283   3.531   5.352 -0.0802  0.7146  0.3530
   85MOL   H14027188   2.280   3.626   5.486 -0.2588  1.3821 -2.2743
   85MOL   H14127189   2.234   3.329   5.453  1.2091  0.0327  0.3075
   85MOL   H14227190   2.117   3.441   5.516  0.4322  0.7935 -0.4342
   85MOL   H14327191   2.253   3.384   5.613 -0.3023  1.4933  0.9297
   85MOL   H14427192   2.522   3.192   5.247 -1.9737  1.5950  0.3541
   85MOL   H14527193   2.634   3.097   5.351 -1.9359 -1.6280  1.3955
   85MOL   C14627194   2.426   3.083   5.398 -0.7620  0.6157  0.5498
   85MOL   O14727195   2.382   2.982   5.302  0.6204  0.2017 -0.2275
   85MOL   C14827196   2.313   3.029   5.188 -0.0278  0.1535  0.5685
   85MOL   C14927197   2.275   2.907   5.101  0.3058 -0.1661  0.5379
   85MOL   C15027198   2.194   2.809   5.189  0.3413  0.1345 -0.2241
   85MOL   C15127199   2.452   3.000   5.526 -0.5164  0.9050 -0.0903
   85MOL   H15227200   2.341   3.150   5.416 -0.6307  1.0004 -0.1985
   85MOL   H15327201   2.227   3.092   5.210 -0.2560  0.1032 -0.1861
   85MOL   H15427202   2.378   3.091   5.126  0.1445 -0.4255  0.1712
   85MOL   H15527203   2.359   2.864   5.047  0.0604 -0.1802  0.1626
   85MOL   H15627204   2.222   2.952   5.017  3.1611  2.4564  0.0426
   85MOL   H15727205   2.105   2.853   5.234 -0.3005 -0.4288 -0.9264
   85MOL   H15827206   2.254   2.769   5.271  1.1585 -0.2524 -0.9924
   85MOL   H15927207   2.160   2.726   5.127 -3.2486 -0.1232  1.9401
   85MOL   H16027208   2.534   2.932   5.502 -0.9530  0.8954 -1.6098
   85MOL   H16127209   2.466   3.081   5.597 -1.1288  1.4985 -0.6406
   85MOL   C16227210   2.339   2.920   5.577  0.1039 -0.5203  0.2473
   85MOL   O16327211   2.398   2.882   5.698 -0.2287  0.4080 -0.5227
   85MOL   C16427212   2.467   2.758   5.713 -0.4723  0.2736 -0.7146
   85MOL   C16527213   2.525   2.751   5.857  0.3562 -0.3781 -0.3194
   85MOL   C16627214   2.413   2.748   5.963 -0.1228  0.0580  0.3735
   85MOL   C16727215   2.219   3.010   5.622 -0.7907 -0.2590 -0.0994
   85MOL   H16827216   2.308   2.842   5.509  0.1649 -0.4988  0.1942
   85MOL   H16927217   2.403   2.672   5.691  1.5436 -1.6398  0.7180
   85MOL   H17027218   2.536   2.734   5.633 -2.2592 -0.4733 -2.0784
   85MOL   H17127219   2.595   2.831   5.880  2.0901 -2.0452  0.3295
   85MOL   H17227220   2.575   2.655   5.867 -0.6689 -1.1873 -2.5646
   85MOL   H17327221   2.353   2.659   5.942 -0.6594  1.0121 -2.3898
   85MOL   H17427222   2.348   2.835   5.959 -0.0415  0.1597  1.2511
   85MOL   H17527223   2.454   2.736   6.063 -0.2451  0.0168  0.4185
   85MOL   H17627224   2.249   3.089   5.691  2.7860 -0.8491 -0.8563
   85MOL   H17727225   2.174   3.052   5.532  0.5750  0.2714 -0.5451
   85MOL   C17827226   2.108   2.936   5.699 -0.2775 -0.2173 -0.0092
   85MOL   O17927227   2.000   3.035   5.713  0.2886 -0.0715 -0.5339
   85MOL   C18027228   1.978   3.086   5.843  0.4053 -0.6316 -0.2486
   85MOL   C18127229   1.865   3.190   5.840 -0.1172  0.5295  0.1286
   85MOL   C18227230   1.837   3.247   5.979 -0.0833  0.0338 -0.1520
   85MOL   C18327231   2.044   2.822   5.616 -0.0293 -0.0723  0.6023
   85MOL   H18427232   2.152   2.897   5.791  3.0974  3.0056 -0.1301
   85MOL   H18527233   1.952   3.002   5.907 -0.4471 -0.7657 -0.7637
   85MOL   H18627234   2.066   3.127   5.893 -2.0040 -0.4274  4.0804
   85MOL   H18727235   1.775   3.144   5.800 -1.2503  1.0073  2.0650
   85MOL   H18827236   1.900   3.270   5.775  2.0130 -0.1372  0.4085
   85MOL   H18927237   1.803   3.165   6.042  1.7090  0.5816  1.5528
   85MOL   H19027238   1.754   3.317   5.975 -1.1047 -1.1458  0.1826
   85MOL   H19127239   1.924   3.286   6.031 -0.9749  1.4029  0.3372
   85MOL   H19227240   2.000   2.864   5.526 -1.7913  1.1876  2.0216
   85MOL   H19327241   2.119   2.749   5.585 -0.2743 -1.6535  3.6134
   85MOL   C19427242   1.925   2.753   5.682 -0.0929  1.0319 -0.0264
   85MOL   O19527243   1.849   2.668   5.592  0.1876  0.6090  0.1133
   85MOL   C19627244   1.912   2.555   5.553 -0.0586  0.4203  0.7581
   85MOL   C19727245   1.918   2.558   5.405  0.4965  0.2117  0.1845
   85MOL   C19827246   1.950   2.412   5.345  0.2148 -0.4781  0.1880
   85MOL   C19927247   1.958   2.685   5.817 -0.0547  0.0079  0.9103
   85MOL   H20027248   1.851   2.830   5.701 -1.6175 -0.8842  2.1603
   85MOL   H20127249   2.010   2.548   5.600  0.5090 -0.8706 -0.5752
   85MOL   H20227250   1.861   2.470   5.597 -0.2672  1.2445  2.1578
   85MOL   H20327251   1.977   2.638   5.358 -0.1694 -1.2900 -3.4140
   85MOL   H20427252   1.815   2.584   5.384  0.8813  1.3537 -0.3682
   85MOL   H20527253   1.919   2.332   5.412 -0.4761  0.0047  0.4470
   85MOL   H20627254   2.053   2.384   5.326  0.1063 -0.6329 -0.1657
   85MOL   H20727255   1.897   2.408   5.250 -1.9775  1.2061  1.2890
   85MOL   H20827256   2.031   2.604   5.815  0.2041  0.2318  1.2351
   85MOL   H20927257   2.006   2.758   5.882 -1.6040  0.2306  1.8413
   85MOL   C21027258   1.829   2.629   5.886 -0.2367 -0.1153 -0.4203
   85MOL   O21127259   1.858   2.538   5.990  0.5209 -0.2703  0.0049
   85MOL   C21227260   1.863   2.401   5.954 -0.9596  0.2045 -0.0458
   85MOL   C21327261   1.884   2.323   6.090 -0.2730  0.0598 -0.2014
   85MOL   C21427262   1.777   2.338   6.199 -0.1053  0.6108  0.2668
   85MOL   C21527263   1.748   2.745   5.949  0.1191  0.1962  0.4136
   85MOL   H21627264   1.766   2.578   5.812  0.3098 -1.6364  0.1423
   85MOL   H21727265   1.772   2.371   5.902 -1.2117  1.4560 -0.3463
   85MOL   H21827266   1.949   2.387   5.889 -0.5974  1.6211  0.1043
   85MOL   H21927267   1.988   2.339   6.119 -0.7718  0.0963  1.5915
   85MOL   H22027268   1.902   2.222   6.052 -0.1573  0.0251 -0.0568
   85MOL   H22127269   1.801   2.434   6.243 -1.8218  0.3795  1.7578
   85MOL   H22227270   1.775   2.259   6.275 -1.2573  0.8915  0.5371
   85MOL   H22327271   1.684   2.330   6.143 -1.0566 -0.4635  1.9575
   85MOL   H22427272   1.816   2.804   6.010 -0.6103  1.5902 -0.1103
   85MOL   H22527273   1.732   2.815   5.867 -0.7701  0.3052  0.6726
   85MOL   C22627274   1.617   2.723   6.028 -0.0279 -0.4262 -0.4958
   85MOL   O22727275   1.556   2.848   6.068  0.2084  0.6310  0.0223
   85MOL   C22827276   1.556   2.880   6.206  0.2778 -0.2404 -0.1620
   85MOL   C22927277   1.506   3.020   6.238  0.1333 -0.1979  0.8579
   85MOL   C23027278   1.518   3.066   6.381  0.0828 -0.3737 -0.5758
   85MOL   C23127279   1.504   2.636   5.964 -0.3171 -0.9243 -0.3224
   85MOL   H23227280   1.647   2.665   6.115  2.7874 -0.1273 -1.2358
   85MOL   H23327281   1.499   2.803   6.259  1.8750 -0.9092  0.6149
   85MOL   H23427282   1.659   2.874   6.241 -0.6834 -0.2230  2.8161
   85MOL   H23527283   1.403   3.028   6.203  0.7727  1.9414 -0.6214
   85MOL   H23627284   1.569   3.079   6.171  0.8630 -1.1715  0.6661
   85MOL   H23727285   1.478   2.993   6.451  0.3337 -0.9483 -1.0344
   85MOL   H23827286   1.464   3.160   6.395  1.8029  0.6208 -0.5262
   85MOL   H23927287   1.612   3.088   6.431  0.2376 -0.1079 -0.9825
   85MOL   H24027288   1.524   2.531   5.982 -0.5142 -0.4276  3.0339
   85MOL   H24127289   1.418   2.663   6.025  0.5629  0.1642  0.4482
   85MOL   C24227290   1.489   2.658   5.815  0.1412 -0.5236 -0.2768
   85MOL   O24327291   1.418   2.547   5.758 -0.3806 -0.1768 -0.3428
   85MOL   C24427292   1.501   2.441   5.711 -0.0250 -0.1565 -0.5562
   85MOL   C24527293   1.404   2.345   5.633 -0.4358  0.0787 -0.2681
   85MOL   C24627294   1.315   2.412   5.527  0.8388  0.0850  1.2716
   85MOL   C24727295   1.407   2.788   5.774 -0.1340 -0.0417  0.5332
   85MOL   H24827296   1.583   2.669   5.761  0.0540 -1.6066 -0.6482
   85MOL   H24927297   1.569   2.471   5.630  1.9663  3.1335  2.2027
   85MOL   H25027298   1.556   2.391   5.791 -0.9740  1.2240  0.9839
   85MOL   H25127299   1.337   2.299   5.706  0.9550 -1.1178  0.2894
   85MOL   H25227300   1.461   2.257   5.605 -1.0592 -0.3373 -0.2432
   85MOL   H25327301   1.250   2.483   5.579  0.1821 -0.1172  0.7344
   85MOL   H25427302   1.249   2.357   5.459  2.8643  2.0302 -2.4142
   85MOL   H25527303   1.369   2.470   5.452 -0.8497  3.3308  2.4664
   85MOL   H25627304   1.308   2.775   5.819 -0.3429  0.6745  0.2802
   85MOL   H25727305   1.440   2.880   5.822  0.8278 -0.0403 -0.1350
   85MOL   C25827306   1.396   2.820   5.624 -0.0383  0.3913  0.0072
   85MOL   O25927307   1.274   2.895   5.622 -0.3665  0.1568 -0.9076
   85MOL   C26027308   1.175   2.832   5.556  0.4833  0.4065  0.0077
   85MOL   C26127309   1.050   2.923   5.536  0.4229 -0.5412 -0.0520
   85MOL   C26227310   1.077   3.042   5.436 -0.0997 -0.2919  0.1081
   85MOL   C26327311   1.523   2.891   5.566 -0.9756 -0.1902  0.4673
   85MOL   H26427312   1.384   2.720   5.584 -0.4449  0.6120 -0.4334
   85MOL   H26527313   1.211   2.806   5.456  0.1727 -1.1295  0.2821
   85MOL   H26627314   1.153   2.736   5.604  2.0518 -0.8629 -1.7243
   85MOL   H26727315   1.006   2.957   5.629  1.2976  3.1198 -0.8768
   85MOL   H26827316   0.971   2.871   5.483  1.0592  1.2484 -2.8885
   85MOL   H26927317   1.105   2.993   5.343  0.0633 -1.6505  0.8710
   85MOL   H27027318   1.156   3.110   5.468 -1.3074  0.4546  1.5504
   85MOL   H27127319   0.989   3.104   5.414  0.6582  0.0900 -1.9962
   85MOL   H27227320   1.531   2.987   5.616 -1.5716 -0.4898  1.1462
   85MOL   H27327321   1.613   2.833   5.585 -1.5356 -2.3094 -2.9020
   85MOL   C27427322   1.514   2.918   5.412  0.0520 -0.3009 -0.6441
   85MOL   O27527323   1.637   2.972   5.377 -0.3570  0.6974 -0.0123
   85MOL   C27627324   1.648   3.107   5.419  0.7757  0.0595 -0.5893
   85MOL   C27727325   1.763   3.166   5.345  0.0357  0.1834 -0.2051
   85MOL   C27827326   1.899   3.106   5.391  0.5519  0.0977 -0.0563
   85MOL   C27927327   1.522   2.776   5.325 -0.4007  0.2122 -0.5135
   85MOL   H28027328   1.433   2.984   5.382 -0.9529 -1.5751 -0.8032
   85MOL   H28127329   1.553   3.160   5.412 -0.1342 -1.2904  1.1310
   85MOL   H28227330   1.668   3.110   5.526  2.2760 -2.1586 -0.7864
   85MOL   H28327331   1.768   3.275   5.348  0.2036  0.1793 -0.3783
   85MOL   H28427332   1.755   3.123   5.245  3.2693 -0.9973 -0.0032
   85MOL   H28527333   1.905   3.001   5.363 -1.0018  0.1434 -0.6540
   85MOL   H28627334   1.907   3.123   5.498 -1.7204  3.2426 -0.2890
   85MOL   H28727335   1.987   3.144   5.339  0.9624 -1.5598 -0.6112
   85MOL   H28827336   1.620   2.731   5.340 -0.8919 -0.9113 -0.6609
   85MOL   H28927337   1.462   2.696   5.368 -0.1427 -0.5967 -1.6296
   85MOL   C29027338   1.516   2.796   5.168 -0.1322 -0.2433  0.6882
   85MOL   O29127339   1.566   2.674   5.110 -0.5044  0.2375 -0.2798
   85MOL   C29227340   1.623   2.686   4.978  0.2700 -0.3257 -0.7261
   85MOL   C29327341   1.606   2.551   4.909  0.1074 -0.1587 -0.2022
   85MOL   C29427342   1.662   2.554   4.770 -0.2090  0.6984  0.5422
   85MOL   C29527343   1.371   2.825   5.119 -0.1929 -0.2448  0.0074
   85MOL   H29627344   1.586   2.874   5.136 -0.4028 -0.3214 -0.1090
   85MOL   H29727345   1.562   2.765   4.936 -1.2657 -0.3303  1.3835
   85MOL   H29827346   1.725   2.720   4.996  0.8347 -1.5288 -1.5927
   85MOL   H29927347   1.507   2.508   4.915  0.4403 -0.8356  0.5602
   85MOL   H30027348   1.674   2.482   4.960 -1.1287 -1.7310 -0.6353
   85MOL   H30127349   1.612   2.471   4.721  2.7265 -0.6007 -0.3415
   85MOL   H30227350   1.766   2.536   4.746 -0.4857  0.2393 -0.3167
   85MOL   H30327351   1.631   2.637   4.706 -2.7003 -0.2536  0.4468
   85MOL   H30427352   1.333   2.734   5.073  1.5739 -1.0404  0.0941
   85MOL   H30527353   1.319   2.854   5.211 -0.3058  0.3189 -0.2352
   85MOL   C30627354   1.354   2.943   5.021 -0.3859  0.2277  0.8289
   85MOL   O30727355   1.214   2.936   4.984  0.0880 -0.5193  0.2343
   85MOL   C30827356   1.190   2.980   4.848 -0.9870 -0.6143 -0.3186
   85MOL   C30927357   1.041   2.974   4.808 -0.0896  0.0977 -0.1443
   85MOL   C31027358   1.005   3.009   4.661 -0.0805 -0.2768  0.2419
   85MOL   C31127359   1.379   3.084   5.078  0.6686  0.4308  0.1626
   85MOL   H31227360   1.422   2.922   4.939 -0.6066 -0.0236  0.7088
   85MOL   H31327361   1.221   3.084   4.842  0.5851 -0.9899  1.0755
   85MOL   H31427362   1.250   2.918   4.780 -0.7994  0.7596 -1.4281
   85MOL   H31527363   0.975   3.033   4.872 -0.3736  0.9258 -1.1865
   85MOL   H31627364   1.004   2.872   4.820 -0.1396  0.2060  0.6951
   85MOL   H31727365   1.062   2.934   4.607  0.8595  0.5428  0.0870
   85MOL   H31827366   1.024   3.115   4.642  0.1842 -0.3777 -0.0573
   85MOL   H31927367   0.898   2.996   4.647 -0.4667  3.2985 -0.6601
   85MOL   H32027368   1.312   3.116   5.157 -2.0702 -1.5848 -1.2568
   85MOL   H32127369   1.479   3.117   5.106 -0.2530  1.9658  1.7353
   85MOL   H32227370   1.363   3.158   5.000  1.5182  0.4770  0.0294
   86MOL     C127371   0.748   2.091   2.861  0.0260 -0.3143  0.3961
   86MOL     O227372   0.700   1.999   2.766 -0.0980  0.5935  0.1755
   86MOL     C327373   0.801   1.952   2.679  0.3980 -0.2132  0.3224
   86MOL     C427374   0.749   1.847   2.583  0.1445 -1.0084 -0.0436
   86MOL     C527375   0.863   1.786   2.500  0.2145  0.0870  0.2478
   86MOL     C627376   0.741   2.237   2.802  0.4312 -0.7134 -0.5392
   86MOL     H727377   0.840   2.068   2.914  1.9151  3.7941 -0.9078
   86MOL     H827378   0.816   2.047   2.628 -1.2075  1.3141  2.5724
   86MOL     H927379   0.886   1.920   2.738  0.7864  0.9974  0.4425
   86MOL    H1027380   0.670   1.895   2.525  0.8438 -1.6889 -1.5943
   86MOL    H1127381   0.701   1.762   2.632 -0.5803 -1.9325 -2.2673
   86MOL    H1227382   0.929   1.861   2.455  0.4466  0.6558  1.5304
   86MOL    H1327383   0.832   1.720   2.418 -1.9659  0.5774  0.6741
   86MOL    H1427384   0.933   1.724   2.557 -0.1167  0.3977  0.9917
   86MOL    H1527385   0.835   2.252   2.750  1.0816  3.1901  1.5604
   86MOL    H1627386   0.661   2.255   2.730  0.7123  1.6799 -0.2920
   86MOL    H1727387   0.664   2.079   2.929  0.0912  0.8931  0.6988
   86MOL    C1827388   0.739   2.351   2.908 -0.0606  0.5802 -0.2307
   86MOL    O1927389   0.764   2.472   2.835  0.3455 -0.0910  0.0813
   86MOL    C2027390   0.900   2.511   2.820  0.3635  0.4823  0.1388
   86MOL    C2127391   0.907   2.601   2.694  0.1904 -0.3978 -0.3928
   86MOL    C2227392   1.041   2.651   2.657 -0.4006 -0.1957  0.0893
   86MOL    C2327393   0.605   2.370   2.968 -0.0063 -0.0136 -0.4699
   86MOL    H2427394   0.821   2.334   2.979 -0.3530  1.5785  0.3527
   86MOL    H2527395   0.927   2.560   2.913 -2.0774 -1.4205  1.9322
   86MOL    H2627396   0.970   2.427   2.815 -0.1240  0.1310 -0.9565
   86MOL    H2727397   0.847   2.690   2.714  1.2450  0.5248 -1.3174
   86MOL    H2827398   0.859   2.550   2.610 -1.4098 -0.7745  0.7280
   86MOL    H2927399   1.042   2.722   2.574 -1.1602 -1.9245 -1.4333
   86MOL    H3027400   1.106   2.573   2.620  0.6193  1.0675 -0.8363
   86MOL    H3127401   1.078   2.700   2.747  0.2965 -1.3296  0.4212
   86MOL    H3227402   0.523   2.387   2.898  0.2847  1.2475 -0.5217
   86MOL    H3327403   0.571   2.277   3.013  0.0702 -0.0217 -0.4283
   86MOL    C3427404   0.605   2.486   3.069  0.7646  0.3032 -0.0324
   86MOL    O3527405   0.474   2.517   3.122 -0.0755 -0.4241  0.4902
   86MOL    C3627406   0.378   2.596   3.041  0.1962 -0.0813 -0.2101
   86MOL    C3727407   0.251   2.611   3.131 -0.0035 -0.3669  0.2720
   86MOL    C3827408   0.276   2.733   3.229  0.4869 -0.2000  0.5172
   86MOL    C3927409   0.698   2.467   3.186 -0.0724  0.7469 -0.0912
   86MOL    H4027410   0.645   2.580   3.031  1.9087 -0.4672 -0.8087
   86MOL    H4127411   0.415   2.696   3.018  0.9439 -0.3130 -0.0448
   86MOL    H4227412   0.368   2.534   2.952  1.8522 -0.1303 -0.3723
   86MOL    H4327413   0.238   2.517   3.184  0.3207 -0.9783 -0.7159
   86MOL    H4427414   0.163   2.624   3.068 -0.1698  1.3679  0.8278
   86MOL    H4527415   0.192   2.746   3.297 -3.6160 -1.6500 -3.9413
   86MOL    H4627416   0.279   2.819   3.163 -0.4231  0.3184  1.1573
   86MOL    H4727417   0.375   2.729   3.274  2.1894  1.0465 -2.9304
   86MOL    H4827418   0.801   2.484   3.154  0.0388  0.6363  0.2028
   86MOL    H4927419   0.686   2.548   3.258 -0.9599  0.2895  0.2821
   86MOL    C5027420   0.688   2.329   3.261 -0.3854  0.1945  0.4874
   86MOL    O5127421   0.800   2.330   3.346  0.4262  0.0260  0.0225
   86MOL    C5227422   0.841   2.200   3.363 -0.1124 -0.6055  0.7635
   86MOL    C5327423   0.940   2.194   3.484  0.3223  0.0882  0.5032
   86MOL    C5427424   1.058   2.295   3.468  0.9584  0.2680  0.5951
   86MOL    C5527425   0.559   2.312   3.343 -0.1911 -0.0005 -0.2590
   86MOL    H5627426   0.695   2.241   3.196 -4.5773  0.6279 -0.6963
   86MOL    H5727427   0.768   2.126   3.395  0.2375 -1.7200 -0.9565
   86MOL    H5827428   0.890   2.179   3.268 -0.0300  3.3073 -0.1535
   86MOL    H5927429   0.980   2.093   3.485 -1.4212 -0.6268  0.2552
   86MOL    H6027430   0.891   2.212   3.580  0.9448  1.4247  0.5849
   86MOL    H6127431   1.114   2.260   3.381 -0.6133  0.0570 -0.3435
   86MOL    H6227432   1.128   2.288   3.552 -2.5077  1.8046  3.7316
   86MOL    H6327433   1.025   2.397   3.451 -0.1373  0.2871  2.6653
   86MOL    H6427434   0.469   2.328   3.284 -1.1577  1.3403  1.5325
   86MOL    H6527435   0.541   2.209   3.375  0.2773 -0.0415 -0.1261
   86MOL    C6627436   0.528   2.408   3.454  0.1646  0.1375  0.2954
   86MOL    O6727437   0.403   2.367   3.517  0.5790 -0.3480 -0.4168
   86MOL    C6827438   0.270   2.392   3.463 -0.3041  0.1096  0.6992
   86MOL    C6927439   0.164   2.391   3.574 -0.3960  0.7270  0.4055
   86MOL    C7027440   0.142   2.252   3.641 -0.1703 -0.3288 -0.1781
   86MOL    C7127441   0.633   2.411   3.576 -0.3046  0.1985  0.8094
   86MOL    H7227442   0.506   2.509   3.422  1.4542  0.4651  0.3900
   86MOL    H7327443   0.261   2.493   3.421 -0.4655  0.5714  1.8467
   86MOL    H7427444   0.258   2.323   3.379  0.9631  0.6198  0.0697
   86MOL    H7527445   0.067   2.416   3.531 -0.9034  0.2302  1.2483
   86MOL    H7627446   0.173   2.467   3.652  0.6811  2.5067 -1.4041
   86MOL    H7727447   0.056   2.250   3.707 -1.1291 -0.9763 -1.4341
   86MOL    H7827448   0.239   2.210   3.668  0.3450  1.2246  0.4580
   86MOL    H7927449   0.113   2.183   3.561  0.9407  0.6175 -1.4284
   86MOL    H8027450   0.666   2.309   3.597 -1.8433 -0.2416  1.1433
   86MOL    H8127451   0.728   2.453   3.544 -0.7171  2.0211  1.8875
   86MOL    C8227452   0.612   2.502   3.705  0.1302  0.1367 -0.3684
   86MOL    O8327453   0.542   2.399   3.778 -0.1813  0.1740  0.1531
   86MOL    C8427454   0.470   2.441   3.894  0.0353 -0.1782 -0.0478
   86MOL    C8527455   0.411   2.310   3.949 -0.0075  0.5164  0.2444
   86MOL    C8627456   0.324   2.338   4.071 -0.1805 -0.1647 -0.7605
   86MOL    C8727457   0.732   2.536   3.794 -0.3577 -0.4788 -0.2864
   86MOL    H8827458   0.543   2.585   3.686 -0.9592 -0.8097 -0.5945
   86MOL    H8927459   0.529   2.485   3.974 -0.3349 -0.2742  0.2804
   86MOL    H9027460   0.395   2.513   3.862  0.2252 -1.1983 -2.8998
   86MOL    H9127461   0.504   2.260   3.978  1.5846  3.5650  0.6413
   86MOL    H9227462   0.364   2.253   3.869 -0.1846  1.4415 -0.3157
   86MOL    H9327463   0.378   2.408   4.135  1.2261 -0.6036 -1.4513
   86MOL    H9427464   0.302   2.242   4.119 -1.2168  0.7715  0.6719
   86MOL    H9527465   0.230   2.388   4.048 -0.3722 -0.3740 -0.4317
   86MOL    H9627466   0.702   2.608   3.870 -0.2048 -0.0575 -0.6281
   86MOL    H9727467   0.786   2.449   3.833  0.5206 -0.2546 -1.0021
   86MOL    C9827468   0.838   2.611   3.718 -0.1565 -0.7890  0.4547
   86MOL    O9927469   0.776   2.727   3.657  0.0168 -0.1264  0.1149
   86MOL   C10027470   0.860   2.795   3.557  0.5862  0.3052 -0.8942
   86MOL   C10127471   0.781   2.870   3.460 -0.0276 -0.2485 -0.5550
   86MOL   C10227472   0.700   2.787   3.370 -0.4479  0.3245  0.2909
   86MOL   C10327473   0.948   2.645   3.823 -0.1427 -0.2512 -0.1252
   86MOL   H10427474   0.884   2.546   3.644  2.3386  0.9729  0.4113
   86MOL   H10527475   0.932   2.861   3.606 -1.0038  0.8405  0.7981
   86MOL   H10627476   0.922   2.722   3.507  2.7892  2.2091 -1.0140
   86MOL   H10727477   0.842   2.927   3.389 -1.4906 -0.1800 -1.7809
   86MOL   H10827478   0.708   2.938   3.504  0.8942  1.0509 -0.9967
   86MOL   H10927479   0.763   2.751   3.289  0.9102  0.1207  1.4027
   86MOL   H11027480   0.636   2.863   3.327 -1.5426  0.7682  2.6351
   86MOL   H11127481   0.630   2.717   3.415 -0.0947 -0.2867 -0.1011
   86MOL   H11227482   0.967   2.752   3.834  3.0128 -1.0990  3.5889
   86MOL   H11327483   0.917   2.624   3.925 -2.1850  1.8817 -0.2582
   86MOL   C11427484   1.074   2.566   3.797  0.0100 -0.2905 -0.7939
   86MOL   O11527485   1.043   2.433   3.774  0.1832 -0.0914 -0.0938
   86MOL   C11627486   1.024   2.341   3.884 -0.7744  0.1505  0.7281
   86MOL   C11727487   1.165   2.299   3.931 -0.3035  0.2366 -0.5298
   86MOL   C11827488   1.240   2.206   3.829 -0.3568  0.0910 -0.1804
   86MOL   C11927489   1.154   2.631   3.684 -0.2390 -0.3913  0.5734
   86MOL   H12027490   1.132   2.573   3.888  2.1397  0.5030 -2.1664
   86MOL   H12127491   0.971   2.394   3.963  1.7978  0.6824  2.1589
   86MOL   H12227492   0.963   2.263   3.839  0.6506 -1.2396  1.1906
   86MOL   H12327493   1.157   2.249   4.027  2.7332  1.1784  0.2539
   86MOL   H12427494   1.225   2.380   3.973 -1.6321  1.4369 -0.8896
   86MOL   H12527495   1.335   2.172   3.870 -0.6049  0.2619  0.5552
   86MOL   H12627496   1.261   2.264   3.739  0.1829  3.0043  1.7615
   86MOL   H12727497   1.171   2.126   3.805  0.4937 -1.6751  3.0313
   86MOL   H12827498   1.097   2.632   3.590  1.0473  0.0770 -0.2129
   86MOL   H12927499   1.173   2.737   3.698  0.2735 -0.7641  2.9107
   86MOL   C13027500   1.297   2.579   3.669  0.2039 -0.7337 -0.4195
   86MOL   O13127501   1.346   2.659   3.558  0.0455 -0.5790  0.0637
   86MOL   C13227502   1.384   2.578   3.446  0.1718 -0.6908  0.1273
   86MOL   C13327503   1.456   2.669   3.343 -0.6854  0.0425  0.2592
   86MOL   C13427504   1.582   2.713   3.411  0.9091 -0.0367  0.2172
   86MOL   C13527505   1.392   2.604   3.793  0.0896  0.4891 -0.5716
   86MOL   H13627506   1.287   2.472   3.652 -2.2130 -0.6696  0.2769
   86MOL   H13727507   1.456   2.502   3.479  0.9950 -0.6212 -1.4929
   86MOL   H13827508   1.298   2.527   3.403 -0.5726 -1.1601  2.0967
   86MOL   H13927509   1.386   2.749   3.316  0.7723  1.3511  0.2548
   86MOL   H14027510   1.459   2.599   3.260 -1.9105 -0.0606  0.2912
   86MOL   H14127511   1.563   2.753   3.511  2.8508  3.1919 -0.6192
   86MOL   H14227512   1.629   2.798   3.361  1.0808 -0.0700  0.3200
   86MOL   H14327513   1.659   2.640   3.437  0.8201 -0.1732  0.1001
   86MOL   H14427514   1.389   2.712   3.806  1.7587  0.3053  1.5237
   86MOL   H14527515   1.350   2.555   3.881 -1.1846  0.2444 -1.2907
   86MOL   C14627516   1.533   2.546   3.776 -0.4546  0.1038  0.9785
   86MOL   O14727517   1.607   2.606   3.886 -0.3749 -0.2619 -0.1094
   86MOL   C14827518   1.714   2.689   3.847 -0.3685 -1.2111 -0.0791
   86MOL   C14927519   1.724   2.814   3.929  0.4012 -0.1105 -0.3938
   86MOL   C15027520   1.600   2.889   3.962  0.5002  0.1089 -0.7984
   86MOL   C15127521   1.544   2.393   3.806  0.4912  0.0715 -0.0165
   86MOL   H15227522   1.568   2.571   3.676 -0.5703 -2.8655  0.1475
   86MOL   H15327523   1.808   2.634   3.847  1.0803  1.1913  1.1416
   86MOL   H15427524   1.705   2.733   3.748 -0.9513 -2.2188 -0.4857
   86MOL   H15527525   1.794   2.884   3.883 -1.1105  0.8516 -1.2662
   86MOL   H15627526   1.778   2.779   4.017 -0.4033 -2.7795 -0.9060
   86MOL   H15727527   1.532   2.835   4.027  1.5011 -0.1336  0.0552
   86MOL   H15827528   1.548   2.923   3.872 -1.2347 -1.6834 -0.4912
   86MOL   H15927529   1.632   2.981   4.011  1.9231 -1.1329  0.6009
   86MOL   H16027530   1.515   2.378   3.910  0.8052 -2.7341 -0.2980
   86MOL   H16127531   1.471   2.338   3.748 -0.6064  2.4566 -0.9737
   86MOL   C16227532   1.680   2.323   3.777  0.0547 -0.0156 -0.1379
   86MOL   O16327533   1.668   2.184   3.794 -0.3372  0.1795  0.1909
   86MOL   C16427534   1.673   2.141   3.934 -0.4366 -0.2405 -0.1797
   86MOL   C16527535   1.660   1.987   3.933 -0.6260  0.2939 -0.5896
   86MOL   C16627536   1.794   1.909   3.898 -0.0879 -0.2122 -0.1096
   86MOL   C16727537   1.725   2.350   3.631 -0.2731  0.5810  0.6144
   86MOL   H16827538   1.758   2.367   3.839  0.7297  0.8386 -1.5659
   86MOL   H16927539   1.766   2.176   3.978 -0.4890 -0.6291  0.2400
   86MOL   H17027540   1.599   2.193   3.995  1.3518  1.4871  0.5830
   86MOL   H17127541   1.577   1.957   3.870 -0.1305 -0.4334 -0.9080
   86MOL   H17227542   1.630   1.969   4.036  2.8147  1.4160  0.6940
   86MOL   H17327543   1.869   1.938   3.972 -0.4583 -1.6744  0.8680
   86MOL   H17427544   1.838   1.936   3.802 -1.6209 -0.1430 -0.7974
   86MOL   H17527545   1.779   1.801   3.892 -2.6895  0.0708  0.8012
   86MOL   H17627546   1.649   2.321   3.559  0.0364  1.9387 -0.2677
   86MOL   H17727547   1.739   2.456   3.610 -3.5086  1.2558  1.5066
   86MOL   C17827548   1.846   2.267   3.582  0.4709 -0.2112  0.3409
   86MOL   O17927549   1.883   2.300   3.449 -0.2102 -0.3073  0.5145
   86MOL   C18027550   1.804   2.243   3.349  0.2548  0.4805  0.0395
   86MOL   C18127551   1.801   2.330   3.229  0.1016  0.3096 -0.2596
   86MOL   C18227552   1.752   2.475   3.239 -0.8649  0.1472  0.7309
   86MOL   C18327553   1.977   2.287   3.662 -0.0707 -0.5569 -0.0323
   86MOL   H18427554   1.827   2.161   3.593 -0.4338 -0.1638 -0.7330
   86MOL   H18527555   1.854   2.148   3.332 -0.2598  0.0131  1.0956
   86MOL   H18627556   1.702   2.226   3.382  0.5957 -0.6107  0.5430
   86MOL   H18727557   1.739   2.285   3.152 -0.9479  0.7577  0.3077
   86MOL   H18827558   1.903   2.336   3.192 -0.3418 -0.7145 -1.6997
   86MOL   H18927559   1.761   2.530   3.146  1.1922  0.2065  0.9491
   86MOL   H19027560   1.817   2.520   3.315  0.3708  1.6493 -1.1785
   86MOL   H19127561   1.648   2.462   3.272 -0.5828  1.5227  2.2198
   86MOL   H19227562   1.947   2.279   3.767  0.6334 -0.2323  0.1951
   86MOL   H19327563   2.041   2.200   3.647 -2.8105 -2.6957  0.2016
   86MOL   C19427564   2.061   2.418   3.643 -0.2851 -0.6973 -0.0002
   86MOL   O19527565   1.972   2.529   3.640 -0.8389 -0.7320 -0.2475
   86MOL   C19627566   2.036   2.651   3.589  0.1344  0.2059 -0.3085
   86MOL   C19727567   1.938   2.753   3.543  0.4158 -0.3032  0.9608
   86MOL   C19827568   2.012   2.872   3.492  0.0714 -0.0481 -0.3078
   86MOL   C19927569   2.154   2.436   3.772  0.7117  0.2441  0.5105
   86MOL   H20027570   2.119   2.415   3.551 -0.4852 -0.8931 -0.1203
   86MOL   H20127571   2.090   2.689   3.676  0.6399 -1.4969  0.1359
   86MOL   H20227572   2.109   2.630   3.511  0.1439 -1.1471  0.0634
   86MOL   H20327573   1.864   2.783   3.618 -0.5419  1.3758 -0.6162
   86MOL   H20427574   1.870   2.726   3.461 -0.5045  0.9033  1.3117
   86MOL   H20527575   1.940   2.948   3.463  0.6303 -0.0461 -1.7292
   86MOL   H20627576   2.057   2.855   3.394 -1.4465  1.6407 -1.3375
   86MOL   H20727577   2.083   2.909   3.566  1.5404  1.4755 -2.4114
   86MOL   H20827578   2.217   2.526   3.770 -0.1319  0.8734  1.7150
   86MOL   H20927579   2.087   2.466   3.852 -0.5670 -2.3414  0.4323
   86MOL   C21027580   2.242   2.316   3.813 -0.7860 -0.3523 -0.3350
   86MOL   O21127581   2.347   2.310   3.718  0.1223  0.0900  0.5157
   86MOL   C21227582   2.374   2.176   3.675 -0.2244  0.2182  0.1333
   86MOL   C21327583   2.463   2.188   3.553 -0.2491  0.2614 -0.0509
   86MOL   C21427584   2.388   2.253   3.437 -0.2113 -0.0111  0.1832
   86MOL   C21527585   2.311   2.337   3.945 -0.9841  0.5014 -0.5294
   86MOL   H21627586   2.184   2.225   3.805  1.2310 -1.8566  1.5912
   86MOL   H21727587   2.424   2.112   3.748 -1.5325 -0.8432  0.1121
   86MOL   H21827588   2.282   2.120   3.654  0.9943 -1.4990 -0.7930
   86MOL   H21927589   2.508   2.093   3.526 -2.7336 -1.2724  1.0730
   86MOL   H22027590   2.553   2.246   3.577  1.0078 -2.1257  1.1894
   86MOL   H22127591   2.360   2.358   3.448 -1.1823 -0.2549  0.0841
   86MOL   H22227592   2.294   2.200   3.424 -2.0912  3.5141 -1.2788
   86MOL   H22327593   2.459   2.255   3.354  0.4484 -1.0720  0.7153
   86MOL   H22427594   2.411   2.294   3.932 -0.0417  3.3485 -3.2460
   86MOL   H22527595   2.342   2.441   3.950  0.7696  0.1039 -2.5392
   86MOL   C22627596   2.232   2.310   4.080 -0.6769  0.0144  0.0023
   86MOL   O22727597   2.104   2.376   4.076  0.4954  0.4856 -0.4347
   86MOL   C22827598   2.092   2.488   4.152 -0.2746 -0.4209 -0.1782
   86MOL   C22927599   1.957   2.556   4.127  0.1229 -0.4692  0.5360
   86MOL   C23027600   1.832   2.461   4.134  0.3807  0.8525  0.1293
   86MOL   C23127601   2.204   2.162   4.122  0.2172  0.3716  0.4666
   86MOL   H23227602   2.291   2.363   4.155  1.8344 -0.8408 -1.3040
   86MOL   H23327603   2.081   2.439   4.249 -1.4557  0.7313  0.2785
   86MOL   H23427604   2.170   2.563   4.147 -1.1526  0.6097  1.1496
   86MOL   H23527605   1.960   2.615   4.035 -1.2975  1.0103  1.3837
   86MOL   H23627606   1.944   2.622   4.214  3.0382 -1.1828  1.5578
   86MOL   H23727607   1.805   2.427   4.233  0.9437  1.4683  0.4989
   86MOL   H23827608   1.845   2.379   4.064 -1.4507 -2.1117  3.1525
   86MOL   H23927609   1.736   2.502   4.103  0.5241  0.3871 -0.9502
   86MOL   H24027610   2.153   2.169   4.217 -1.6816  0.8555 -0.5611
   86MOL   H24127611   2.134   2.133   4.043  0.8779  4.6516 -1.8849
   86MOL   C24227612   2.322   2.065   4.132  0.5709  0.8683 -0.1445
   86MOL   O24327613   2.392   2.108   4.245 -0.0707  0.3574  0.1556
   86MOL   C24427614   2.530   2.127   4.211  0.4988  0.0428  0.1188
   86MOL   C24527615   2.594   2.171   4.343 -0.0439  0.0746  0.9286
   86MOL   C24627616   2.519   2.302   4.389 -0.3299 -0.3249 -0.1936
   86MOL   C24727617   2.264   1.923   4.168  0.1425 -0.0089 -0.2262
   86MOL   H24827618   2.375   2.072   4.037 -0.5720  2.5956 -0.6843
   86MOL   H24927619   2.581   2.035   4.180 -1.2226 -0.0440 -2.6807
   86MOL   H25027620   2.541   2.210   4.141 -1.5416  0.8445  0.7177
   86MOL   H25127621   2.696   2.207   4.335  0.1135 -0.0435  2.2580
   86MOL   H25227622   2.604   2.092   4.417 -0.8630  1.1488  2.2355
   86MOL   H25327623   2.571   2.349   4.473 -0.9512 -1.2672  0.7365
   86MOL   H25427624   2.411   2.295   4.401 -0.0127 -2.9498  1.5545
   86MOL   H25527625   2.544   2.376   4.313  0.8047 -0.5051 -0.0082
   86MOL   H25627626   2.229   1.932   4.270  0.1047 -0.3341 -0.2085
   86MOL   H25727627   2.172   1.886   4.122 -0.2406  2.8625 -1.9098
   86MOL   C25827628   2.378   1.817   4.162  0.1226 -0.7191  0.1200
   86MOL   O25927629   2.342   1.706   4.247  0.0398 -0.2922  0.0611
   86MOL   C26027630   2.374   1.715   4.386 -0.0961  0.5103 -0.0566
   86MOL   C26127631   2.520   1.692   4.417 -0.4223  0.0944  0.0851
   86MOL   C26227632   2.596   1.590   4.338  0.0304  0.3881  0.1685
   86MOL   C26327633   2.413   1.756   4.026  0.1832 -0.0521  0.0222
   86MOL   H26427634   2.474   1.847   4.206  0.5829  0.1048 -1.4118
   86MOL   H26527635   2.338   1.808   4.429 -0.2184 -0.2982  1.6225
   86MOL   H26627636   2.318   1.631   4.427  0.9703  0.3260  1.0360
   86MOL   H26727637   2.515   1.672   4.524  0.6373  0.1905  0.1525
   86MOL   H26827638   2.567   1.789   4.402 -2.5688  1.1323 -0.2221
   86MOL   H26927639   2.607   1.607   4.231 -2.5738  1.4693  0.0360
   86MOL   H27027640   2.535   1.500   4.347 -1.4840  1.2594 -1.1763
   86MOL   H27127641   2.693   1.577   4.386 -0.5943 -0.2677  1.2754
   86MOL   H27227642   2.492   1.683   4.047 -0.7536 -0.2427  3.2429
   86MOL   H27327643   2.329   1.691   4.000 -1.2739 -0.2969  4.7544
   86MOL   C27427644   2.449   1.846   3.902 -0.1736  0.5511 -0.3969
   86MOL   O27527645   2.558   1.940   3.920  0.6803  0.2861  0.0509
   86MOL   C27627646   2.677   1.876   3.968  0.7255  0.8633  0.1892
   86MOL   C27727647   2.789   1.979   3.968 -0.5333  0.0136 -0.5032
   86MOL   C27827648   2.936   1.930   3.968 -1.0254 -0.2404 -0.6502
   86MOL   C27927649   2.478   1.758   3.776 -0.9187 -0.2168  0.5098
   86MOL   H28027650   2.365   1.913   3.886 -1.2238 -0.0297  2.3931
   86MOL   H28127651   2.655   1.834   4.067 -2.9765  2.7502  0.2453
   86MOL   H28227652   2.715   1.796   3.905 -0.4957  1.3763 -1.2204
   86MOL   H28327653   2.782   2.054   4.046  1.0328  1.2321 -1.4822
   86MOL   H28427654   2.776   2.038   3.877  0.8844  0.6054 -0.3423
   86MOL   H28527655   2.988   2.024   3.988 -1.7008 -0.2054  0.9917
   86MOL   H28627656   2.958   1.889   3.869  3.0765  0.2933 -0.0329
   86MOL   H28727657   2.955   1.856   4.045  0.8274 -0.5678 -1.3991
   86MOL   H28827658   2.532   1.830   3.714 -2.3485 -0.1036 -0.6375
   86MOL   H28927659   2.552   1.684   3.807 -0.2895  0.2768  0.1876
   86MOL   C29027660   2.372   1.687   3.696  0.0512  0.3339  0.3201
   86MOL   O29127661   2.290   1.789   3.644  0.7064 -0.0373  0.0868
   86MOL   C29227662   2.151   1.757   3.676 -0.3608 -0.2893 -0.2884
   86MOL   C29327663   2.049   1.866   3.623  0.4383  0.4950  0.7785
   86MOL   C29427664   2.056   1.882   3.472 -0.5609 -0.7481 -0.6582
   86MOL   C29527665   2.429   1.605   3.585  1.0171  0.2851  0.1053
   86MOL   H29627666   2.329   1.613   3.764  0.4327  1.9294  2.3605
   86MOL   H29727667   2.107   1.664   3.642 -0.4321  0.0241 -1.0514
   86MOL   H29827668   2.137   1.737   3.783 -3.3824 -0.1862 -0.6254
   86MOL   H29927669   2.071   1.965   3.663 -2.2845  1.9729 -1.2303
   86MOL   H30027670   1.950   1.833   3.654  0.4717  0.1943  0.5707
   86MOL   H30127671   2.139   1.949   3.450 -2.3667  1.6385 -0.3248
   86MOL   H30227672   1.965   1.921   3.428  0.2714  1.5130 -0.4118
   86MOL   H30327673   2.084   1.791   3.419  0.0061 -0.1109 -1.4621
   86MOL   H30427674   2.451   1.683   3.511 -0.1367  0.4059 -0.1220
   86MOL   H30527675   2.518   1.551   3.617  1.7566  0.1924 -1.9757
   86MOL   C30627676   2.325   1.515   3.512 -0.1504  0.4499 -0.1031
   86MOL   O30727677   2.397   1.453   3.405  0.2464  0.3161 -0.0414
   86MOL   C30827678   2.315   1.427   3.292 -0.4712 -0.1135  0.1023
   86MOL   C30927679   2.424   1.381   3.191 -0.5260  0.5485  0.3409
   86MOL   C31027680   2.362   1.348   3.053  0.3431 -0.6816 -0.3723
   86MOL   C31127681   2.265   1.400   3.599  0.5936 -0.1543  0.1749
   86MOL   H31227682   2.240   1.571   3.473 -2.1233 -1.7849  0.9038
   86MOL   H31327683   2.260   1.339   3.323  0.9431 -0.8838  0.4837
   86MOL   H31427684   2.259   1.514   3.258  1.7706  0.5700 -2.0478
   86MOL   H31527685   2.472   1.294   3.235 -0.7759  0.4688  0.4517
   86MOL   H31627686   2.505   1.448   3.162  0.9106 -2.1117 -2.0644
   86MOL   H31727687   2.442   1.314   2.987 -1.0778 -3.1188 -0.8979
   86MOL   H31827688   2.328   1.441   3.008  2.1148 -0.1578 -0.6951
   86MOL   H31927689   2.273   1.287   3.062 -0.3851  0.5133  0.6615
   86MOL   H32027690   2.184   1.347   3.550  0.0471 -0.0057  0.9096
   86MOL   H32127691   2.337   1.328   3.637  0.8161  1.7611  3.6212
   86MOL   H32227692   2.207   1.442   3.681  1.8125 -2.5175  2.3146
   87MOL     C127693   7.713   2.921   5.476 -0.0299  0.7239  0.0580
   87MOL     O227694   7.702   3.050   5.522  0.4871  0.4664 -0.0088
   87MOL     C327695   7.800   3.138   5.483  0.1458 -0.0562 -0.5754
   87MOL     C427696   7.787   3.274   5.561  0.3053  0.7094  0.4363
   87MOL     C527697   7.817   3.258   5.710 -0.5528  0.2698 -0.0797
   87MOL     C627698   7.615   2.822   5.541 -0.0338 -0.1472  0.4192
   87MOL     H727699   7.813   2.877   5.485  0.1903  1.1025 -0.4653
   87MOL     H827700   0.073   3.096   5.492  0.0377 -0.7679 -2.4936
   87MOL     H927701   7.785   3.146   5.375 -0.8665  0.2837 -0.4098
   87MOL    H1027702   7.692   3.323   5.539  0.9833  1.7152 -0.3031
   87MOL    H1127703   0.023   3.351   5.516  1.6238 -2.2256 -2.9099
   87MOL    H1227704   7.824   3.353   5.764  1.7288 -0.2228  0.5672
   87MOL    H1327705   0.089   3.217   5.724 -1.1626 -0.5909  1.9945
   87MOL    H1427706   7.748   3.188   5.758 -0.6939  0.8817  0.6231
   87MOL    H1527707   7.515   2.866   5.533  1.0054  2.6509  2.2756
   87MOL    H1627708   7.619   2.729   5.483  0.0563 -0.2134  0.5325
   87MOL    H1727709   7.689   2.915   5.370  2.1232 -1.5214 -0.3516
   87MOL    C1827710   7.642   2.785   5.684 -0.4628 -0.2868 -0.6538
   87MOL    O1927711   7.766   2.726   5.724 -0.5653 -0.2815  0.0931
   87MOL    C2027712   7.792   2.607   5.653 -0.2664  0.4063  0.0822
   87MOL    C2127713   0.030   2.522   5.756 -0.3568 -0.5765  0.0488
   87MOL    C2227714   7.764   2.429   5.828 -0.3895 -0.5451 -0.2831
   87MOL    C2327715   7.626   2.903   5.772 -0.4772 -0.1083 -0.1800
   87MOL    H2427716   7.564   2.710   5.698 -1.2896  0.7759  0.4907
   87MOL    H2527717   7.701   2.558   5.620  0.3269 -0.9296  0.4036
   87MOL    H2627718   0.033   2.617   5.569 -1.7072 -2.9129 -1.5970
   87MOL    H2727719   0.077   2.586   5.831 -0.2290 -0.6429  0.0265
   87MOL    H2827720   0.118   2.473   5.713 -0.4985 -0.3527 -0.5040
   87MOL    H2927721   7.726   2.361   5.752  0.1583  0.1880 -1.2271
   87MOL    H3027722   7.696   2.489   5.889  0.5682  0.9968 -0.7077
   87MOL    H3127723   7.824   2.358   5.885 -0.1639  0.9666  1.4084
   87MOL    H3227724   7.729   2.938   5.778 -0.8607  0.8141  1.2530
   87MOL    H3327725   7.579   2.987   5.720  1.2208  0.7708 -0.3134
   87MOL    C3427726   7.566   2.877   5.908  0.4487 -0.5855 -0.1439
   87MOL    O3527727   7.601   2.993   5.990 -0.1589 -0.0288 -0.1440
   87MOL    C3627728   7.730   2.993   6.053 -0.3584  0.0836  0.7084
   87MOL    C3727729   7.752   3.120   6.120 -0.7974  0.1114 -0.2702
   87MOL    C3827730   7.652   3.154   6.228  0.4865 -0.4969  0.4517
   87MOL    C3927731   7.414   2.827   5.912  0.1004 -0.1727 -0.2079
   87MOL    H4027732   7.625   2.795   5.949 -0.8451 -0.4418  2.0821
   87MOL    H4127733   7.736   2.909   6.122 -1.4388 -0.7488 -0.2012
   87MOL    H4227734   7.805   2.983   5.976  0.3234  0.6969  1.2823
   87MOL    H4327735   7.736   3.181   6.031 -0.7795 -0.4768 -0.6793
   87MOL    H4427736   0.025   3.134   6.158  0.2514 -0.5751 -2.7341
   87MOL    H4527737   7.671   3.250   6.276 -0.7615 -0.3499  0.6901
   87MOL    H4627738   7.644   3.098   6.321  1.5311  0.7421  1.2935
   87MOL    H4727739   7.554   3.168   6.180  0.5771  0.3200  0.4913
   87MOL    H4827740   7.362   2.864   5.824 -0.1143 -0.5044 -0.2195
   87MOL    H4927741   7.423   2.719   5.906  1.2867 -0.0268 -1.3161
   87MOL    C5027742   7.329   2.852   6.041  0.0017  0.2443  0.2420
   87MOL    O5127743   7.216   2.766   6.038  0.3827 -0.0681 -0.2108
   87MOL    C5227744   7.099   2.816   6.100 -0.4931 -0.3686 -0.0366
   87MOL    C5327745   6.986   2.713   6.100 -0.0778 -0.0147 -0.2957
   87MOL    C5427746   7.019   2.579   6.176  0.9470  0.2896 -0.1430
   87MOL    C5527747   7.389   2.834   6.185 -0.2456  0.1653  0.1521
   87MOL    H5627748   7.298   2.955   6.029 -1.4439  0.0205  1.9157
   87MOL    H5727749   7.106   2.855   6.202 -1.6312 -1.2416  0.3803
   87MOL    H5827750   7.064   2.904   6.046 -1.1064 -0.6051 -0.0262
   87MOL    H5927751   6.953   2.690   5.998  1.7536 -1.5029 -0.5878
   87MOL    H6027752   6.898   2.757   6.147 -1.3300 -2.8061  0.1079
   87MOL    H6127753   6.926   2.528   6.199 -0.0306  1.4643 -1.3735
   87MOL    H6227754   7.064   2.589   6.274 -1.5139  0.5238  0.9914
   87MOL    H6327755   7.072   2.513   6.107 -0.1112 -0.4333 -0.2775
   87MOL    H6427756   7.453   2.922   6.182 -1.9591  1.4089 -0.8853
   87MOL    H6527757   7.316   2.855   6.262 -2.3119 -0.6251 -1.5306
   87MOL    C6627758   7.468   2.707   6.224  0.4368  0.3375  0.0682
   87MOL    O6727759   7.478   2.716   6.362  0.1146 -0.0006  0.3226
   87MOL    C6827760   7.567   2.813   6.411 -0.1556  0.0487  0.0996
   87MOL    C6927761   7.598   2.777   6.557 -0.6381 -0.0181  0.0594
   87MOL    C7027762   7.653   2.635   6.569  0.9529  0.0869 -0.1383
   87MOL    C7127763   7.394   2.572   6.196  0.5404 -0.2315  0.1451
   87MOL    H7227764   7.560   2.704   6.166  0.2953  0.2045 -0.1507
   87MOL    H7327765   7.650   2.822   6.341 -2.0443  1.7799 -2.0042
   87MOL    H7427766   7.518   2.910   6.407 -3.1869 -1.4140  0.7390
   87MOL    H7527767   7.516   2.784   6.628  0.2480  0.2890  1.0678
   87MOL    H7627768   7.668   2.857   6.583  0.1539 -0.3492 -1.0207
   87MOL    H7727769   7.676   2.628   6.675 -0.7865  2.6398  0.4411
   87MOL    H7827770   7.754   2.619   6.532  1.7324 -1.4885  2.4988
   87MOL    H7927771   7.582   2.552   6.555 -1.0986  1.4081  1.9541
   87MOL    H8027772   7.300   2.577   6.252  1.2709  1.5257  1.2437
   87MOL    H8127773   7.381   2.571   6.088  2.9472 -0.3923 -0.1725
   87MOL    C8227774   7.476   2.453   6.245 -0.3055 -0.0239  0.6563
   87MOL    O8327775   7.411   2.336   6.194 -0.1390 -0.2092  0.2661
   87MOL    C8427776   7.303   2.287   6.269  0.3004  0.7504 -0.3852
   87MOL    C8527777   7.245   2.152   6.222  0.0475 -1.2070 -0.1404
   87MOL    C8627778   7.339   2.034   6.263  0.3934  0.1401 -0.6971
   87MOL    C8727779   7.626   2.457   6.198  0.5680  0.5221  0.1555
   87MOL    H8827780   7.482   2.451   6.353 -2.7159 -0.4413  0.8232
   87MOL    H8927781   7.325   2.275   6.375 -0.8258  2.2790  0.0382
   87MOL    H9027782   7.221   2.358   6.258  2.1217  2.7016 -1.8532
   87MOL    H9127783   7.215   2.152   6.118 -0.2424 -2.0479 -0.0577
   87MOL    H9227784   7.146   2.149   6.268  0.1286  2.1334  0.4011
   87MOL    H9327785   7.301   1.938   6.228  1.1901 -1.8152  3.4594
   87MOL    H9427786   7.355   2.029   6.371 -0.3841 -1.6929 -0.6483
   87MOL    H9527787   7.439   2.029   6.219 -0.1689 -2.1925 -1.7960
   87MOL    H9627788   7.634   2.480   6.091  0.1345  0.8116  0.1843
   87MOL    H9727789   7.686   2.533   6.247  1.1525 -0.6811  1.3358
   87MOL    C9827790   7.697   2.330   6.240 -0.4638 -0.3842  0.0313
   87MOL    O9927791   0.003   2.323   6.181 -0.3782 -0.3883  0.1295
   87MOL   C10027792   0.093   2.425   6.201  0.3596 -0.1879 -0.2020
   87MOL   C10127793   0.226   2.374   6.170  0.2072  0.0909 -0.3536
   87MOL   C10227794   0.238   2.311   6.026 -0.1247 -0.1755 -0.8104
   87MOL   C10327795   7.711   2.311   6.393  0.2079 -0.3235 -0.0098
   87MOL   H10427796   7.646   2.245   6.193  0.1802 -0.2225 -0.9836
   87MOL   H10527797   0.067   2.516   6.146  0.7047 -0.9030 -1.5674
   87MOL   H10627798   0.087   2.454   6.306  0.7816  1.1298 -0.5235
   87MOL   H10727799   0.268   2.311   6.248  1.2587  2.1556  0.7892
   87MOL   H10827800   0.289   2.463   6.164 -0.8636  0.9025  0.2692
   87MOL   H10927801   0.207   2.376   5.944  1.0652 -0.4479 -1.4925
   87MOL   H11027802   0.176   2.221   6.021  0.6411 -0.8166  0.7628
   87MOL   H11127803   0.338   2.269   6.019  0.0821 -0.3805  2.4106
   87MOL   H11227804   7.739   2.407   6.437  1.4604 -1.1856  1.1242
   87MOL   H11327805   7.615   2.294   6.441 -1.0325  1.0405 -1.9064
   87MOL   C11427806   7.812   2.197   6.437  0.5198 -0.0706  0.4100
   87MOL   O11527807   0.025   2.219   6.568  0.0807  0.2264  0.1831
   87MOL   C11627808   0.124   2.322   6.597  0.4059  0.0093  0.2909
   87MOL   C11727809   0.131   2.318   6.749 -1.0094  0.1092 -0.6715
   87MOL   C11827810   0.002   2.348   6.828 -0.1488 -0.3117 -0.0987
   87MOL   C11927811   7.748   2.055   6.409  0.8728 -0.6840 -0.6586
   87MOL   H12027812   0.078   2.191   6.382  0.9610  0.4140  1.1040
   87MOL   H12127813   0.222   2.297   6.555  1.6123  1.2167  2.3370
   87MOL   H12227814   0.098   2.412   6.542  0.6846 -0.8362 -1.2701
   87MOL   H12327815   0.208   2.382   6.791  1.5939 -2.4414 -1.4272
   87MOL   H12427816   0.158   2.220   6.788  1.0854  0.6670 -0.6351
   87MOL   H12527817   7.783   2.443   6.804 -1.6847 -1.0107  0.1069
   87MOL   H12627818   0.024   2.346   6.935 -1.5441  0.0386  0.1973
   87MOL   H12727819   7.756   2.269   6.814 -1.4773  0.8984 -0.0472
   87MOL   H12827820   7.653   2.059   6.463  1.4237 -1.3601  0.3592
   87MOL   H12927821   7.725   2.044   6.303 -3.1935  1.4520 -0.1280
   87MOL   C13027822   7.819   1.931   6.458  0.1648 -0.1298  0.0553
   87MOL   O13127823   7.746   1.893   6.569  0.1216 -0.4069  0.4535
   87MOL   C13227824   7.800   1.946   6.681 -0.3811  0.3558 -0.2616
   87MOL   C13327825   7.749   1.860   6.798  0.3454  0.1551 -0.1911
   87MOL   C13427826   7.768   1.712   6.774 -0.1908  0.5460  0.0399
   87MOL   C13527827   7.809   1.809   6.360 -0.7776 -0.1203 -0.1331
   87MOL   H13627828   0.096   1.947   6.482  0.2057 -0.2764 -0.0195
   87MOL   H13727829   0.081   1.946   6.690 -0.3946 -1.9323  0.2098
   87MOL   H13827830   7.772   2.050   6.698 -1.0444  0.0994  0.2164
   87MOL   H13927831   7.644   1.886   6.809  0.6424  1.0797  0.4795
   87MOL   H14027832   7.792   1.882   6.895 -0.5759  0.2568  0.1973
   87MOL   H14127833   0.046   1.691   6.761  0.0207  1.9558 -0.4856
   87MOL   H14227834   7.721   1.675   6.683 -0.3100  0.8193 -0.0089
   87MOL   H14327835   7.724   1.654   6.855  0.7412  1.4877  1.2354
   87MOL   H14427836   7.819   1.718   6.418 -1.2601  0.3022  0.6169
   87MOL   H14527837   7.709   1.812   6.317 -1.4295  2.6419  1.3941
   87MOL   C14627838   0.097   1.811   6.249 -0.2518 -0.0808  0.6838
   87MOL   O14727839   0.213   1.780   6.323  0.2115 -0.3389  0.6749
   87MOL   C14827840   0.330   1.857   6.281  0.3090  0.4265  0.7395
   87MOL   C14927841   0.446   1.834   6.382  0.2392  0.1670  0.5097
   87MOL   C15027842   0.391   1.844   6.531  0.2997 -0.2552 -0.2141
   87MOL   C15127843   0.089   1.693   6.157 -0.7958 -0.2599  1.7019
   87MOL   H15227844   0.097   1.909   6.201  2.3911 -0.1915  0.4220
   87MOL   H15327845   0.355   1.834   6.177  1.4619  0.5468  0.9861
   87MOL   H15427846   0.307   1.963   6.276 -1.7942  0.0337  1.7920
   87MOL   H15527847   0.510   1.918   6.356 -0.7291  0.1336 -2.1394
   87MOL   H15627848   0.503   1.744   6.363  1.6430  0.9579  0.9236
   87MOL   H15727849   0.477   1.839   6.598 -1.0723 -2.3752  1.4732
   87MOL   H15827850   0.326   1.758   6.546  0.3574 -0.7816 -2.7998
   87MOL   H15927851   0.341   1.939   6.548  0.3837 -0.5777  1.9935
   87MOL   H16027852   0.186   1.690   6.106  0.0402  2.7005  2.9884
   87MOL   H16127853   0.102   1.610   6.227 -0.6133 -1.4886  0.2467
   87MOL   C16227854   7.807   1.676   6.055 -0.4822  0.1565 -0.5251
   87MOL   O16327855   7.813   1.783   5.962 -0.2667 -0.4250  0.3617
   87MOL   C16427856   7.698   1.806   5.886  0.9726 -0.2792 -0.5663
   87MOL   C16527857   7.684   1.953   5.847 -0.4007  0.4087  0.2700
   87MOL   C16627858   7.702   2.047   5.965  0.0825  0.0841  0.0631
   87MOL   C16727859   7.820   1.543   5.980  0.7427  0.7442  0.5195
   87MOL   H16827860   7.715   1.673   6.112 -0.4898 -3.5909 -0.6199
   87MOL   H16927861   7.695   1.739   5.800  0.7533  0.0177 -0.7926
   87MOL   H17027862   7.611   1.774   5.944  0.0538  0.6795 -1.3846
   87MOL   H17127863   7.587   1.957   5.798  0.5622  2.4807 -1.5102
   87MOL   H17227864   7.766   1.968   5.776 -1.0016 -0.6637 -0.6744
   87MOL   H17327865   7.640   2.008   6.046 -1.0374 -0.0245 -0.8464
   87MOL   H17427866   7.666   2.147   5.944  0.6140  0.4158  0.6751
   87MOL   H17527867   7.803   2.044   6.006  0.0458 -0.3110  0.1302
   87MOL   H17627868   7.728   1.530   5.924  0.9463  1.2471  0.0657
   87MOL   H17727869   0.082   1.535   5.919  0.2218 -0.4773 -0.1019
   87MOL   C17827870   7.819   1.415   6.067  0.0233  0.0024  0.1824
   87MOL   O17927871   7.696   1.425   6.136  0.4500  0.3917 -0.1919
   87MOL   C18027872   7.689   1.332   6.246  0.4072  0.4496 -0.6752
   87MOL   C18127873   7.569   1.371   6.342 -0.5752  1.0114 -0.5139
   87MOL   C18227874   7.571   1.514   6.391 -0.6290 -0.6662 -0.1335
   87MOL   C18327875   0.005   1.284   5.989 -0.1527  0.6005 -0.3073
   87MOL   H18427876   0.070   1.410   6.142 -0.9732 -0.6322  1.1955
   87MOL   H18527877   7.669   1.231   6.209  0.0200 -0.2021  1.2617
   87MOL   H18627878   7.778   1.322   6.309  1.0408 -0.3120 -1.6868
   87MOL   H18727879   7.563   1.300   6.425  1.8131  1.6341  0.2449
   87MOL   H18827880   7.477   1.355   6.286  0.9237 -2.8855 -2.1045
   87MOL   H18927881   7.477   1.549   6.434  0.7370  1.7942  0.9163
   87MOL   H19027882   7.600   1.577   6.307  1.5964 -0.5408  0.7012
   87MOL   H19127883   7.642   1.522   6.473 -2.6133 -0.6119  1.6183
   87MOL   H19227884   0.113   1.270   5.983  0.2119  2.5472  1.2477
   87MOL   H19327885   7.814   1.201   6.057  0.4009 -0.2023 -1.1218
   87MOL   C19427886   7.738   1.272   5.867 -0.3251 -0.1465 -0.0673
   87MOL   O19527887   7.812   1.331   5.770 -0.9788  0.4956 -0.6880
   87MOL   C19627888   7.742   1.398   5.666 -0.2514 -0.1405 -0.8110
   87MOL   C19727889   0.009   1.438   5.551 -0.1020 -0.3731 -0.4673
   87MOL   C19827890   0.060   1.311   5.475 -0.5136  0.1052  0.6332
   87MOL   C19927891   7.705   1.130   5.813 -0.4479  0.7444 -0.2558
   87MOL   H20027892   7.647   1.330   5.884  0.9730  1.1125  2.8759
   87MOL   H20127893   7.657   1.341   5.628 -0.9162  0.8430 -0.8195
   87MOL   H20227894   7.704   1.489   5.712  0.2065  1.0873 -2.8435
   87MOL   H20327895   0.090   1.493   5.599  0.3405 -0.2776 -1.3035
   87MOL   H20427896   7.776   1.502   5.488 -1.4293 -1.5480 -0.4041
   87MOL   H20527897   0.145   1.279   5.536  1.0424  1.6523 -0.6794
   87MOL   H20627898   0.098   1.333   5.376  1.5600  0.7190  1.5467
   87MOL   H20727899   7.815   1.230   5.477 -1.9246  1.3323 -0.4394
   87MOL   H20827900   7.644   1.149   5.724 -1.7222  3.2670  1.1179
   87MOL   H20927901   7.801   1.086   5.786 -0.6099  0.4258 -0.3065
   87MOL   C21027902   7.620   1.046   5.917  0.0417 -0.3013  0.0179
   87MOL   O21127903   7.483   1.085   5.907  0.2841  0.8533 -0.0643
   87MOL   C21227904   7.396   1.069   6.021 -0.2776  0.1092  0.3614
   87MOL   C21327905   7.259   1.033   5.964  1.4046  0.1227 -0.6550
   87MOL   C21427906   7.149   1.035   6.077  0.2256  1.1022  0.2014
   87MOL   C21527907   7.634   0.891   5.895 -0.9288  0.5305 -0.0173
   87MOL   H21627908   7.664   1.061   6.016  1.4856  2.4633 -1.0028
   87MOL   H21727909   7.437   0.992   6.087  4.0764  0.0880 -2.1340
   87MOL   H21827910   7.403   1.164   6.075  3.0637  0.0064  0.2353
   87MOL   H21927911   7.248   0.937   5.914 -1.1947 -0.2864  0.5978
   87MOL   H22027912   7.232   1.106   5.888 -0.8697  0.5133  0.4667
   87MOL   H22127913   7.119   1.130   6.120 -1.1390  0.0851  1.5523
   87MOL   H22227914   7.170   0.970   6.162 -0.5972  0.8665  0.2270
   87MOL   H22327915   7.062   0.988   6.031  1.5875 -2.5898  1.1834
   87MOL   H22427916   7.561   0.843   5.959  1.3459  0.2913  2.4651
   87MOL   H22527917   7.606   0.877   5.790  0.0228 -0.4959 -0.1375
   87MOL   C22627918   7.778   0.843   5.915  0.6146  0.3287 -0.0904
   87MOL   O22727919   7.826   0.876   6.054  0.1917 -0.2279 -0.1301
   87MOL   C22827920   0.139   0.890   6.049 -0.4212 -0.0355 -0.1093
   87MOL   C22927921   0.205   0.901   6.184  0.1035  1.1257  0.2640
   87MOL   C23027922   0.152   1.020   6.258 -0.2570 -0.8728 -0.2266
   87MOL   C23127923   7.787   0.691   5.879  0.3527 -0.8169  0.8497
   87MOL   H23227924   0.004   0.892   5.834 -1.8223 -0.1941 -2.0890
   87MOL   H23327925   0.184   0.803   6.001  1.0681  0.9095 -0.4415
   87MOL   H23427926   0.160   0.983   5.997  2.5592 -1.0171 -0.7980
   87MOL   H23527927   0.314   0.892   6.177 -0.0841 -0.4567 -0.8808
   87MOL   H23627928   0.168   0.808   6.227 -2.1651  0.8179 -2.2838
   87MOL   H23727929   0.188   1.110   6.209 -0.0479 -1.6853 -1.5802
   87MOL   H23827930   0.194   1.027   6.358 -0.5762  1.5650 -0.2382
   87MOL   H23927931   0.043   1.014   6.260 -0.4838  2.7673  0.3999
   87MOL   H24027932   0.042   0.644   5.933  1.0803 -0.9768 -0.3776
   87MOL   H24127933   7.692   0.649   5.910 -0.6009  1.2965  0.8871
   87MOL   C24227934   7.814   0.665   5.727 -0.3863 -0.4222  0.1364
   87MOL   O24327935   0.109   0.732   5.677  0.2147 -0.3642  0.1356
   87MOL   C24427936   0.116   0.766   5.537  0.1111 -0.2842  0.7067
   87MOL   C24527937   0.246   0.831   5.498 -0.4310 -0.6582  0.2348
   87MOL   C24627938   0.275   0.958   5.581 -0.5728 -0.4669  0.4154
   87MOL   C24727939   0.013   0.517   5.697 -0.3125  0.6062  0.1211
   87MOL   H24827940   7.731   0.686   5.660  1.7667  3.1130 -1.5605
   87MOL   H24927941   0.094   0.672   5.487 -0.3892  0.6867 -0.9338
   87MOL   H25027942   0.035   0.836   5.516  0.3315 -0.3483 -0.4024
   87MOL   H25127943   0.224   0.860   5.395 -1.1868 -1.4927  0.1491
   87MOL   H25227944   0.334   0.767   5.497  0.1646  0.1523 -1.2139
   87MOL   H25327945   0.378   0.993   5.578 -0.1197 -1.7505  0.6704
   87MOL   H25427946   0.265   0.942   5.689  0.4054  0.7009  0.6920
   87MOL   H25527947   0.204   1.038   5.557  0.4031  0.8447  1.7907
   87MOL   H25627948   0.032   0.507   5.590 -1.8582  0.5715 -0.1545
   87MOL   H25727949   0.110   0.496   5.742 -1.1652 -0.4536  1.4936
   87MOL   C25827950   7.729   0.413   5.747 -0.6028  0.9991  0.2641
   87MOL   O25927951   7.616   0.410   5.670 -0.1094  0.2413  0.3829
   87MOL   C26027952   7.517   0.509   5.693 -0.2983 -0.4636  0.2076
   87MOL   C26127953   7.383   0.462   5.668 -0.2401 -0.1066  0.2383
   87MOL   C26227954   7.358   0.426   5.522  0.8440  0.2716  0.1634
   87MOL   C26327955   7.782   0.266   5.743 -0.0995  0.9977 -1.4268
   87MOL   H26427956   7.697   0.438   5.848 -1.9405  1.7682 -0.3424
   87MOL   H26527957   7.533   0.546   5.795  3.1435 -0.4202 -0.2854
   87MOL   H26627958   7.540   0.591   5.625 -1.5302 -0.1851  0.1134
   87MOL   H26727959   7.320   0.551   5.680  0.4084  0.7733 -2.5990
   87MOL   H26827960   7.357   0.381   5.736  0.6087 -1.0258 -0.5269
   87MOL   H26927961   7.251   0.419   5.501  0.1557  1.1187  3.0835
   87MOL   H27027962   7.403   0.331   5.494  0.0889 -0.3246  0.9048
   87MOL   H27127963   7.400   0.500   5.454  0.4277  1.8136  1.5290
   87MOL   H27227964   7.798   0.251   5.636 -0.7989 -0.2264 -1.3683
   87MOL   H27327965   0.045   0.260   5.803 -0.1650  1.5504 -1.2747
   87MOL   C27427966   7.675   0.161   5.788 -0.1500  0.1594 -0.1882
   87MOL   O27527967   7.753   0.042   5.777  0.9006  0.4132  0.1118
   87MOL   C27627968   7.729   7.789   5.669 -0.5495 -0.1469  0.5159
   87MOL   C27727969   7.801   7.663   5.717  0.2321  0.0791  0.0336
   87MOL   C27827970   0.116   7.679   5.761 -0.4802 -0.0674  0.7384
   87MOL   C27927971   7.649   0.164   5.938  0.5478  0.0696  0.0530
   87MOL   H28027972   7.588   0.155   5.723  0.5071  0.3527 -1.1054
   87MOL   H28127973   7.622   7.784   5.651 -0.2403 -0.2900 -1.3421
   87MOL   H28227974   7.761   0.014   5.579  0.4261  1.5797  1.8419
   87MOL   H28327975   7.791   7.596   5.631 -1.6390 -0.4113  0.6190
   87MOL   H28427976   7.741   7.621   5.797 -3.0710 -0.4374 -2.6204
   87MOL   H28527977   0.118   7.721   5.861  1.0608 -2.8969  1.9568
   87MOL   H28627978   0.166   7.744   5.689 -3.2166  0.1707 -1.0178
   87MOL   H28727979   0.173   7.586   5.757 -0.9039 -0.2581 -1.7763
   87MOL   H28827980   7.736   0.139   6.000  0.1342  2.5616  1.6903
   87MOL   H28927981   7.636   0.265   5.977  2.8679  0.4901 -0.2042
   87MOL   C29027982   7.541   0.056   5.973 -0.5030 -0.1628 -0.3935
   87MOL   O29127983   7.554   0.020   6.109  0.3297  0.2855 -0.2721
   87MOL   C29227984   7.619   7.724   6.139 -0.2398 -0.0760 -0.3559
   87MOL   C29327985   7.671   7.726   6.281 -0.2868 -0.3831 -0.8662
   87MOL   C29427986   7.761   7.603   6.324  0.1229  0.1253 -0.5572
   87MOL   C29527987   7.392   0.106   5.964  0.7074 -1.3588 -0.0346
   87MOL   H29627988   7.563   7.807   5.899  2.7094  1.8631 -1.6562
   87MOL   H29727989   7.544   7.648   6.123  1.8780 -2.2842 -0.0546
   87MOL   H29827990   7.702   7.700   6.073 -1.0366  0.0104 -1.3935
   87MOL   H29927991   7.596   7.745   6.357  0.1607  0.2141 -0.5741
   87MOL   H30027992   7.727   7.818   6.297 -0.3325 -0.1195 -2.1775
   87MOL   H30127993   0.007   7.559   6.257  1.5513 -0.2542  1.2098
   87MOL   H30227994   7.700   7.515   6.345 -1.1405  1.0873 -0.1439
   87MOL   H30327995   7.809   7.627   6.419  0.9348 -1.7175 -0.4732
   87MOL   H30427996   7.360   0.136   5.864  0.1748 -0.1829  0.4832
   87MOL   H30527997   7.334   0.019   5.993  1.2129 -1.1619  1.6047
   87MOL   C30627998   7.350   0.218   6.063  0.3548 -0.0888 -0.2881
   87MOL   O30727999   7.431   0.337   6.048  0.0261  0.1583  0.1802
   87MOL   C30828000   7.440   0.426   6.161 -0.0988 -0.5083  0.1538
   87MOL   C30928001   7.537   0.545   6.125  0.6293 -0.3943  0.0015
   87MOL   C31028002   7.577   0.642   6.237  0.2135  0.6869  1.0047
   87MOL   C31128003   7.198   0.255   6.061  0.1438  0.1960  0.2221
   87MOL   H31228004   7.363   0.179   6.164  1.2067 -0.1042 -0.3986
   87MOL   H31328005   7.340   0.462   6.184 -0.4930 -0.7589 -1.1257
   87MOL   H31428006   7.482   0.375   6.248 -0.0267 -1.0876 -0.2172
   87MOL   H31528007   7.486   0.590   6.040 -0.4137  0.7647  1.2255
   87MOL   H31628008   7.631   0.505   6.086  1.3644  1.6123 -0.3544
   87MOL   H31728009   7.671   0.695   6.219  1.3727 -1.8274 -0.6747
   87MOL   H31828010   7.603   0.596   6.332  2.6880  1.7919  0.9084
   87MOL   H31928011   7.504   0.721   6.256 -0.9594 -0.1823  0.1452
   87MOL   H32028012   7.171   0.289   5.961 -0.6872  0.5389  0.5600
   87MOL   H32128013   7.132   0.169   6.073 -0.9964  1.3319  2.3755
   87MOL   H32228014   7.177   0.332   6.136  0.4328 -0.8320  1.3659
   88MOL     C128015   7.053   6.368   4.391 -0.4486 -0.3991 -0.1389
   88MOL     O228016   7.051   6.271   4.293 -0.3829 -1.1233  0.9154
   88MOL     C328017   6.924   6.226   4.248 -0.7824  0.0120  0.1903
   88MOL     C428018   6.955   6.183   4.107 -0.6195  0.3022  0.9200
   88MOL     C528019   6.988   6.292   4.004  0.5318  0.1070 -0.4651
   88MOL     C628020   7.055   6.498   4.329  0.1712  0.1351  0.1817
   88MOL     H728021   7.145   6.339   4.442  1.0837  1.0127 -2.0350
   88MOL     H828022   6.900   6.144   4.315 -1.5656 -0.4981 -0.7025
   88MOL     H928023   6.839   6.294   4.258 -1.2098 -0.4877  0.0223
   88MOL    H1028024   6.874   6.119   4.073 -0.8754 -0.0465  2.1613
   88MOL    H1128025   7.040   6.114   4.107 -2.2699 -1.7770  0.0760
   88MOL    H1228026   7.062   6.256   3.933  2.2477  0.7792  0.9415
   88MOL    H1328027   7.035   6.379   4.049 -2.8361  1.9722 -0.3935
   88MOL    H1428028   6.897   6.316   3.949  0.2562 -1.1411 -0.5708
   88MOL    H1528029   7.135   6.507   4.256  1.0825 -2.5266  0.8157
   88MOL    H1628030   6.969   6.495   4.262  0.7599  1.0548 -0.6244
   88MOL    H1728031   6.973   6.354   4.465 -0.1799 -1.9176 -0.1170
   88MOL    C1828032   7.068   6.610   4.435  0.2196  0.5122 -0.2156
   88MOL    O1928033   7.194   6.615   4.503  0.3879  0.3736  0.1018
   88MOL    C2028034   7.311   6.646   4.433 -0.3205  0.2752  0.2363
   88MOL    C2128035   7.439   6.632   4.513 -0.1414  0.3162 -0.3048
   88MOL    C2228036   7.482   6.484   4.541  0.0181 -0.4318  0.4739
   88MOL    C2328037   7.026   6.748   4.385  0.1575  0.0344  0.1809
   88MOL    H2428038   7.002   6.587   4.518  0.9751 -0.5291  0.0961
   88MOL    H2528039   7.303   6.573   4.352 -3.6558 -0.8854  1.5302
   88MOL    H2628040   7.302   6.740   4.379 -3.2646 -0.8831 -1.3741
   88MOL    H2728041   7.437   6.675   4.613  1.5732 -0.9702  0.3138
   88MOL    H2828042   7.520   6.679   4.456  0.1847  2.1868  1.6587
   88MOL    H2928043   7.441   6.427   4.624 -0.3802  1.7986  1.8474
   88MOL    H3028044   7.587   6.484   4.571 -0.3281 -0.7074  1.7077
   88MOL    H3128045   7.476   6.431   4.446 -1.4547 -1.9535  1.3858
   88MOL    H3228046   7.052   6.827   4.455 -0.4450  2.8738 -2.7309
   88MOL    H3328047   7.085   6.775   4.298  1.7454  1.5023  1.6671
   88MOL    C3428048   6.878   6.751   4.341  0.3443  0.2042  0.3589
   88MOL    O3528049   6.804   6.746   4.461  0.0021 -0.4225  0.6290
   88MOL    C3628050   6.696   6.646   4.447  0.1016 -0.4304 -0.1154
   88MOL    C3728051   6.651   6.616   4.592 -0.4608  0.1675 -0.0679
   88MOL    C3828052   6.577   6.716   4.680 -0.4169  0.9618 -0.1126
   88MOL    C3928053   6.851   6.888   4.274  0.6169  0.1645 -0.4445
   88MOL    H4028054   6.864   6.678   4.261  1.0291  0.4775 -0.0143
   88MOL    H4128055   6.620   6.692   4.383  0.9199  0.7959 -0.2297
   88MOL    H4228056   6.735   6.550   4.414  0.0036 -1.5761  3.0085
   88MOL    H4328057   6.739   6.587   4.650 -0.7299 -0.7503 -0.1090
   88MOL    H4428058   6.589   6.526   4.596 -0.0509 -0.0887  0.5556
   88MOL    H4528059   6.471   6.722   4.655 -0.0634 -2.4216 -2.7628
   88MOL    H4628060   6.623   6.814   4.665 -1.2508  0.9487 -3.0899
   88MOL    H4728061   6.589   6.683   4.783 -1.0062  0.2992 -0.2544
   88MOL    H4828062   6.743   6.900   4.269  0.5989 -1.0894 -4.9158
   88MOL    H4928063   6.904   6.965   4.331 -0.9399 -1.1949  2.9642
   88MOL    C5028064   6.889   6.908   4.122  0.1666 -0.1563 -0.0503
   88MOL    O5128065   6.802   6.825   4.047  0.4259  0.0107  0.3135
   88MOL    C5228066   6.856   6.730   3.961  0.0960  0.6362  0.3200
   88MOL    C5328067   6.747   6.686   3.875  1.1303 -0.6258 -0.3643
   88MOL    C5428068   6.791   6.579   3.779 -0.5308  0.0488 -0.6226
   88MOL    C5528069   6.863   7.052   4.073 -0.6811 -0.5221 -0.7637
   88MOL    H5628070   6.991   6.875   4.101  0.5962  1.7047 -1.0287
   88MOL    H5728071   6.938   6.781   3.911 -0.5146  0.6128 -0.7171
   88MOL    H5828072   6.889   6.648   4.025 -1.5369 -0.8566 -0.6741
   88MOL    H5928073   6.726   6.775   3.816 -1.6551 -0.7920  0.3012
   88MOL    H6028074   6.652   6.666   3.925 -0.9879  1.8367 -3.2387
   88MOL    H6128075   6.722   6.577   3.694  1.5146  0.3875 -2.3162
   88MOL    H6228076   6.786   6.480   3.824 -1.1450  0.1273 -0.5041
   88MOL    H6328077   6.894   6.585   3.745  0.3735  0.9869  2.1297
   88MOL    H6428078   6.865   7.048   3.964 -1.2198  1.2333 -0.8466
   88MOL    H6528079   6.761   7.076   4.102 -0.8519 -0.6489 -1.2603
   88MOL    C6628080   6.962   7.156   4.122  0.7117  0.1283 -0.4533
   88MOL    O6728081   7.065   7.160   4.024  0.3898  0.2935 -0.2930
   88MOL    C6828082   7.189   7.205   4.084 -0.3111  0.1644  0.1488
   88MOL    C6928083   7.292   7.249   3.982 -0.0377 -0.8919 -0.1924
   88MOL    C7028084   7.414   7.321   4.042  0.1008  0.6566  0.2345
   88MOL    C7128085   6.897   7.292   4.142 -0.0670 -0.3631 -0.5562
   88MOL    H7228086   7.007   7.119   4.215 -3.1133 -0.4311  1.2592
   88MOL    H7328087   7.176   7.284   4.158  0.5280  0.1600  0.3072
   88MOL    H7428088   7.217   7.123   4.150  0.7223 -0.0174 -0.5067
   88MOL    H7528089   7.241   7.328   3.926 -1.2224 -2.7714 -1.7918
   88MOL    H7628090   7.321   7.174   3.909  1.4497  2.7772 -3.5498
   88MOL    H7728091   7.382   7.401   4.110  2.1827  0.2917  1.6757
   88MOL    H7828092   7.480   7.361   3.965  0.2016  1.4967  0.7457
   88MOL    H7928093   7.478   7.252   4.095 -0.2506 -0.5798 -0.9285
   88MOL    H8028094   6.978   7.363   4.158 -0.4367 -0.3299  1.1890
   88MOL    H8128095   6.853   7.314   4.044 -2.3349 -1.2497  0.2303
   88MOL    C8228096   6.790   7.296   4.250  0.0734 -0.6511 -0.1665
   88MOL    O8328097   6.810   7.200   4.356  0.1312 -0.1125 -0.3254
   88MOL    C8428098   6.697   7.153   4.424  0.1422 -0.1299 -0.0503
   88MOL    C8528099   6.734   7.087   4.557  0.3714 -0.0638 -0.2235
   88MOL    C8628100   6.813   7.183   4.650  0.9461  0.1314  0.4953
   88MOL    C8728101   6.762   7.437   4.310 -0.2707 -0.2146 -0.2171
   88MOL    H8828102   6.699   7.252   4.209 -0.5684  0.7192 -0.2430
   88MOL    H8928103   6.632   7.239   4.444  1.1520  0.5160  0.5369
   88MOL    H9028104   6.633   7.090   4.363  0.6317  0.1327 -0.8475
   88MOL    H9128105   6.780   6.989   4.551  1.6436  0.1885  4.0060
   88MOL    H9228106   6.650   7.069   4.623  0.7995 -0.9149  0.0949
   88MOL    H9328107   6.763   7.280   4.659  1.0412  0.0939  1.5638
   88MOL    H9428108   6.912   7.199   4.609  0.6672 -3.5463 -1.7683
   88MOL    H9528109   6.837   7.137   4.746  2.1945  0.4745  0.3529
   88MOL    H9628110   6.755   7.432   4.419  0.3318 -3.3656 -0.2819
   88MOL    H9728111   6.847   7.504   4.301 -1.0330  0.9386  0.9701
   88MOL    C9828112   6.637   7.497   4.252 -0.1298 -0.3819 -0.2867
   88MOL    O9928113   6.532   7.410   4.282  0.1591 -0.2131  0.4903
   88MOL   C10028114   6.428   7.400   4.186  0.5195  1.1059  0.1867
   88MOL   C10128115   6.317   7.306   4.245 -0.5896  0.2123 -0.9036
   88MOL   C10228116   6.291   7.329   4.394  0.4646  0.1031  0.6587
   88MOL   C10328117   6.590   7.633   4.322  0.0174 -0.1518  0.2557
   88MOL   H10428118   6.650   7.504   4.144 -0.3479 -1.3095 -0.3800
   88MOL   H10528119   6.382   7.490   4.146 -0.7305  1.1554  1.7133
   88MOL   H10628120   6.477   7.355   4.100 -2.0303  0.3272 -0.8935
   88MOL   H10728121   6.357   7.206   4.230 -0.0712 -0.0656  2.0528
   88MOL   H10828122   6.239   7.326   4.173 -1.0488 -0.6125 -0.6384
   88MOL   H10928123   6.203   7.268   4.417  0.5222 -0.8467 -1.5371
   88MOL   H11028124   6.264   7.434   4.404 -2.5775 -0.5075 -0.5252
   88MOL   H11128125   6.364   7.303   4.471 -1.0375  0.1110  2.1235
   88MOL   H11228126   6.501   7.673   4.273 -0.0625 -1.0122 -0.3177
   88MOL   H11328127   6.547   7.606   4.418 -0.5467  0.3092  0.1316
   88MOL   C11428128   6.706   7.730   4.338 -0.0845 -0.5082  0.5472
   88MOL   O11528129   6.766   7.757   4.213 -0.3559 -0.4859  0.0702
   88MOL   C11628130   6.679   7.794   4.104  0.0838  0.3513  0.4129
   88MOL   C11728131   6.763   7.822   3.982  0.9134  1.0928 -0.5533
   88MOL   C11828132   6.864   7.712   3.948  0.7388  0.2685  0.0298
   88MOL   C11928133   6.691   0.034   4.418  0.4228 -1.0192 -1.1746
   88MOL   H12028134   6.788   7.679   4.389 -1.5488 -1.7347  1.7117
   88MOL   H12128135   6.601   7.722   4.078  0.7645  0.3531 -1.7620
   88MOL   H12228136   6.618   0.048   4.142 -2.3619 -1.4692  0.5496
   88MOL   H12328137   6.820   0.086   3.997 -0.2492  2.1441 -2.2914
   88MOL   H12428138   6.690   0.012   3.902 -0.3454  0.7640  0.5026
   88MOL   H12528139   6.924   7.756   3.868  2.4795  0.3317  1.3290
   88MOL   H12628140   6.818   7.621   3.910  0.1314 -0.4839  2.5128
   88MOL   H12728141   6.934   7.678   4.025  0.3314 -1.5042 -0.3591
   88MOL   H12828142   6.767   0.108   4.392 -0.9192  0.6768 -0.4374
   88MOL   H12928143   6.601   0.090   4.392  1.0161 -0.2698 -1.6296
   88MOL   C13028144   6.704   0.020   4.572 -0.9951 -0.5951  0.5625
   88MOL   O13128145   6.624   7.743   4.626  0.0705 -0.2406 -0.3638
   88MOL   C13228146   6.561   7.781   4.752  0.0115  0.0890  0.0803
   88MOL   C13328147   6.477   7.667   4.801 -0.0300  0.7147 -0.0876
   88MOL   C13428148   6.376   7.610   4.696  0.1284 -0.0124 -0.5207
   88MOL   C13528149   6.849   0.015   4.630  0.5666 -0.4694 -0.8977
   88MOL   H13628150   6.668   0.112   4.618 -1.0520  0.0331 -0.6966
   88MOL   H13728151   6.644   7.797   4.821  0.6538  1.3033 -0.9504
   88MOL   H13828152   6.502   0.045   4.749 -1.9303 -1.1490 -0.7446
   88MOL   H13928153   6.423   7.677   4.895  3.3488  0.4082  1.9944
   88MOL   H14028154   6.541   7.584   4.833 -1.5629 -0.8765 -1.0266
   88MOL   H14128155   6.321   7.536   4.753  0.4199 -0.3411 -0.6616
   88MOL   H14228156   6.434   7.556   4.621 -0.0833  0.0190 -0.7065
   88MOL   H14328157   6.305   7.681   4.653 -2.2266 -1.9636  0.0402
   88MOL   H14428158   6.849   7.796   4.728  0.4298 -0.3647 -0.8470
   88MOL   H14528159   6.901   7.770   4.568 -0.1051 -0.9169 -0.9358
   88MOL   C14628160   6.936   0.149   4.637  0.2694  0.2667  0.3265
   88MOL   O14728161   6.897   0.224   4.746  0.0288  0.2728  0.3314
   88MOL   C14828162   6.831   0.347   4.716  0.2558 -0.7773 -0.0292
   88MOL   C14928163   6.774   0.389   4.853 -0.3322  0.4559  0.7927
   88MOL   C15028164   6.886   0.416   4.955 -0.3902  0.0588 -0.0846
   88MOL   C15128165   7.078   0.116   4.675 -0.2666 -0.2471 -0.3745
   88MOL   H15228166   6.927   0.206   4.545  1.0436 -3.0671 -1.8976
   88MOL   H15328167   6.904   0.424   4.692 -1.0668  0.0633 -1.4451
   88MOL   H15428168   6.759   0.346   4.634  0.0055  1.3377  0.1188
   88MOL   H15528169   6.695   0.330   4.899  0.2521 -1.9091 -1.1454
   88MOL   H15628170   6.727   0.485   4.830  1.4411  1.2542  0.4459
   88MOL   H15728171   6.844   0.429   5.055  2.2992  1.4358  0.9197
   88MOL   H15828172   6.945   0.502   4.924 -0.2107  0.1840  0.5875
   88MOL   H15928173   6.956   0.333   4.967 -0.0504  0.1633 -1.2959
   88MOL   H16028174   7.128   0.206   4.709  0.2510  0.1823 -2.2030
   88MOL   H16128175   7.075   0.037   4.750 -1.1430  1.5073  1.4878
   88MOL   C16228176   7.169   0.058   4.559  0.7562 -0.3148 -0.6514
   88MOL   O16328177   7.212   0.172   4.486 -0.6210  0.6243 -0.2023
   88MOL   C16428178   7.181   0.165   4.349  0.3696  0.7346 -0.4950
   88MOL   C16528179   7.275   0.268   4.284 -0.8954 -0.8055 -0.2256
   88MOL   C16628180   7.423   0.242   4.314 -0.4682  0.2545  0.1060
   88MOL   C16728181   7.296   7.809   4.595 -0.7870 -0.7809  0.1453
   88MOL   H16828182   7.114   7.820   4.492  0.3720  0.2100 -0.8545
   88MOL   H16928183   7.208   0.070   4.303 -0.2888  0.2706  0.0493
   88MOL   H17028184   7.078   0.190   4.323 -0.7814  0.3979  3.3895
   88MOL   H17128185   7.244   0.369   4.309 -1.9300 -1.4031  0.9743
   88MOL   H17228186   7.263   0.259   4.176 -0.3712 -0.6318 -0.3021
   88MOL   H17328187   7.473   0.335   4.341  1.1514 -0.3762 -0.6598
   88MOL   H17428188   7.478   0.207   4.227  0.5836 -1.9993  1.5914
   88MOL   H17528189   7.448   0.173   4.395  1.6231 -0.6429 -1.2542
   88MOL   H17628190   7.364   7.812   4.509 -1.4179 -1.5173 -0.3896
   88MOL   H17728191   7.358   0.044   4.659  0.1189  1.1796 -2.5628
   88MOL   C17828192   7.282   7.662   4.638  0.0642 -0.1817  0.0747
   88MOL   O17928193   7.257   7.574   4.529  0.0314 -0.7442  0.2055
   88MOL   C18028194   7.123   7.512   4.533 -0.0271  0.0993 -1.1867
   88MOL   C18128195   7.110   7.395   4.437  0.2283  0.7108 -0.2839
   88MOL   C18228196   7.212   7.288   4.468 -0.0729  0.8123 -0.1452
   88MOL   C18328197   7.407   7.614   4.706  0.2130 -0.1261 -1.0295
   88MOL   H18428198   7.201   7.660   4.710 -1.3320  1.6563 -1.3952
   88MOL   H18528199   7.103   7.475   4.634  1.3277  0.4762 -0.7758
   88MOL   H18628200   7.042   7.580   4.506 -0.5672 -0.0288  0.0503
   88MOL   H18728201   7.118   7.425   4.333 -0.2388  2.6346  0.2133
   88MOL   H18828202   7.011   7.349   4.446  0.0981  1.3032  1.6643
   88MOL   H18928203   7.314   7.316   4.444  0.4364 -0.1945  0.8342
   88MOL   H19028204   7.194   7.207   4.396  3.0543  0.1593 -0.2488
   88MOL   H19128205   7.205   7.242   4.566 -1.3597 -1.8379 -1.4199
   88MOL   H19228206   7.491   7.632   4.639 -0.0681  1.5588 -0.9518
   88MOL   H19328207   7.417   7.672   4.798 -2.8159 -0.8255 -0.2192
   88MOL   C19428208   7.408   7.467   4.747 -0.5064  0.3039 -0.2585
   88MOL   O19528209   7.535   7.425   4.801 -0.1595  0.0228 -0.3164
   88MOL   C19628210   7.594   7.311   4.741  0.2638 -0.3824  0.1779
   88MOL   C19728211   7.736   7.290   4.799  0.1683  0.1680  0.8750
   88MOL   C19828212   0.006   7.383   4.731 -0.6600  0.4701 -0.6292
   88MOL   C19928213   7.315   7.421   4.864  0.3799 -0.2227 -0.1681
   88MOL   H20028214   7.384   7.404   4.662 -1.4933  1.9306 -1.2076
   88MOL   H20128215   7.523   7.230   4.754 -0.2041 -0.3322 -1.8915
   88MOL   H20228216   7.589   7.317   4.632 -0.1183 -0.2778  0.2038
   88MOL   H20328217   7.771   7.189   4.775 -1.1350  0.2002 -1.3032
   88MOL   H20428218   7.728   7.304   4.907  0.6939  2.5243  0.6501
   88MOL   H20528219   0.020   7.358   4.625  0.5227 -1.0889 -0.1147
   88MOL   H20628220   0.102   7.382   4.781 -1.5633  0.4676  1.1496
   88MOL   H20728221   7.795   7.483   4.753  0.7380  0.8213  0.2359
   88MOL   H20828222   7.211   7.447   4.846  0.6074  1.0890  0.3246
   88MOL   H20928223   7.310   7.313   4.871 -2.3642 -0.0517  0.9260
   88MOL   C21028224   7.347   7.473   5.001  0.4783  0.1395  0.6310
   88MOL   O21128225   7.291   7.606   5.012 -0.5163 -0.0094  0.0481
   88MOL   C21228226   7.328   7.702   5.117  0.5395  0.1837  0.1592
   88MOL   C21328227   7.297   0.011   5.062  0.1618  0.0099 -0.3732
   88MOL   C21428228   7.148   0.040   5.060 -0.7521  0.2634  0.4670
   88MOL   C21528229   7.288   7.393   5.120  0.4636 -0.3761  0.3281
   88MOL   H21628230   7.452   7.486   5.024  0.4774 -1.2239  1.4285
   88MOL   H21728231   7.286   7.682   5.215  1.5427  1.1995  0.8087
   88MOL   H21828232   7.436   7.695   5.131  0.8717  2.5816 -0.8569
   88MOL   H21928233   7.334   0.030   4.961 -0.9982  0.6015 -0.7006
   88MOL   H22028234   7.334   0.096   5.120  0.9427 -1.2241  0.9636
   88MOL   H22128235   7.127   0.142   5.028 -1.7095 -0.1943 -0.4294
   88MOL   H22228236   7.101   0.005   5.152  1.8011 -1.2339  1.2403
   88MOL   H22328237   7.101   7.800   4.988  0.3078  0.7085 -0.6598
   88MOL   H22428238   7.282   7.457   5.208  3.6345  2.0108 -1.1253
   88MOL   H22528239   7.191   7.356   5.088  0.2896 -0.5643  1.0588
   88MOL   C22628240   7.369   7.268   5.163  0.0458  0.1298 -0.0377
   88MOL   O22728241   7.320   7.210   5.282  0.5136  0.0475 -0.0690
   88MOL   C22828242   7.380   7.267   5.396  0.0151  0.0722  0.4168
   88MOL   C22928243   7.280   7.273   5.510 -0.3722  0.5394  0.3648
   88MOL   C23028244   7.152   7.358   5.499  0.1112  0.1337 -0.1167
   88MOL   C23128245   7.386   7.159   5.064 -0.9560  0.2461 -0.2095
   88MOL   H23228246   7.473   7.299   5.174  0.2990 -0.3598 -0.9906
   88MOL   H23328247   7.468   7.205   5.414  0.2402  0.3093  0.1488
   88MOL   H23428248   7.422   7.368   5.393  0.6767 -0.2106  0.1224
   88MOL   H23528249   7.340   7.299   5.597 -0.4986  1.8583  0.0709
   88MOL   H23628250   7.247   7.170   5.523 -0.1911  0.4882  0.4188
   88MOL   H23728251   7.092   7.339   5.588 -0.4762  2.2084 -0.0453
   88MOL   H23828252   7.090   7.329   5.414 -0.1024 -1.1369  0.4672
   88MOL   H23928253   7.170   7.465   5.512  0.8251 -0.0724  0.6201
   88MOL   H24028254   7.290   7.116   5.037 -0.3015 -2.0255  0.9482
   88MOL   H24128255   7.425   7.187   4.966  0.2030 -0.3815  0.0608
   88MOL   C24228256   7.473   7.035   5.099 -0.2154  0.2768 -0.8297
   88MOL   O24328257   7.447   6.943   4.998 -0.1495 -0.1947 -0.2327
   88MOL   C24428258   7.451   6.810   5.040  0.3346  0.6041 -0.8315
   88MOL   C24528259   7.470   6.720   4.926 -1.3182  0.0797  0.8104
   88MOL   C24628260   7.596   6.756   4.846  0.4478  0.2318  0.1151
   88MOL   C24728261   7.623   7.076   5.091  0.1730 -0.1485  0.7406
   88MOL   H24828262   7.437   7.004   5.197  1.0462  0.6605 -0.2413
   88MOL   H24928263   7.526   6.782   5.115  2.9934  1.0121 -3.2296
   88MOL   H25028264   7.351   6.781   5.071  0.7575  0.8056  0.7468
   88MOL   H25128265   7.386   6.722   4.855 -0.0940 -0.2139 -0.6690
   88MOL   H25228266   7.458   6.616   4.954 -0.4514 -0.1216  0.4355
   88MOL   H25328267   7.626   6.696   4.760  3.1276  0.8387  0.5755
   88MOL   H25428268   7.683   6.734   4.907  1.1553 -3.1304 -1.9552
   88MOL   H25528269   7.591   6.861   4.818  1.4815  0.5393  1.0829
   88MOL   H25628270   7.655   7.052   4.990  3.2543  0.4039  1.5310
   88MOL   H25728271   7.630   7.185   5.092 -0.3878 -0.0129 -3.3493
   88MOL   C25828272   7.722   6.997   5.189  0.1385  0.6602  0.6627
   88MOL   O25928273   0.026   7.036   5.163 -0.7612  0.3910  0.1967
   88MOL   C26028274   0.081   6.977   5.051 -0.1007  0.0802  0.3314
   88MOL   C26128275   0.215   7.051   5.034  0.0625  0.0119  0.1274
   88MOL   C26228276   0.198   7.196   5.009  0.1945  0.4841  0.7927
   88MOL   C26328277   7.681   7.020   5.339 -0.2054 -0.5878  0.1260
   88MOL   H26428278   7.705   6.891   5.171 -0.7142  0.9942 -0.5454
   88MOL   H26528279   0.098   6.873   5.079 -0.4681  0.0931  0.5985
   88MOL   H26628280   0.016   6.988   4.964 -1.3032  1.8639  1.4414
   88MOL   H26728281   0.274   7.009   4.952  1.9320  1.4005  0.7124
   88MOL   H26828282   0.272   7.024   5.123 -0.7531 -2.1256  0.0163
   88MOL   H26928283   0.134   7.247   5.081  0.2016  0.7838  0.5894
   88MOL   H27028284   0.158   7.223   4.911 -0.7005  2.3545  1.6443
   88MOL   H27128285   0.296   7.244   5.018  1.1217 -0.8571 -1.7470
   88MOL   H27228286   7.676   7.128   5.356 -1.2011 -0.3935 -1.2700
   88MOL   H27328287   7.583   6.979   5.362 -0.7669  0.5788 -0.1434
   88MOL   C27428288   7.774   6.956   5.440 -0.3477 -0.9811 -0.5293
   88MOL   O27528289   7.824   7.060   5.516  0.0739  0.2496  0.3245
   88MOL   C27628290   0.099   7.140   5.455 -0.2589  0.5720 -0.2380
   88MOL   C27728291   0.159   7.243   5.550 -0.0413  0.0623  0.4076
   88MOL   C27828292   0.230   7.362   5.478  0.0976  0.3743 -0.3402
   88MOL   C27928293   7.702   6.876   5.548  0.2199 -0.0214  0.0120
   88MOL   H28028294   0.021   6.894   5.391  0.1697 -0.9569  0.2217
   88MOL   H28128295   0.174   7.068   5.420  0.7727  1.2063  0.6268
   88MOL   H28228296   0.059   7.179   5.362  0.7637 -3.2615 -2.4218
   88MOL   H28328297   0.233   7.203   5.619  0.4763 -0.5351 -0.4751
   88MOL   H28428298   0.070   7.278   5.602  0.0629 -0.2566  0.7996
   88MOL   H28528299   0.157   7.409   5.411 -0.9781  2.4392  2.2189
   88MOL   H28628300   0.316   7.328   5.420  0.6863 -0.1295  0.8217
   88MOL   H28728301   0.270   7.442   5.541 -1.5748  1.2052 -0.3000
   88MOL   H28828302   7.775   6.850   5.624  1.3681 -1.4535 -1.5564
   88MOL   H28928303   7.630   6.935   5.606  0.2512  1.1790 -1.1314
   88MOL   C29028304   7.642   6.742   5.501  0.2024 -0.6559  0.0210
   88MOL   O29128305   7.744   6.663   5.451  0.2218  0.3608  0.0871
   88MOL   C29228306   7.697   6.557   5.369  0.3562  0.3346 -0.1566
   88MOL   C29328307   7.756   6.573   5.228 -0.2165 -0.3729  0.0936
   88MOL   C29428308   0.050   6.484   5.195 -0.1507 -0.7720  0.0120
   88MOL   C29528309   7.567   6.666   5.613  0.4334  0.4267 -0.0433
   88MOL   H29628310   7.583   6.770   5.414  1.8086 -2.3032 -1.6195
   88MOL   H29728311   7.726   6.475   5.434 -0.7915  1.0904  1.3609
   88MOL   H29828312   7.589   6.562   5.361  0.1772 -1.1817  1.0867
   88MOL   H29928313   7.770   6.680   5.217  0.0499 -0.4410 -0.2201
   88MOL   H30028314   7.688   6.559   5.144 -0.7365 -0.8185  0.5810
   88MOL   H30128315   0.098   6.519   5.104 -1.1437 -2.0420 -1.0399
   88MOL   H30228316   0.014   6.382   5.178 -1.4008 -0.2063 -0.9018
   88MOL   H30328317   0.125   6.488   5.274  0.5780  0.0608 -0.7195
   88MOL   H30428318   7.559   6.561   5.581 -0.4848  0.2548  0.7577
   88MOL   H30528319   7.625   6.659   5.705  0.3395 -0.3315 -0.0337
   88MOL   C30628320   7.435   6.729   5.661 -0.1956 -0.5657 -0.2935
   88MOL   O30728321   7.345   6.711   5.554 -0.3255 -0.3132  0.3821
   88MOL   C30828322   7.262   6.828   5.528  0.4485  0.2764  0.2971
   88MOL   C30928323   7.194   6.806   5.392 -0.2510 -0.4360 -0.5481
   88MOL   C31028324   7.125   6.929   5.330 -0.4382 -0.3953  0.7603
   88MOL   C31128325   7.381   6.660   5.779  0.3338 -0.0346 -0.9361
   88MOL   H31228326   7.435   6.835   5.686 -0.3582 -1.0800  1.9876
   88MOL   H31328327   7.190   6.838   5.609  0.0320 -0.8675  0.0845
   88MOL   H31428328   7.318   6.921   5.523  1.2169 -0.3145 -4.3149
   88MOL   H31528329   7.113   6.732   5.394 -0.3940 -0.2517  1.8298
   88MOL   H31628330   7.265   6.774   5.316  0.3864 -0.3336  0.0026
   88MOL   H31728331   7.087   6.897   5.234  1.0485  0.0547  0.0012
   88MOL   H31828332   7.199   7.009   5.318  0.5934 -1.2298  1.4163
   88MOL   H31928333   7.051   6.975   5.396  1.1609 -1.5765  3.4595
   88MOL   H32028334   7.285   6.697   5.816  0.4594  0.7921 -1.4225
   88MOL   H32128335   7.355   6.559   5.749 -1.7959  0.7428 -1.8822
   88MOL   H32228336   7.441   6.669   5.870 -1.7696 -0.3495  0.5350
   89MOL     C128337   7.763   1.010   0.250  0.0341 -0.1582  0.3130
   89MOL     O228338   0.049   1.008   0.339 -0.2480 -0.0326 -0.1654
   89MOL     C328339   0.026   0.960   0.469 -0.5737  0.0112  0.2354
   89MOL     C428340   0.161   0.939   0.539  0.4466  0.7005  0.1048
   89MOL     C528341   0.250   1.063   0.560  0.4806  0.0968  0.1115
   89MOL     C628342   7.792   1.121   0.146  0.1977  0.3076 -0.0864
   89MOL     H728343   7.670   1.032   0.303  0.9723 -0.9897  2.3935
   89MOL     H828344   7.795   1.034   0.525 -1.8398 -1.2882  0.6472
   89MOL     H928345   7.796   0.868   0.466  0.2548 -0.5409  0.8634
   89MOL    H1028346   0.215   0.860   0.487  0.8360  1.1878 -0.2343
   89MOL    H1128347   0.136   0.901   0.638  1.6252 -3.4037 -1.0583
   89MOL    H1228348   0.322   1.027   0.633  0.5188  0.2921  0.1683
   89MOL    H1328349   0.200   1.143   0.614  0.3585  0.2946 -0.2893
   89MOL    H1428350   0.309   1.086   0.471  1.1155  0.3085  0.5848
   89MOL    H1528351   7.761   1.212   0.197 -1.3330 -0.8745  1.1184
   89MOL    H1628352   0.070   1.139   0.126 -0.0129 -0.8176 -2.4108
   89MOL    H1728353   7.759   0.909   0.208 -0.2814  0.1088 -0.3039
   89MOL    C1828354   7.713   1.096   0.023 -0.2363  0.0152  0.2829
   89MOL    O1928355   7.575   1.105   0.061 -0.4452  0.2477 -0.4643
   89MOL    C2028356   7.490   1.039   7.794 -0.0472 -0.2510  0.5235
   89MOL    C2128357   7.379   0.986   0.065 -0.3580  0.3593  0.2552
   89MOL    C2228358   7.299   1.093   0.139  0.3759  0.1175  0.1636
   89MOL    C2328359   7.739   1.226   7.768  0.2409 -0.0351 -0.0417
   89MOL    H2428360   7.738   0.999   7.806 -0.1088 -0.2274  0.8780
   89MOL    H2528361   7.449   1.104   7.717  2.1778 -0.2254 -0.6808
   89MOL    H2628362   7.534   0.952   7.745 -0.7064  0.0112 -0.5476
   89MOL    H2728363   7.430   0.919   0.135 -0.8305 -1.0163 -0.7026
   89MOL    H2828364   7.298   0.926   0.025 -0.1778  0.1414  0.2173
   89MOL    H2928365   7.226   1.043   0.203  0.3857 -2.2946 -1.6476
   89MOL    H3028366   7.264   1.165   0.065 -1.5303 -2.4045 -1.4858
   89MOL    H3128367   7.363   1.144   0.211  2.1343 -0.4443 -0.9739
   89MOL    H3228368   7.661   1.229   7.691 -0.3747  1.4076  0.6230
   89MOL    H3328369   7.729   1.317   0.000  0.5702  1.5992 -2.3605
   89MOL    C3428370   0.051   1.216   7.681 -0.1370  0.1023 -0.2020
   89MOL    O3528371   0.016   1.109   7.591 -0.0342  0.6039  0.2394
   89MOL    C3628372   0.122   1.013   7.575  0.4393  0.1081  0.2355
   89MOL    C3728373   0.059   0.889   7.499  0.0256 -0.4696 -1.0195
   89MOL    C3828374   7.784   0.809   7.589  0.4470  0.5545  0.5180
   89MOL    C3928375   0.076   1.353   7.606 -0.3932 -0.0863  0.5338
   89MOL    H4028376   0.132   1.190   7.750 -0.5991 -0.4351  0.1408
   89MOL    H4128377   0.203   1.059   7.518 -0.9471  1.2527 -0.8374
   89MOL    H4228378   0.165   0.973   7.668  1.0195 -1.5622 -0.7300
   89MOL    H4328379   0.137   0.822   7.464 -0.9850 -1.6335 -1.0778
   89MOL    H4428380   0.003   0.922   7.412 -1.6949 -3.1281 -0.9863
   89MOL    H4528381   7.679   0.835   7.574  0.0873 -0.9316  0.3786
   89MOL    H4628382   7.806   0.814   7.696  1.2209 -0.5937  0.4228
   89MOL    H4728383   7.787   0.703   7.566  1.3542  0.6423  0.2033
   89MOL    H4828384   7.817   1.371   7.544  0.9076  1.9735 -0.7559
   89MOL    H4928385   0.073   1.429   7.684  1.0031  0.2495  0.2833
   89MOL    C5028386   0.210   1.361   7.529 -0.0337  0.2821 -0.0723
   89MOL    O5128387   0.193   1.479   7.451 -0.1323  0.2039 -0.1406
   89MOL    C5228388   0.216   1.465   7.308  0.3368 -0.4247 -0.3136
   89MOL    C5328389   0.162   1.595   7.227  0.2400 -0.1331 -0.2032
   89MOL    C5428390   0.155   1.582   7.075  0.2220 -0.2450 -0.3763
   89MOL    C5528391   0.335   1.361   7.596 -0.3001 -0.4696  0.2170
   89MOL    H5628392   0.203   1.280   7.457 -3.5617 -1.0249  1.6839
   89MOL    H5728393   0.321   1.443   7.289  0.1447 -1.3643 -0.3163
   89MOL    H5828394   0.154   1.384   7.269  2.0411 -1.8452 -0.1236
   89MOL    H5928395   0.238   1.671   7.245 -0.3830  0.2174  0.9882
   89MOL    H6028396   0.072   1.636   7.273  1.9349  0.1885  2.9710
   89MOL    H6128397   0.248   1.553   7.026 -0.7142  0.9536 -2.9384
   89MOL    H6228398   0.137   1.680   7.031 -1.7819 -1.1127 -1.5613
   89MOL    H6328399   0.068   1.518   7.062 -0.6827  0.5380  1.6475
   89MOL    H6428400   0.355   1.270   7.654 -0.4992 -0.6776 -0.0420
   89MOL    H6528401   0.410   1.366   7.518  1.7942 -1.2394  2.1149
   89MOL    C6628402   0.342   1.480   7.707  0.5734  0.4863  0.3178
   89MOL    O6728403   0.314   1.412   7.827  0.2393 -0.4817 -0.2852
   89MOL    C6828404   0.245   1.493   0.088 -0.1489 -0.3167  0.1564
   89MOL    C6928405   0.227   1.417   0.214  0.4440 -0.3713  0.0633
   89MOL    C7028406   0.352   1.410   0.301 -0.9916 -0.2063  0.1866
   89MOL    C7128407   0.481   1.535   7.720  0.1634  0.9796 -0.7601
   89MOL    H7228408   0.273   1.561   7.682  0.5682 -0.2622 -2.2782
   89MOL    H7328409   0.308   1.578   0.113  0.7924 -1.0138  0.1672
   89MOL    H7428410   0.155   1.518   0.032  0.8146  0.6289 -0.9832
   89MOL    H7528411   0.176   1.323   0.193 -2.3992  0.8070  1.3893
   89MOL    H7628412   0.155   1.474   0.274 -0.9741 -1.2775 -0.7516
   89MOL    H7728413   0.368   1.510   0.340  1.5549 -0.3335 -0.4368
   89MOL    H7828414   0.436   1.394   0.234 -0.8393 -0.7707  0.5066
   89MOL    H7928415   0.345   1.337   0.382  1.1231 -2.2942 -1.4690
   89MOL    H8028416   0.494   1.595   7.810  4.5301  2.9097 -2.5193
   89MOL    H8128417   0.552   1.453   7.735 -1.5830 -0.0249  2.5735
   89MOL    C8228418   0.515   1.622   7.595  0.8505 -0.0245 -0.0179
   89MOL    O8328419   0.461   1.747   7.618  0.0750  0.6786 -0.7179
   89MOL    C8428420   0.407   1.805   7.499 -0.5450 -0.5466  0.6569
   89MOL    C8528421   0.357   1.944   7.537  0.6771  0.7427 -0.3034
   89MOL    C8628422   0.277   2.010   7.422 -0.4534 -0.4953  0.0539
   89MOL    C8728423   0.666   1.645   7.576 -0.5208  0.1483 -0.6835
   89MOL    H8828424   0.474   1.581   7.503  0.3226 -0.2610  0.3256
   89MOL    H8928425   0.491   1.816   7.430  0.0797  1.6770  1.7324
   89MOL    H9028426   0.322   1.764   7.443 -1.2232  1.7458 -0.0619
   89MOL    H9128427   0.444   2.006   7.558  0.9465  0.6458 -1.0987
   89MOL    H9228428   0.292   1.930   7.623 -0.3541  0.7130 -1.0794
   89MOL    H9328429   0.176   1.969   7.415 -0.1328 -1.1758 -0.7262
   89MOL    H9428430   0.325   2.016   7.324 -0.1626  1.1920  0.2849
   89MOL    H9528431   0.259   2.110   7.460 -4.2173  0.2749 -3.3966
   89MOL    H9628432   0.685   1.747   7.540  1.5729  0.6604  1.6649
   89MOL    H9728433   0.716   1.653   7.673 -1.0292 -1.0857 -0.3148
   89MOL    C9828434   0.740   1.545   7.487 -0.1558  0.6740 -0.5909
   89MOL    O9928435   0.728   1.587   7.353 -0.6244 -0.0396  0.4624
   89MOL   C10028436   0.668   1.501   7.254 -0.3615 -0.0012 -0.0829
   89MOL   C10128437   0.711   1.552   7.111 -0.2065  0.6377 -0.2653
   89MOL   C10228438   0.591   1.592   7.028 -0.1706  0.1439  0.6011
   89MOL   C10328439   0.885   1.531   7.522 -0.2040  0.4219 -0.0834
   89MOL   H10428440   0.691   1.448   7.497  1.4156 -0.4273 -3.0841
   89MOL   H10528441   0.694   1.396   7.258 -1.5645 -0.3406 -0.8647
   89MOL   H10628442   0.559   1.504   7.260 -0.4103 -1.9400  0.1820
   89MOL   H10728443   0.776   1.477   7.066 -0.9619 -1.4466  1.9598
   89MOL   H10828444   0.784   1.632   7.115  0.6175 -0.1685  2.9308
   89MOL   H10928445   0.519   1.511   7.028  1.0746 -0.9632 -0.3817
   89MOL   H11028446   0.626   1.610   6.927  0.3171 -1.3922  0.4950
   89MOL   H11128447   0.544   1.682   7.069  1.9087  2.4493 -1.8799
   89MOL   H11228448   0.940   1.503   7.432  0.7624  1.4373  0.1881
   89MOL   H11328449   0.925   1.630   7.543  0.1075  0.7438 -2.1313
   89MOL   C11428450   0.894   1.431   7.644 -0.1213 -0.2013  0.6248
   89MOL   O11528451   0.866   1.294   7.594 -0.1942 -0.2042  0.1847
   89MOL   C11628452   0.770   1.214   7.668  0.3979 -0.1222 -0.1136
   89MOL   C11728453   0.740   1.089   7.586  0.2161  1.1544 -0.0845
   89MOL   C11828454   0.623   1.092   7.485 -0.4651 -0.9844  0.2254
   89MOL   C11928455   1.034   1.419   7.707  0.3795  0.3025  0.5923
   89MOL   H12028456   0.823   1.450   7.723 -1.5846  2.0516 -1.1658
   89MOL   H12128457   0.810   1.184   7.765 -0.2754 -0.8897 -0.0636
   89MOL   H12228458   0.674   1.264   7.683  0.4515 -0.2430  0.6571
   89MOL   H12328459   0.729   1.007   7.657  0.9158  0.8258 -0.3429
   89MOL   H12428460   0.830   1.070   7.528 -0.7540 -0.5926 -1.0562
   89MOL   H12528461   0.627   1.179   7.420 -2.1978  0.0096  1.3970
   89MOL   H12628462   0.523   1.097   7.529 -0.5354 -0.8925  0.0545
   89MOL   H12728463   0.612   1.008   7.417 -0.9109 -0.9955  0.3097
   89MOL   H12828464   1.064   1.314   7.703 -2.2993 -0.4738 -0.7271
   89MOL   H12928465   1.103   1.463   7.635  1.4918 -3.7241 -0.9457
   89MOL   C13028466   1.053   1.482   0.022 -0.1920  0.1108 -0.6322
   89MOL   O13128467   0.939   1.443   0.098  0.5357  0.2294  0.4547
   89MOL   C13228468   0.855   1.551   0.148 -0.7954 -0.0376  0.7321
   89MOL   C13328469   0.721   1.493   0.199 -0.1518 -0.5387  0.1141
   89MOL   C13428470   0.746   1.422   0.332 -0.6326  0.4148 -1.0658
   89MOL   C13528471   1.179   1.443   0.093 -0.1374  0.4248  0.6118
   89MOL   H13628472   1.053   1.590   0.032 -1.2486  0.2712 -2.1331
   89MOL   H13728473   0.890   1.623   0.223  0.9077  0.8054 -0.8251
   89MOL   H13828474   0.838   1.615   0.062 -2.5351  0.6812  1.5877
   89MOL   H13928475   0.684   1.436   0.114  1.6336 -2.3992  0.5480
   89MOL   H14028476   0.650   1.569   0.231 -1.9730 -1.9367 -0.5331
   89MOL   H14128477   0.650   1.381   0.363 -1.0242  1.8983 -0.2818
   89MOL   H14228478   0.795   1.494   0.398  5.0138 -1.6631 -2.6451
   89MOL   H14328479   0.822   1.350   0.300 -0.6578  1.6579 -4.0786
   89MOL   H14428480   1.173   1.483   0.194  0.2738  0.8494  0.4699
   89MOL   H14528481   1.175   1.335   0.109 -3.5758  0.2420 -0.9814
   89MOL   C14628482   1.304   1.485   0.024 -0.5708  0.4065 -0.0024
   89MOL   O14728483   1.300   1.624   0.027  0.4764 -0.1621  0.0705
   89MOL   C14828484   1.366   1.691   7.749 -0.1047 -0.3372  0.7571
   89MOL   C14928485   1.349   1.843   7.774 -0.1053  0.8879 -0.7139
   89MOL   C15028486   1.435   1.894   0.068  0.1830 -0.0417 -0.7926
   89MOL   C15128487   1.430   1.435   0.091  0.7989  0.0063 -0.0003
   89MOL   H15228488   1.296   1.444   7.751  1.0307 -0.4257  0.1913
   89MOL   H15328489   1.474   1.681   7.745  0.1384  2.4635 -1.4446
   89MOL   H15428490   1.326   1.665   7.651  0.1036 -1.2864  0.9218
   89MOL   H15528491   1.246   1.851   7.808  0.6892 -0.6024  2.1570
   89MOL   H15628492   1.368   1.905   7.686  0.8790 -2.0710 -2.6689
   89MOL   H15728493   1.428   1.837   0.160  0.7808 -2.5526 -2.2570
   89MOL   H15828494   1.419   2.001   0.082  0.7488 -0.1643  0.9265
   89MOL   H15928495   1.539   1.888   0.037  0.5656  0.9250  0.2480
   89MOL   H16028496   1.523   1.478   0.052  0.5669  0.0165 -0.5449
   89MOL   H16128497   1.426   1.489   0.186  0.9300  0.3730 -0.2031
   89MOL   C16228498   1.447   1.276   0.110 -0.1676 -0.1748  0.3496
   89MOL   O16328499   1.447   1.228   7.798 -0.1557 -0.0512 -0.0049
   89MOL   C16428500   1.384   1.103   7.789  0.3828  0.1713 -0.2382
   89MOL   C16528501   1.431   1.020   7.671  0.2403  0.1973  0.5905
   89MOL   C16628502   1.555   0.930   7.694  0.1042  0.2574  0.2184
   89MOL   C16728503   1.577   1.239   0.188  0.8717 -0.4975 -0.5138
   89MOL   H16828504   1.363   1.238   0.169  0.1736 -0.9767  0.3274
   89MOL   H16928505   1.396   1.042   0.051 -0.8670 -0.7940 -0.7180
   89MOL   H17028506   1.279   1.133   7.787  0.1413 -0.5246  1.0316
   89MOL   H17128507   1.456   1.086   7.588 -0.2958 -1.8368 -1.2498
   89MOL   H17228508   1.346   0.964   7.633  2.0648 -0.8018 -2.2303
   89MOL   H17328509   1.572   0.865   7.608 -1.9063 -1.4142  1.0517
   89MOL   H17428510   1.570   0.869   7.782 -1.7329  1.4239  1.3644
   89MOL   H17528511   1.647   0.989   7.698  0.2607 -0.0696  1.2879
   89MOL   H17628512   1.596   1.133   0.176  2.3506 -0.4653  1.3328
   89MOL   H17728513   1.661   1.282   0.133  1.4350 -2.1439 -0.9584
   89MOL   C17828514   1.584   1.277   0.339 -0.4477 -0.3273  0.2381
   89MOL   O17928515   1.495   1.193   0.399 -0.4265 -0.0125  0.2829
   89MOL   C18028516   1.380   1.253   0.437 -0.4297  0.7881  0.0567
   89MOL   C18128517   1.269   1.166   0.484  0.2137 -0.7244  0.4079
   89MOL   C18228518   1.222   1.055   0.378  0.2789  0.4105 -0.5069
   89MOL   C18328519   1.726   1.243   0.388 -1.5640 -0.0981 -0.4958
   89MOL   H18428520   1.566   1.383   0.356 -1.3992 -0.5429  0.5984
   89MOL   H18528521   1.401   1.314   0.524  0.5291  1.4747 -0.6507
   89MOL   H18628522   1.336   1.312   0.357  2.8375  1.0613 -1.6145
   89MOL   H18728523   1.187   1.231   0.516  3.2183  2.6439  1.5095
   89MOL   H18828524   1.306   1.114   0.572  0.1107 -1.4438  0.0337
   89MOL   H18928525   1.302   1.017   0.315  0.2235 -1.3290  0.4502
   89MOL   H19028526   1.150   1.091   0.305  0.0152 -0.3473 -0.6127
   89MOL   H19128527   1.184   0.970   0.435  3.5972 -0.2267  0.8803
   89MOL   H19228528   1.740   1.135   0.384  1.4316  0.2133  0.2487
   89MOL   H19328529   1.802   1.274   0.316 -2.1723 -0.9716 -1.5248
   89MOL   C19428530   1.777   1.296   0.523 -0.1409 -0.3716  0.2271
   89MOL   O19528531   1.755   1.441   0.528  0.1703  0.5734  0.7410
   89MOL   C19628532   1.836   1.508   0.434  0.1369 -0.1858 -0.2263
   89MOL   C19728533   1.806   1.655   0.444  0.7301 -0.1531  0.1232
   89MOL   C19828534   1.654   1.687   0.438  0.3808 -0.1538  0.0695
   89MOL   C19928535   1.700   1.252   0.646  0.2510 -1.1030  0.8677
   89MOL   H20028536   1.883   1.274   0.535  0.4739  3.0305  1.7392
   89MOL   H20128537   1.943   1.490   0.448 -0.4939 -4.4681 -0.3012
   89MOL   H20228538   1.811   1.482   0.331 -0.2125  1.9465 -0.7093
   89MOL   H20328539   1.859   1.710   0.367  0.3374 -0.9916 -0.7687
   89MOL   H20428540   1.845   1.695   0.537  0.0943 -0.2296  0.4223
   89MOL   H20528541   1.585   1.637   0.506 -0.1639 -0.1075 -0.4478
   89MOL   H20628542   1.614   1.678   0.337  0.7785 -1.6769  0.0285
   89MOL   H20728543   1.650   1.790   0.470  1.5777 -0.3336  0.8376
   89MOL   H20828544   1.744   1.306   0.730 -1.1821  0.7724  0.4518
   89MOL   H20928545   1.594   1.279   0.643 -0.0093 -1.6600  3.4117
   89MOL   C21028546   1.695   1.097   0.664 -0.4350  0.3462  0.8816
   89MOL   O21128547   1.819   1.050   0.626  0.4113  0.6586  0.4108
   89MOL   C21228548   1.828   0.907   0.614  0.7533 -0.4902 -0.6420
   89MOL   C21328549   1.952   0.873   0.524  0.2318  0.9513 -0.5100
   89MOL   C21428550   1.954   0.726   0.467  0.4669  0.1543  0.3148
   89MOL   C21528551   1.662   1.060   0.807 -0.1975  0.5540  0.3432
   89MOL   H21628552   1.617   1.062   0.596 -0.7394  1.8780  0.4144
   89MOL   H21728553   1.828   0.859   0.712 -2.6171 -2.8223 -1.6914
   89MOL   H21828554   1.740   0.865   0.565  1.3437 -1.0004 -1.2636
   89MOL   H21928555   2.044   0.885   0.581 -0.0194 -0.2244  0.1641
   89MOL   H22028556   1.961   0.947   0.444 -0.6508  1.4827 -0.1166
   89MOL   H22128557   2.047   0.699   0.417  1.2042 -0.5000  2.0126
   89MOL   H22228558   1.868   0.704   0.404  0.5718 -2.7563  1.1062
   89MOL   H22328559   1.952   0.658   0.552 -1.3282 -0.4978 -0.2298
   89MOL   H22428560   1.660   0.954   0.833 -0.1596  1.2973  3.4895
   89MOL   H22528561   1.743   1.095   0.871 -0.5348  2.4029 -0.2052
   89MOL   C22628562   1.523   1.100   0.849 -0.5688  0.0259 -0.2969
   89MOL   O22728563   1.466   0.985   0.916 -0.4411 -0.2079  0.1157
   89MOL   C22828564   1.387   0.903   0.834  0.2936 -0.5631 -0.5822
   89MOL   C22928565   1.241   0.944   0.851  0.2987 -0.6845 -0.9560
   89MOL   C23028566   1.188   0.943   0.995 -0.4471  0.2931  0.4997
   89MOL   C23128567   1.507   1.228   0.934 -0.6364 -0.3813  0.5936
   89MOL   H23228568   1.469   1.118   0.756 -1.4136 -0.9432 -0.0090
   89MOL   H23328569   1.416   0.893   0.730  2.4068 -1.0192  0.0290
   89MOL   H23428570   1.403   0.809   0.887 -0.0266 -0.0304  0.4945
   89MOL   H23528571   1.170   0.877   0.804 -0.6298 -0.8800  0.6957
   89MOL   H23628572   1.220   1.040   0.804  0.8798  0.0244  0.1979
   89MOL   H23728573   1.204   0.848   1.045  0.4052 -0.1074 -0.5121
   89MOL   H23828574   1.079   0.951   0.995 -0.3686  1.5019 -0.3838
   89MOL   H23928575   1.227   1.027   1.052 -0.6635  1.6425 -1.2779
   89MOL   H24028576   1.524   1.200   1.038 -2.8767 -2.2205  0.5117
   89MOL   H24128577   1.580   1.302   0.901 -0.7110 -0.9290 -0.8573
   89MOL   C24228578   1.373   1.302   0.930  0.8040  0.9140 -0.4050
   89MOL   O24328579   1.371   1.393   1.032  0.4491 -0.4769  0.3579
   89MOL   C24428580   1.310   1.340   1.149 -0.3501  0.2803 -0.0444
   89MOL   C24528581   1.326   1.451   1.257  0.4566 -0.8924 -0.0950
   89MOL   C24628582   1.269   1.413   1.397  0.5770  0.4493 -0.9251
   89MOL   C24728583   1.335   1.375   0.807 -0.1686 -0.0913 -0.5934
   89MOL   H24828584   1.296   1.227   0.948 -0.1997  1.6427 -1.5588
   89MOL   H24928585   1.203   1.325   1.133  0.1093  0.5341 -3.8567
   89MOL   H25028586   1.352   1.244   1.181  3.5348  1.6957 -0.5879
   89MOL   H25128587   1.275   1.538   1.216 -2.1526 -2.1153  0.4657
   89MOL   H25228588   1.433   1.473   1.258  0.2145  0.3136 -0.1746
   89MOL   H25328589   1.163   1.390   1.384  0.7346 -0.5966 -0.4426
   89MOL   H25428590   1.287   1.486   1.475  0.5144 -1.8874  1.3312
   89MOL   H25528591   1.317   1.323   1.434  0.3311  0.9111  0.5381
   89MOL   H25628592   1.416   1.443   0.778 -1.5053  1.5748 -0.4770
   89MOL   H25728593   1.343   1.295   0.734  3.4735 -2.2176  1.9918
   89MOL   C25828594   1.201   1.448   0.792 -0.6635 -1.0649 -0.0310
   89MOL   O25928595   1.180   1.458   0.650  0.2308 -0.0416  0.6080
   89MOL   C26028596   1.226   1.584   0.596  0.9026  0.0729  0.1042
   89MOL   C26128597   1.176   1.590   0.444 -0.2777 -0.3710  0.5067
   89MOL   C26228598   1.232   1.714   0.369  0.4133  1.0049  0.4838
   89MOL   C26328599   1.067   1.373   0.838 -0.0062  0.3775  0.1066
   89MOL   H26428600   1.209   1.539   0.852 -0.9975  0.6021 -2.4237
   89MOL   H26528601   1.183   1.668   0.651 -0.2703 -0.5732  0.1775
   89MOL   H26628602   1.335   1.591   0.598  1.0483 -0.8812 -2.3850
   89MOL   H26728603   1.068   1.584   0.439 -0.1222 -1.1296 -2.4918
   89MOL   H26828604   1.221   1.500   0.402  1.1069 -1.5865  4.3080
   89MOL   H26928605   1.223   1.801   0.435  1.9814  1.3684  0.2379
   89MOL   H27028606   1.173   1.722   0.278  2.3037  1.0668 -0.7600
   89MOL   H27128607   1.338   1.709   0.344 -0.0917  0.6040 -1.6346
   89MOL   H27228608   1.052   1.277   0.789 -0.5890  0.0204  0.9700
   89MOL   H27328609   1.085   1.334   0.938 -1.4190  0.5850  0.4496
   89MOL   C27428610   0.940   1.460   0.832  0.0709  0.2641  0.6388
   89MOL   O27528611   0.824   1.380   0.857  0.0017 -0.5056 -0.2088
   89MOL   C27628612   0.766   1.322   0.738 -0.4857 -0.0401 -0.2158
   89MOL   C27728613   0.632   1.274   0.786 -0.4004 -0.1969  0.3774
   89MOL   C27828614   0.540   1.238   0.675 -0.6781 -0.0307  0.1362
   89MOL   C27928615   0.921   1.586   0.926 -0.1237  1.0850 -0.6246
   89MOL   H28028616   0.950   1.503   0.732  1.8052 -0.9956  0.2320
   89MOL   H28128617   0.747   1.402   0.667  0.3172  0.3263 -0.0198
   89MOL   H28228618   0.826   1.250   0.681 -1.0896 -0.6110 -0.1450
   89MOL   H28328619   0.588   1.356   0.842 -1.3840 -0.3776 -0.1315
   89MOL   H28428620   0.661   1.195   0.855 -1.2920 -0.5963  0.2980
   89MOL   H28528621   0.441   1.207   0.709  0.1969 -0.0633  2.7467
   89MOL   H28628622   0.583   1.155   0.618  1.6608  1.2626 -0.0500
   89MOL   H28728623   0.524   1.318   0.602 -0.4158  1.3399  1.5607
   89MOL   H28828624   0.904   1.539   1.023  4.3294 -1.7006 -1.0257
   89MOL   H28928625   1.013   1.642   0.945  0.8563  0.4225 -3.0942
   89MOL   C29028626   0.811   1.689   0.891  0.3246  0.0129 -0.2047
   89MOL   O29128627   0.788   1.782   0.993  0.4894 -0.1890 -0.6072
   89MOL   C29228628   0.691   1.748   1.091  0.7410 -0.9026  0.5857
   89MOL   C29328629   0.549   1.764   1.034 -0.4466  0.0363 -0.1588
   89MOL   C29428630   0.441   1.722   1.134  0.3743 -0.0503  0.1177
   89MOL   C29528631   0.856   1.779   0.780  1.1671 -0.1657  0.1136
   89MOL   H29628632   0.712   1.654   0.861 -0.6972  2.1977  0.5114
   89MOL   H29728633   0.710   1.649   1.133  1.6573 -1.1715 -0.4260
   89MOL   H29828634   0.696   1.825   1.169  1.8417  1.0607 -1.3530
   89MOL   H29928635   0.547   1.696   0.948 -0.3043  2.2727 -1.9787
   89MOL   H30028636   0.540   1.868   1.002  3.2108  0.7924  0.9690
   89MOL   H30128637   0.341   1.734   1.092  0.8476 -0.1879 -1.0526
   89MOL   H30228638   0.433   1.778   1.227  0.9791  0.3425 -0.0642
   89MOL   H30328639   0.453   1.616   1.157  0.1497 -0.3419 -1.0955
   89MOL   H30428640   0.813   1.875   0.806  0.0332 -0.5331 -0.3301
   89MOL   H30528641   0.964   1.787   0.787  1.0526  1.3970  0.1705
   89MOL   C30628642   0.811   1.732   0.641 -0.5542  0.4780 -0.4122
   89MOL   O30728643   0.681   1.777   0.631 -0.1456  0.4001 -0.5839
   89MOL   C30828644   0.595   1.690   0.559  0.5613  0.6199 -0.0659
   89MOL   C30928645   0.461   1.759   0.548  0.2549 -1.0899  0.1137
   89MOL   C31028646   0.468   1.881   0.450  0.0550  0.1376  0.3323
   89MOL   C31128647   0.893   1.803   0.534  0.7386  0.5648 -0.1836
   89MOL   H31228648   0.824   1.625   0.626 -1.0695  0.7307 -2.9945
   89MOL   H31328649   0.634   1.672   0.459 -3.7356 -2.1027 -1.3719
   89MOL   H31428650   0.566   1.597   0.606 -0.6753  0.7053 -0.6479
   89MOL   H31528651   0.426   1.798   0.644 -2.8114  1.9043 -2.0967
   89MOL   H31628652   0.385   1.688   0.517 -1.2905  0.6950 -0.2991
   89MOL   H31728653   0.365   1.915   0.443 -0.5004 -1.6522 -0.3141
   89MOL   H31828654   0.494   1.862   0.346 -2.4516 -2.1907  0.0934
   89MOL   H31928655   0.527   1.961   0.495 -1.2413  0.3132  1.7536
   89MOL   H32028656   0.889   1.911   0.550 -0.1207  0.6009 -0.6174
   89MOL   H32128657   1.001   1.787   0.531  0.6111 -0.1932 -0.8220
   89MOL   H32228658   0.857   1.788   0.432  2.0332  0.5596 -0.6526
   90MOL     C128659   2.431   0.409   7.767  0.3849  0.0573 -0.0260
   90MOL     O228660   2.453   0.277   7.812  0.3183  0.3466  0.7483
   90MOL     C328661   2.573   0.214   7.774 -1.0091 -0.0661 -0.6592
   90MOL     C428662   2.578   0.070   7.817 -0.4867  0.0344  0.0456
   90MOL     C528663   2.690   7.819   7.746 -0.7372 -0.4224 -0.2401
   90MOL     C628664   2.292   0.450   7.815  0.2459  0.2745  1.0881
   90MOL     H728665   2.454   0.423   7.662 -1.9416  0.4819 -0.5166
   90MOL     H828666   2.572   0.208   7.665  0.0142 -4.0200 -0.4976
   90MOL     H928667   2.655   0.278   7.809 -2.2971  0.6776  1.0419
   90MOL    H1028668   2.489   0.014   7.787 -0.0462 -0.0916 -1.0649
   90MOL    H1128669   2.579   0.065   0.098  0.5351  1.2430  0.0941
   90MOL    H1228670   2.793   7.824   7.781 -1.0568 -1.4804  0.8738
   90MOL    H1328671   2.709   0.022   7.643  0.9417 -0.3389  0.0770
   90MOL    H1428672   2.674   7.712   7.756 -2.9360  0.0179  1.3416
   90MOL    H1528673   2.265   0.541   7.761 -0.4974  0.7930  2.3061
   90MOL    H1628674   2.228   0.382   7.759  0.8068  1.3348 -0.9076
   90MOL    H1728675   2.505   0.468   7.822 -0.3694  1.6705 -0.6928
   90MOL    C1828676   2.275   0.459   0.142  0.2124 -0.8188 -0.3371
   90MOL    O1928677   2.329   0.579   0.184 -0.0406 -0.7983  0.1191
   90MOL    C2028678   2.368   0.585   0.325  0.3841 -0.6077  0.5334
   90MOL    C2128679   2.439   0.722   0.340 -0.5338  0.4862  0.3590
   90MOL    C2228680   2.339   0.838   0.324  0.2937 -0.6521 -0.1002
   90MOL    C2328681   2.119   0.455   0.175  0.0260  0.0492 -0.4191
   90MOL    H2428682   2.338   0.379   0.182 -1.2356 -2.1061 -0.5868
   90MOL    H2528683   2.277   0.583   0.385 -0.0224  0.0396 -0.0538
   90MOL    H2628684   2.427   0.496   0.348 -0.6012 -1.2184  0.7466
   90MOL    H2728685   2.518   0.723   0.265 -0.3781 -0.9091  0.4910
   90MOL    H2828686   2.494   0.737   0.433  1.9442 -1.3647 -0.7507
   90MOL    H2928687   2.308   0.839   0.219  0.6527 -2.2929 -0.2300
   90MOL    H3028688   2.373   0.940   0.344  1.8619 -1.1361 -0.2173
   90MOL    H3128689   2.259   0.814   0.394 -0.0779 -0.5361 -0.4868
   90MOL    H3228690   2.098   0.512   0.265  1.6258  0.0382 -0.0296
   90MOL    H3328691   2.057   0.501   0.098  0.2985  2.6941  0.9228
   90MOL    C3428692   2.056   0.316   0.199 -0.7941 -0.3812  0.4751
   90MOL    O3528693   2.047   0.287   0.340  0.2651  0.2743 -0.6363
   90MOL    C3628694   2.170   0.270   0.406  0.0800 -0.5244  0.2689
   90MOL    C3728695   2.145   0.231   0.548  0.1663 -0.2284  0.5247
   90MOL    C3828696   2.122   0.350   0.644  0.2067  0.3092  0.1587
   90MOL    C3928697   1.926   0.296   0.130 -0.4354 -0.0566  0.3110
   90MOL    H4028698   2.129   0.252   0.151 -0.5751 -1.6666  2.4764
   90MOL    H4128699   2.228   0.187   0.367 -1.1026 -1.6487  0.8423
   90MOL    H4228700   2.232   0.359   0.411 -2.1880  1.0299  2.0366
   90MOL    H4328701   2.234   0.177   0.582  0.6847  0.2527 -0.0673
   90MOL    H4428702   2.065   0.157   0.549 -0.5120  0.5050  1.2470
   90MOL    H4528703   2.078   0.320   0.739 -2.3718  2.7745 -0.1930
   90MOL    H4628704   2.050   0.419   0.600  0.4766  0.7075  0.3411
   90MOL    H4728705   2.210   0.413   0.654 -0.1114  0.9384 -0.9461
   90MOL    H4828706   1.850   0.369   0.157  0.2176  1.3016 -1.4168
   90MOL    H4928707   1.930   0.316   0.023 -0.7953  0.2073  0.3464
   90MOL    C5028708   1.860   0.152   0.130 -0.4324 -0.3680 -0.8916
   90MOL    O5128709   1.721   0.178   0.117  0.0777 -0.3905  0.2758
   90MOL    C5228710   1.641   0.144   0.233 -0.5715 -0.2516 -0.0694
   90MOL    C5328711   1.491   0.168   0.210 -0.2545 -0.1108 -0.6519
   90MOL    C5428712   1.452   0.296   0.138  0.3246 -0.9226 -0.3140
   90MOL    C5528713   1.925   0.055   0.036 -0.4222  0.0315 -0.4673
   90MOL    H5628714   1.882   0.110   0.228  0.3053 -2.4116 -1.9061
   90MOL    H5728715   1.661   0.037   0.237  1.8401  0.0250 -3.2780
   90MOL    H5828716   1.685   0.200   0.316  1.7731 -1.1145 -0.7135
   90MOL    H5928717   1.447   0.170   0.310 -0.8935 -0.1019 -0.9305
   90MOL    H6028718   1.438   0.081   0.171  0.2079 -1.3595  1.4379
   90MOL    H6128719   1.501   0.307   0.042  0.0752 -1.7312 -0.5381
   90MOL    H6228720   1.481   0.379   0.202  0.2965 -0.5498 -0.7864
   90MOL    H6328721   1.344   0.296   0.129  0.3968 -0.5093 -1.2100
   90MOL    H6428722   1.885   0.073   7.764  1.2457 -1.8823 -1.5041
   90MOL    H6528723   2.032   0.077   0.036 -0.1675 -1.1537  0.8819
   90MOL    C6628724   1.912   7.733   0.068  0.7427 -0.0232 -0.4056
   90MOL    O6728725   1.781   7.682   0.099  0.1622 -0.0547  0.2474
   90MOL    C6828726   1.676   7.704   0.005 -0.2011  0.7035  0.3679
   90MOL    C6928727   1.559   7.621   0.039 -0.3741  0.0044 -0.3490
   90MOL    C7028728   1.440   7.637   7.766 -0.2166  0.0224 -0.0888
   90MOL    C7128729   1.968   7.652   7.780 -0.3383 -0.0061  0.3956
   90MOL    H7228730   1.968   7.717   0.159 -1.2299 -1.3237  0.6222
   90MOL    H7328731   1.640   7.805   0.024  1.6786  1.2029  1.4090
   90MOL    H7428732   1.711   7.709   7.730  1.7708 -0.3005  0.9765
   90MOL    H7528733   1.509   7.646   0.132 -0.4151 -0.8259 -0.1437
   90MOL    H7628734   1.585   7.515   0.034  0.5809  0.1894  0.4543
   90MOL    H7728735   1.426   7.741   7.738  1.8519 -0.4158 -3.0795
   90MOL    H7828736   1.343   7.601   7.800 -1.0154  0.1391 -2.1402
   90MOL    H7928737   1.464   7.589   7.670  1.9332  0.9166 -0.0383
   90MOL    H8028738   1.920   7.667   7.683  1.4876  2.1835 -0.2180
   90MOL    H8128739   2.067   7.693   7.756 -0.1365 -0.5924  0.2303
   90MOL    C8228740   1.985   7.500   7.809  0.0286 -0.0958  0.0100
   90MOL    O8328741   2.055   7.452   7.691 -0.0686  0.3233  0.0237
   90MOL    C8428742   2.054   7.316   7.673  0.0791  0.4224  0.0820
   90MOL    C8528743   2.128   7.285   7.540  0.1347  0.3938 -0.4691
   90MOL    C8628744   2.118   7.137   7.514  0.0331 -0.2143  0.3546
   90MOL    C8728745   2.073   7.475   0.108  0.9529  0.5764  0.6344
   90MOL    H8828746   1.887   7.456   7.826  0.0297  0.7798  2.4591
   90MOL    H8928747   2.103   7.272   7.760 -1.5197  2.2979  1.9890
   90MOL    H9028748   1.951   7.283   7.662  0.3876 -0.4650 -0.1774
   90MOL    H9128749   2.232   7.316   7.551  0.2018  0.6624 -1.8680
   90MOL    H9228750   2.081   7.343   7.461 -0.7849  2.2453  1.3907
   90MOL    H9328751   2.141   7.081   7.604  2.5413  2.0945  1.2174
   90MOL    H9428752   2.180   7.114   7.428  0.7285  0.6959  0.6112
   90MOL    H9528753   2.015   7.120   7.483 -0.7005 -0.4310  2.8288
   90MOL    H9628754   2.150   7.401   0.086  0.3341 -0.8064  3.0021
   90MOL    H9728755   2.133   7.561   0.141  2.1958 -0.0521  0.0604
   90MOL    C9828756   1.995   7.432   0.231 -0.7716 -0.1874 -0.5031
   90MOL    O9928757   1.993   7.284   0.244 -0.3714  0.3053  0.3144
   90MOL   C10028758   1.904   7.205   0.175 -0.0284  0.2397  0.1858
   90MOL   C10128759   1.976   7.072   0.143  0.2690 -0.0835 -0.2854
   90MOL   C10228760   1.900   6.996   0.025  0.7975 -0.0822 -0.7645
   90MOL   C10328761   2.066   7.476   0.362  0.2045 -0.2309  0.0704
   90MOL   H10428762   1.891   7.463   0.225 -0.5949  0.9100  1.4780
   90MOL   H10528763   1.822   7.180   0.241  0.6059 -0.6983  0.6280
   90MOL   H10628764   1.879   7.250   0.079 -0.2011 -1.5105 -0.6123
   90MOL   H10728765   1.982   7.011   0.233  0.1171  0.3701  0.0338
   90MOL   H10828766   2.080   7.093   0.115 -0.7562  1.6071 -3.0064
   90MOL   H10928767   1.801   6.961   0.053  0.1047  1.4554 -1.2313
   90MOL   H11028768   1.965   6.910   0.007  0.1208 -1.2253  2.0856
   90MOL   H11128769   1.888   7.052   7.760 -0.4717 -0.6719 -0.9572
   90MOL   H11228770   2.064   7.404   0.444 -1.3204 -0.3013 -0.0134
   90MOL   H11328771   2.174   7.490   0.352  0.1658  0.4476  0.5388
   90MOL   C11428772   2.010   7.610   0.423  0.3961 -0.7985 -0.6970
   90MOL   O11528773   1.874   7.593   0.470  0.3611  0.0126 -0.1432
   90MOL   C11628774   1.789   7.708   0.468  0.1847 -0.2176 -0.1916
   90MOL   C11728775   1.646   7.678   0.515 -0.4208  0.3077  0.4684
   90MOL   C11828776   1.631   7.662   0.668 -0.5274  0.1421  0.5873
   90MOL   C11928777   2.075   7.652   0.556  0.0797  0.1301  0.1429
   90MOL   H12028778   2.016   7.697   0.358 -1.5301  0.8466  1.2599
   90MOL   H12128779   1.822   7.801   0.515 -0.5296  0.7689 -1.6124
   90MOL   H12228780   1.789   7.739   0.363  0.0361 -1.7453 -0.6576
   90MOL   H12328781   1.615   7.585   0.466  0.8717 -0.7808  1.6777
   90MOL   H12428782   1.574   7.755   0.487  0.6410  1.3543  0.5646
   90MOL   H12528783   1.527   7.652   0.697 -0.7528  2.0712  0.4979
   90MOL   H12628784   1.680   7.750   0.712 -0.7085  0.2658  0.5409
   90MOL   H12728785   1.682   7.578   0.716  0.4979  1.5780  2.0633
   90MOL   H12828786   2.023   7.738   0.599 -0.4077 -0.1086  0.0267
   90MOL   H12928787   2.051   7.574   0.629 -1.9665  0.2854 -0.3451
   90MOL   C13028788   2.234   7.673   0.548 -0.0116  0.2994  0.5435
   90MOL   O13128789   2.258   7.773   0.456  0.0216  0.3363 -0.5272
   90MOL   C13228790   2.393   7.774   0.404  0.1644  0.5832 -0.8252
   90MOL   C13328791   2.364   7.719   0.263 -0.5723  0.0800 -0.4792
   90MOL   C13428792   2.269   7.798   0.165  0.5911 -0.0670 -0.0447
   90MOL   C13528793   2.293   7.725   0.679  0.3275  0.2287 -0.2298
   90MOL   H13628794   2.281   7.583   0.509  0.7527  1.3098 -0.8966
   90MOL   H13728795   2.436   0.046   0.411 -0.0476  0.8135 -2.5613
   90MOL   H13828796   2.463   7.699   0.441 -0.1879 -0.2972 -1.9046
   90MOL   H13928797   2.324   7.619   0.275  1.0627 -0.6019 -0.4915
   90MOL   H14028798   2.462   7.701   0.219 -0.3019 -2.9124  1.2471
   90MOL   H14128799   2.322   0.061   0.137  0.1593  0.4079  0.6500
   90MOL   H14228800   2.170   7.815   0.208  0.7556 -2.3390  1.2896
   90MOL   H14328801   2.235   7.743   0.077  0.0607  1.5820 -0.9027
   90MOL   H14428802   2.394   7.761   0.659  0.5045 -0.9388 -1.5176
   90MOL   H14528803   2.236   7.803   0.729  1.0665  0.4870  0.2237
   90MOL   C14628804   2.317   7.611   0.776  0.3741 -0.3078  0.5217
   90MOL   O14728805   2.426   7.545   0.715  0.9340 -0.5133  0.2923
   90MOL   C14828806   2.425   7.401   0.724 -0.2221 -1.1273 -0.1161
   90MOL   C14928807   2.530   7.347   0.629  0.5775 -0.1737 -0.4099
   90MOL   C15028808   2.530   7.410   0.488  0.2803 -0.0834 -0.1043
   90MOL   C15128809   2.360   7.649   0.918  1.0118  0.2676 -0.0410
   90MOL   H15228810   2.228   7.547   0.781 -0.8347  1.2844 -0.1026
   90MOL   H15328811   2.441   7.376   0.829 -2.9125  1.4836  0.9860
   90MOL   H15428812   2.323   7.369   0.704 -1.3332  2.2098 -0.0504
   90MOL   H15528813   2.499   7.243   0.613 -3.1465  0.7326  0.3337
   90MOL   H15628814   2.630   7.347   0.671  0.6524  1.2077 -0.5622
   90MOL   H15728815   2.593   7.339   0.434  1.9492  3.0454 -2.3804
   90MOL   H15828816   2.569   7.511   0.483 -0.2555  0.3147  2.7137
   90MOL   H15928817   2.432   7.417   0.442  0.2406  0.1659  0.0171
   90MOL   H16028818   2.410   7.563   0.962  2.4319  2.1242  2.1277
   90MOL   H16128819   2.442   7.722   0.917  1.1069  0.1624  0.1957
   90MOL   C16228820   2.253   7.713   1.006  0.3474 -0.2688 -0.9218
   90MOL   O16328821   2.170   7.608   1.038  0.2426 -0.2332 -0.2886
   90MOL   C16428822   2.043   7.659   1.097 -1.3927  0.2114  0.3300
   90MOL   C16528823   1.943   7.537   1.103 -0.1717  0.5808 -0.0252
   90MOL   C16628824   1.900   7.481   0.972  0.4568  0.7596  0.1194
   90MOL   C16728825   2.309   7.793   1.124  0.0924  0.3012  0.6025
   90MOL   H16828826   2.196   7.786   0.948  1.2596  3.7457  2.9593
   90MOL   H16928827   2.054   7.712   1.192 -0.2265  1.1707 -0.3159
   90MOL   H17028828   2.001   7.731   1.027  2.1500  2.7322  0.6462
   90MOL   H17128829   1.852   7.556   1.160  0.4625  0.9303  0.8832
   90MOL   H17228830   1.989   7.454   1.158 -0.3493  1.0572  0.8453
   90MOL   H17328831   1.990   7.446   0.921  0.1788 -0.8801  0.7222
   90MOL   H17428832   1.841   7.555   0.917  0.9354  0.8146 -0.3287
   90MOL   H17528833   1.834   7.394   0.976  1.2949  0.0436 -0.9823
   90MOL   H17628834   2.270   7.757   1.218  2.2490 -1.3885  0.8895
   90MOL   H17728835   2.412   7.761   1.142 -0.2850  0.7680  3.8441
   90MOL   C17828836   2.290   0.123   1.110  0.2858 -0.5789  0.3022
   90MOL   O17928837   2.358   0.196   1.214  0.0244 -0.0145  0.6384
   90MOL   C18028838   2.313   0.172   1.345  0.3247 -0.2623 -0.2689
   90MOL   C18128839   2.359   0.285   1.444 -0.0581 -0.5556  0.4588
   90MOL   C18228840   2.285   0.416   1.423 -0.5444  0.2870 -0.1849
   90MOL   C18328841   2.335   0.192   0.972 -0.2855 -0.0296  0.0851
   90MOL   H18428842   2.186   0.150   1.125 -0.5158 -2.7224 -1.1737
   90MOL   H18528843   2.204   0.166   1.343  0.3015  0.4486 -1.6374
   90MOL   H18628844   2.362   0.081   1.380  2.1625  0.1673 -1.6285
   90MOL   H18728845   2.468   0.290   1.443  0.0852 -2.8427 -2.1622
   90MOL   H18828846   2.330   0.259   1.545 -1.3284  0.1153  0.2856
   90MOL   H18928847   2.189   0.405   1.473 -0.7249  1.2378 -0.3214
   90MOL   H19028848   2.269   0.443   1.318 -0.5614  0.6679 -0.0840
   90MOL   H19128849   2.333   0.502   1.469  0.5713 -0.3267 -0.1611
   90MOL   H19228850   2.432   0.145   0.955  0.2391  0.0560  2.5255
   90MOL   H19328851   2.273   0.167   0.887  0.1557 -0.2252 -0.1819
   90MOL   C19428852   2.349   0.341   0.969  0.2242 -0.0317  0.1198
   90MOL   O19528853   2.392   0.363   0.834  0.2690  0.5815 -0.0760
   90MOL   C19628854   2.532   0.378   0.826 -0.5189 -0.6882  0.1858
   90MOL   C19728855   2.593   0.393   0.685 -0.2626 -0.8829  0.6040
   90MOL   C19828856   2.544   0.276   0.600  0.9903  0.2387  0.4673
   90MOL   C19928857   2.211   0.407   0.987 -0.2458 -0.3937  0.1182
   90MOL   H20028858   2.422   0.380   1.040  1.9146 -0.1209 -1.5339
   90MOL   H20128859   2.555   0.464   0.889 -0.4349 -0.3519 -0.3069
   90MOL   H20228860   2.582   0.295   0.876  0.5726  0.4633  1.0371
   90MOL   H20328861   2.702   0.390   0.684 -0.2456 -1.0979  2.1573
   90MOL   H20428862   2.554   0.486   0.642 -2.9880 -1.9251  0.7223
   90MOL   H20528863   2.596   0.293   0.506 -0.3689  1.9557  0.0028
   90MOL   H20628864   2.438   0.267   0.576  1.0215 -0.4935  0.5678
   90MOL   H20728865   2.580   0.180   0.637  0.8148 -0.2728 -0.6649
   90MOL   H20828866   2.133   0.383   0.915 -0.1863  0.4883 -0.2419
   90MOL   H20928867   2.168   0.374   1.082  0.0770  1.0054  0.7643
   90MOL   C21028868   2.212   0.564   0.983  0.2656  0.0609 -0.0349
   90MOL   O21128869   2.079   0.611   0.999 -0.1460 -0.2963 -0.3744
   90MOL   C21228870   2.000   0.610   0.881  0.6671  0.0438 -0.3633
   90MOL   C21328871   1.867   0.682   0.917  0.2421  0.3156  0.2829
   90MOL   C21428872   1.750   0.620   0.839 -0.1120  0.3272 -0.3025
   90MOL   C21528873   2.285   0.628   1.099 -0.7535  0.4607  0.6542
   90MOL   H21628874   2.252   0.605   0.890 -0.2560  0.8284  0.0714
   90MOL   H21728875   2.043   0.666   0.798 -1.0323 -0.8745 -1.8801
   90MOL   H21828876   1.977   0.506   0.862 -1.1370  0.3005  0.3009
   90MOL   H21928877   1.881   0.790   0.913  1.7580  0.1387  0.3940
   90MOL   H22028878   1.838   0.667   1.021  1.3452 -0.9749  0.4163
   90MOL   H22128879   1.753   0.518   0.875 -0.8826  0.9129  1.4807
   90MOL   H22228880   1.745   0.636   0.731  1.2080 -1.1051 -0.5897
   90MOL   H22328881   1.663   0.672   0.880  1.5525  0.8581  2.7147
   90MOL   H22428882   2.234   0.611   1.194 -2.3760  2.3608  0.1629
   90MOL   H22528883   2.381   0.578   1.115 -1.1289  0.3977  2.8654
   90MOL   C22628884   2.303   0.787   1.094  0.1720  0.3341  0.0410
   90MOL   O22728885   2.345   0.820   1.225  0.0168  0.1573 -0.0938
   90MOL   C22828886   2.332   0.960   1.251 -0.5080 -0.0416  0.0482
   90MOL   C22928887   2.218   0.979   1.344  0.5035  0.3926 -0.4638
   90MOL   C23028888   2.177   1.127   1.356  0.5717 -0.0147 -0.3796
   90MOL   C23128889   2.409   0.839   0.991 -0.6655 -0.2776 -0.6426
   90MOL   H23228890   2.208   0.831   1.064 -0.8914 -1.0775  1.2647
   90MOL   H23328891   2.429   0.984   1.293 -0.3913 -2.4665  1.2323
   90MOL   H23428892   2.327   1.029   1.166 -1.1629 -2.1315 -1.6712
   90MOL   H23528893   2.237   0.941   1.444  0.8161  0.1888 -0.6012
   90MOL   H23628894   2.133   0.921   1.308  0.0176  0.9034 -0.1533
   90MOL   H23728895   2.152   1.165   1.257 -0.9177  1.1941  0.4328
   90MOL   H23828896   2.254   1.192   1.396 -1.6741  1.3955  1.8199
   90MOL   H23928897   2.085   1.129   1.416  0.3321 -0.5479 -0.7206
   90MOL   H24028898   2.362   0.820   0.894 -2.0449 -0.1342 -0.0183
   90MOL   H24128899   2.432   0.945   1.002  0.7647 -0.6589  0.2709
   90MOL   C24228900   2.542   0.755   0.986  0.0853  0.3682 -0.0565
   90MOL   O24328901   2.629   0.825   0.891  0.2681  0.5862 -0.1340
   90MOL   C24428902   2.630   0.786   0.756 -0.2851  0.7415  0.2740
   90MOL   C24528903   2.704   0.904   0.689 -0.4984  0.1207 -0.5949
   90MOL   C24628904   2.849   0.914   0.730  0.0875  0.3924 -0.0711
   90MOL   C24728905   2.622   0.762   1.119  0.2365  1.0420 -0.1918
   90MOL   H24828906   2.516   0.654   0.952  0.3299 -0.5855  2.5040
   90MOL   H24928907   2.674   0.687   0.764  0.6105  1.2685  2.0192
   90MOL   H25028908   2.528   0.774   0.719  0.8284 -1.7894 -2.1661
   90MOL   H25128909   2.643   0.993   0.707  0.0014  0.7342 -1.8957
   90MOL   H25228910   2.717   0.891   0.582  2.4448  2.0927 -0.5458
   90MOL   H25328911   2.889   1.009   0.695  2.3462 -0.5233 -0.0655
   90MOL   H25428912   2.899   0.831   0.681 -2.4630 -1.3342  0.1241
   90MOL   H25528913   2.859   0.912   0.839 -0.4684  0.9488 -0.0004
   90MOL   H25628914   2.657   0.865   1.127 -0.7442  1.4761 -1.2851
   90MOL   H25728915   2.564   0.719   1.199  1.7660 -1.3223 -0.3225
   90MOL   C25828916   2.748   0.671   1.100  0.4320  0.0849 -0.2106
   90MOL   O25928917   2.860   0.718   1.173  0.0976  0.1600  0.2030
   90MOL   C26028918   2.946   0.803   1.097 -0.1824  0.7308 -0.4902
   90MOL   C26128919   3.057   0.858   1.193  0.0383  0.0089 -0.8143
   90MOL   C26228920   2.994   0.930   1.316  0.7440  0.4167  0.3135
   90MOL   C26328921   2.718   0.528   1.148 -0.2372 -0.3303  0.2007
   90MOL   H26428922   2.766   0.669   0.992 -1.6356 -0.8802 -0.5540
   90MOL   H26528923   3.001   0.744   1.023  2.1185 -1.0794  2.5364
   90MOL   H26628924   2.895   0.888   1.054  0.5061  0.4296 -1.9391
   90MOL   H26728925   3.109   0.929   1.130 -0.9356  1.2567 -0.2266
   90MOL   H26828926   3.107   0.764   1.217  0.4795  0.0724 -1.4873
   90MOL   H26928927   2.949   1.025   1.288 -0.3102 -0.6677 -1.7831
   90MOL   H27028928   3.079   0.967   1.374  0.4158  3.5365 -1.0906
   90MOL   H27128929   2.932   0.877   1.388  1.8913 -0.6640  0.5334
   90MOL   H27228930   2.678   0.525   1.249 -1.0666 -0.5532 -0.1311
   90MOL   H27328931   2.644   0.483   1.081 -0.1210 -0.2413  0.0143
   90MOL   C27428932   2.839   0.424   1.156 -0.4229 -0.0852  1.1190
   90MOL   O27528933   2.781   0.294   1.192 -0.7372 -0.0356  0.2019
   90MOL   C27628934   2.771   0.275   1.329  0.0720  0.4151 -0.6434
   90MOL   C27728935   2.721   0.132   1.356  0.2950  0.6878  0.2391
   90MOL   C27828936   2.779   0.017   1.267  0.1555 -0.1530  0.2453
   90MOL   C27928937   2.905   0.421   1.017 -0.2825  0.2324  0.1028
   90MOL   H28028938   2.915   0.453   1.229  2.9184  0.4839 -2.4324
   90MOL   H28128939   2.864   0.283   1.384 -0.2995  0.5356 -0.0310
   90MOL   H28228940   2.702   0.350   1.367 -0.7671  0.0188 -1.3761
   90MOL   H28328941   2.612   0.131   1.358  0.2757  0.0480 -0.8459
   90MOL   H28428942   2.719   0.107   1.462 -0.5026 -0.9320 -0.1475
   90MOL   H28528943   2.745   7.745   1.296 -3.6442  0.5267 -1.4947
   90MOL   H28628944   2.885   0.027   1.287  0.3043 -1.4667  0.1343
   90MOL   H28728945   2.750   0.048   1.166  1.2282  1.8786  0.5423
   90MOL   H28828946   2.835   0.416   0.934 -0.9713  0.1979  0.6837
   90MOL   H28928947   2.958   0.515   1.009 -1.7369  1.3000  2.3755
   90MOL   C29028948   2.999   0.300   1.012  0.6338  0.3054 -0.4842
   90MOL   O29128949   3.014   0.273   0.870 -0.6363 -0.0178  0.1698
   90MOL   C29228950   3.049   0.133   0.839 -0.0991  0.0118 -0.1332
   90MOL   C29328951   3.067   0.124   0.682  0.5007  0.0099 -0.0929
   90MOL   C29428952   2.937   0.148   0.592  0.4150 -0.3301 -0.5044
   90MOL   C29528953   3.141   0.326   1.071  1.0656  0.7206 -0.1027
   90MOL   H29628954   2.949   0.212   1.054  1.1580  0.8548  1.3252
   90MOL   H29728955   3.123   0.091   0.907 -0.2594 -1.0447 -0.5853
   90MOL   H29828956   2.961   0.072   0.864 -0.8001  0.6590 -1.0043
   90MOL   H29928957   3.113   0.031   0.650  0.1975  0.2976 -1.3617
   90MOL   H30028958   3.149   0.192   0.657  0.6032  0.4795  1.4454
   90MOL   H30128959   2.856   0.102   0.649 -0.8958  0.2816 -1.8383
   90MOL   H30228960   2.948   0.102   0.494  0.2079 -0.6270 -0.3865
   90MOL   H30328961   2.925   0.256   0.577  0.2118 -0.1059  1.2185
   90MOL   H30428962   3.210   0.285   0.997 -2.2795 -0.1293 -2.8786
   90MOL   H30528963   3.155   0.433   1.081 -2.3138  1.2446 -0.5009
   90MOL   C30628964   3.175   0.269   1.216  0.8239 -0.2516  0.3943
   90MOL   O30728965   3.175   0.125   1.196 -0.1169 -0.2840  0.4172
   90MOL   C30828966   3.180   0.049   1.312 -0.8698  0.0979  0.1181
   90MOL   C30928967   3.222   7.735   1.277  0.5057  0.0984  0.7325
   90MOL   C31028968   3.122   7.665   1.176 -0.1605  0.2766  0.2675
   90MOL   C31128969   3.311   0.317   1.265  0.0830  0.5437 -0.4368
   90MOL   H31228970   3.094   0.301   1.281  0.3449 -1.2408  0.3002
   90MOL   H31328971   3.258   0.093   1.374 -2.0316  1.9345  0.3007
   90MOL   H31428972   3.086   0.066   1.363 -1.7105 -2.3399 -0.5312
   90MOL   H31528973   3.234   7.675   1.366  1.7181  1.0548  1.2215
   90MOL   H31628974   3.323   7.721   1.240  0.5399  0.6361  0.6162
   90MOL   H31728975   3.122   7.733   1.091 -1.7334  0.8598  0.7005
   90MOL   H31828976   3.024   7.659   1.225  0.4478 -2.6052  1.1910
   90MOL   H31928977   3.166   7.569   1.152 -0.4328  0.3166 -0.4007
   90MOL   H32028978   3.331   0.424   1.252  1.3446  0.2581 -0.8845
   90MOL   H32128979   3.331   0.303   1.372 -1.4023 -1.6388 -0.4315
   90MOL   H32228980   3.388   0.258   1.216 -0.5430 -0.1432 -0.5881
   91MOL     C128981   6.821   3.329   0.033  0.0870  0.7306 -0.1012
   91MOL     O228982   6.867   3.233   0.131 -0.4259 -0.3938  0.0970
   91MOL     C328983   6.768   3.208   0.222 -0.4326 -0.1554  0.7104
   91MOL     C428984   6.805   3.103   0.323  0.4440 -0.1093 -0.4447
   91MOL     C528985   6.837   2.974   0.241  0.2434  0.6924 -0.2684
   91MOL     C628986   6.936   3.376   7.771  0.5412  0.3777  0.6556
   91MOL     H728987   6.781   3.423   0.073 -0.0971  0.5753  0.0833
   91MOL     H828988   6.752   3.309   0.259 -2.7471 -0.1285 -0.3041
   91MOL     H928989   6.683   3.168   0.166 -1.3604  3.5514 -0.6767
   91MOL    H1028990   6.725   3.088   0.395  0.5860  0.5047 -0.1594
   91MOL    H1128991   6.897   3.136   0.373 -1.5190  1.5901  2.1624
   91MOL    H1228992   6.920   2.991   0.173 -0.0182 -0.4573 -0.8833
   91MOL    H1328993   6.752   2.937   0.184 -1.1309  1.7562  1.0481
   91MOL    H1428994   6.864   2.892   0.307  0.3094 -0.1023 -1.2725
   91MOL    H1528995   6.996   3.294   7.732  2.2125  0.2413  3.4277
   91MOL    H1628996   6.893   3.432   7.687  0.0346 -0.2770  0.4716
   91MOL    H1728997   6.756   3.275   7.792  1.8524 -0.2261 -1.0586
   91MOL    C1828998   7.050   3.448   0.016 -0.2121 -1.0330 -0.1497
   91MOL    O1928999   7.161   3.462   7.755  0.1062  0.0208  0.1984
   91MOL    C2029000   7.275   3.375   7.766  0.0019 -0.5110  0.3545
   91MOL    C2129001   7.383   3.456   7.697  0.4606  0.3856 -0.1369
   91MOL    C2229002   7.358   3.521   7.558  0.1148 -0.0939  0.6136
   91MOL    C2329003   7.025   3.586   0.080  0.4790 -1.1367  0.1454
   91MOL    H2429004   7.080   3.384   0.099  1.0842 -1.1729 -0.7189
   91MOL    H2529005   7.302   3.355   0.042 -1.2812 -1.5513  0.5036
   91MOL    H2629006   7.267   3.284   7.706  1.0210 -0.3137 -0.1050
   91MOL    H2729007   7.476   3.399   7.704  1.0897  1.3982 -0.1272
   91MOL    H2829008   7.395   3.538   7.768 -1.3124  0.3840  0.1828
   91MOL    H2929009   7.360   3.457   7.469  1.2832 -0.4653  0.8893
   91MOL    H3029010   7.430   3.597   7.529 -2.6967  2.0669 -0.9670
   91MOL    H3129011   7.260   3.568   7.550  0.9353  1.7225  1.0360
   91MOL    H3229012   6.990   3.633   7.816 -0.3490 -1.8884  0.0608
   91MOL    H3329013   6.937   3.579   0.144  1.9417  1.1609  2.4967
   91MOL    C3429014   7.144   3.662   0.145  0.1929  0.7724 -0.1183
   91MOL    O3529015   7.087   3.792   0.168  0.0925 -0.0331  0.3294
   91MOL    C3629016   7.083   3.887   0.059 -0.2719  0.8312  0.4140
   91MOL    C3729017   7.014   4.022   0.093  0.2690  0.8318  0.0251
   91MOL    C3829018   6.870   3.996   0.145  0.5209  0.3651  0.3777
   91MOL    C3929019   7.175   3.611   0.284  0.4913  0.2048  0.1593
   91MOL    H4029020   7.238   3.659   0.088 -0.1129  0.5417 -0.6111
   91MOL    H4129021   7.184   3.914   0.029 -1.4411  2.8200 -1.8732
   91MOL    H4229022   7.029   3.844   7.803 -2.2241  2.6606  0.6654
   91MOL    H4329023   7.015   4.095   0.012  0.4441 -0.4316 -1.1403
   91MOL    H4429024   7.063   4.050   0.186  0.3770 -0.0990  0.2548
   91MOL    H4529025   6.816   3.957   0.060  1.0700  2.7541 -1.1157
   91MOL    H4629026   6.821   4.085   0.187 -2.1814 -0.7492 -0.3433
   91MOL    H4729027   6.854   3.922   0.224 -3.4771  0.7039 -0.0261
   91MOL    H4829028   7.104   3.649   0.358 -1.1196  1.1179 -1.8113
   91MOL    H4929029   7.167   3.503   0.287  2.0019  0.0971  3.8116
   91MOL    C5029030   7.314   3.656   0.325  0.3770 -0.7592 -0.1717
   91MOL    O5129031   7.327   3.794   0.299  0.2571 -0.1066  0.1259
   91MOL    C5229032   7.460   3.848   0.314 -0.3148  0.9134  0.0580
   91MOL    C5329033   7.480   3.965   0.219  0.1994  0.1250  0.0132
   91MOL    C5429034   7.386   4.081   0.253 -0.3133  0.2746 -0.3622
   91MOL    C5529035   7.342   3.619   0.482  0.0358 -0.5619  0.8131
   91MOL    H5629036   7.388   3.610   0.261  0.2259 -0.5574 -0.4909
   91MOL    H5729037   7.470   3.870   0.420 -1.8077  0.8875  0.2049
   91MOL    H5829038   7.533   3.768   0.303 -0.5204  0.9460 -1.7711
   91MOL    H5929039   7.473   3.932   0.115  0.3821 -0.5134  0.2066
   91MOL    H6029040   7.582   4.001   0.229  0.1285  1.3419 -2.9892
   91MOL    H6129041   7.386   4.157   0.174  1.7254 -1.2429 -1.8918
   91MOL    H6229042   7.395   4.119   0.355 -0.8026 -1.3186  0.2797
   91MOL    H6329043   7.279   4.064   0.244 -1.0603  3.7123  1.3445
   91MOL    H6429044   7.440   3.660   0.505 -0.2515  1.0038 -0.5768
   91MOL    H6529045   7.262   3.665   0.540 -2.4002 -1.9745 -1.3135
   91MOL    C6629046   7.330   3.470   0.532 -0.2955 -0.0090  0.2242
   91MOL    O6729047   7.426   3.397   0.458  0.0723 -0.7532  0.5486
   91MOL    C6829048   7.389   3.331   0.330 -0.2596 -0.2753  0.5473
   91MOL    C6929049   7.520   3.275   0.270  0.5710  0.7127  0.3241
   91MOL    C7029050   7.624   3.383   0.244 -0.7953  0.1329  0.0650
   91MOL    C7129051   7.375   3.453   0.680 -0.6866 -0.1085  0.1842
   91MOL    H7229052   7.232   3.425   0.518 -0.7611 -0.9630  5.4895
   91MOL    H7329053   7.327   3.244   0.352 -0.4450 -0.5078 -0.8051
   91MOL    H7429054   7.337   3.404   0.268 -1.1192  0.7923  2.4779
   91MOL    H7529055   7.495   3.217   0.181  0.1071  2.9174 -1.0421
   91MOL    H7629056   7.564   3.208   0.343  0.3823  0.1860 -0.0471
   91MOL    H7729057   7.591   3.471   0.188 -0.3602 -0.1572 -0.6466
   91MOL    H7829058   7.697   3.334   0.180 -1.2701 -0.4567 -0.0324
   91MOL    H7929059   7.670   3.417   0.337 -3.7026 -0.7170  1.8834
   91MOL    H8029060   7.480   3.477   0.668 -0.3950 -0.6979  1.4875
   91MOL    H8129061   7.324   3.527   0.742  0.6127 -1.1887  2.6011
   91MOL    C8229062   7.365   3.313   0.744 -0.7443  0.0860  0.7224
   91MOL    O8329063   7.438   3.316   0.869 -0.0661  0.2059 -0.0399
   91MOL    C8429064   7.501   3.188   0.902  0.2878 -0.0902  0.8781
   91MOL    C8529065   7.576   3.207   1.032  0.4735  0.8186 -0.6188
   91MOL    C8629066   7.488   3.271   1.139  0.4710 -0.2638  0.1870
   91MOL    C8729067   7.221   3.272   0.786  0.1072  0.3578  0.4057
   91MOL    H8829068   7.395   3.241   0.668  0.4650  0.7286  0.5929
   91MOL    H8929069   7.425   3.110   0.908 -1.4465  1.4614 -0.3317
   91MOL    H9029070   7.576   3.164   0.828  0.9225 -3.0976  2.4008
   91MOL    H9129071   7.668   3.264   1.020  2.0596 -1.4418  0.5239
   91MOL    H9229072   7.605   3.106   1.059 -2.2413  0.7075  2.1646
   91MOL    H9329073   7.444   3.365   1.108  3.0439  0.6954 -0.7120
   91MOL    H9429074   7.551   3.291   1.225 -0.4912 -0.1264  0.8686
   91MOL    H9529075   7.404   3.207   1.167  0.3775 -0.3910 -0.3809
   91MOL    H9629076   7.226   3.205   0.872 -0.9132 -1.3193 -0.7901
   91MOL    H9729077   7.170   3.362   0.821 -0.4386  0.0204  0.4905
   91MOL    C9829078   7.140   3.189   0.679  0.7078  0.2943 -0.3508
   91MOL    O9929079   7.215   3.068   0.667 -0.4134 -0.3758  0.0078
   91MOL   C10029080   7.209   3.004   0.551  0.4310  0.1330 -0.5664
   91MOL   C10129081   7.329   2.912   0.550 -0.1315 -0.2319  0.0668
   91MOL   C10229082   7.358   2.868   0.406 -0.3395 -0.5163  0.5847
   91MOL   C10329083   7.005   3.132   0.729  0.2335 -0.3123 -0.1687
   91MOL   H10429084   7.137   3.239   0.583  3.1450  0.6226 -0.2912
   91MOL   H10529085   7.117   2.946   0.540  0.5063 -0.3714  1.3682
   91MOL   H10629086   7.213   3.071   0.465 -0.4534  0.3293 -0.4573
   91MOL   H10729087   7.309   2.834   0.624 -0.0210 -0.5553 -0.2403
   91MOL   H10829088   7.407   2.977   0.588  1.9441 -0.3503 -3.8027
   91MOL   H10929089   7.433   2.789   0.401 -0.9403 -1.1033  0.7313
   91MOL   H11029090   7.386   2.955   0.348  0.4544 -0.9981  0.2362
   91MOL   H11129091   7.271   2.827   0.354  0.3126 -0.4321 -0.5785
   91MOL   H11229092   6.955   3.083   0.645 -0.6555  0.1709  0.0637
   91MOL   H11329093   7.022   3.053   0.802  1.7113  0.1491  0.0080
   91MOL   C11429094   6.897   3.229   0.787 -0.0496 -0.4194 -0.4518
   91MOL   O11529095   6.905   3.351   0.718  0.1335 -0.6035 -0.1620
   91MOL   C11629096   6.845   3.463   0.776 -0.0114  0.1021  0.0304
   91MOL   C11729097   6.907   3.587   0.704  0.1609  0.1663  0.3105
   91MOL   C11829098   6.861   3.716   0.772 -0.8399  1.0797 -0.1465
   91MOL   C11929099   6.755   3.166   0.787  0.7279  0.4455 -0.1668
   91MOL   H12029100   6.932   3.252   0.887 -0.6059  2.4782 -0.8887
   91MOL   H12129101   6.737   3.456   0.760  0.1315  1.3441 -1.6188
   91MOL   H12229102   6.865   3.476   0.882 -1.5339  1.1063  0.2120
   91MOL   H12329103   6.871   3.586   0.601  0.5041 -0.4275  0.1909
   91MOL   H12429104   7.015   3.583   0.689 -0.1573 -0.1583 -2.0477
   91MOL   H12529105   6.755   3.734   0.756 -0.7969  2.1073  0.6591
   91MOL   H12629106   6.917   3.803   0.738  0.7963 -0.0006 -0.2534
   91MOL   H12729107   6.876   3.704   0.880 -3.0214  0.6777  0.1356
   91MOL   H12829108   6.691   3.247   0.823  2.2789  1.2778  0.8245
   91MOL   H12929109   6.719   3.150   0.686  1.6608 -1.9798 -0.1293
   91MOL   C13029110   6.740   3.031   0.872  0.1574 -0.8212  0.4574
   91MOL   O13129111   6.777   3.065   1.000  0.2630  0.7496  0.1655
   91MOL   C13229112   6.846   2.972   1.076  0.3876 -0.1627 -0.1030
   91MOL   C13329113   6.876   3.041   1.213  0.0339 -0.1083 -0.0525
   91MOL   C13429114   6.911   2.944   1.334 -0.2458 -0.1825 -0.0573
   91MOL   C13529115   6.606   2.955   0.858 -0.0924 -0.7583  0.3054
   91MOL   H13629116   6.818   2.968   0.827  0.0915 -1.1875  0.8496
   91MOL   H13729117   6.802   2.873   1.088  1.9115 -0.8931 -0.4423
   91MOL   H13829118   6.941   2.971   1.023 -0.4941  0.9889 -1.7599
   91MOL   H13929119   6.794   3.111   1.231 -0.5841  0.0544 -3.3226
   91MOL   H14029120   6.957   3.111   1.197  0.8615 -0.7852  1.0949
   91MOL   H14129121   6.825   2.921   1.398  0.1316  2.6081  1.5691
   91MOL   H14229122   6.988   2.964   1.409  0.1131  0.0900 -0.4969
   91MOL   H14329123   6.939   2.846   1.296 -1.8351  0.4610 -3.0280
   91MOL   H14429124   6.584   2.878   0.931  0.1641 -0.9521  0.1804
   91MOL   H14529125   6.520   3.018   0.880  0.3055 -0.5540  1.3116
   91MOL   C14629126   6.595   2.887   0.722  0.3567 -0.6159  0.3493
   91MOL   O14729127   6.689   2.780   0.714 -0.1289  0.1218  0.0110
   91MOL   C14829128   6.785   2.777   0.610  0.2051 -0.4247  0.8074
   91MOL   C14929129   6.896   2.682   0.661 -0.5375 -0.3916  0.5846
   91MOL   C15029130   6.965   2.714   0.788  0.1412  0.5448 -0.0057
   91MOL   C15129131   6.467   2.812   0.716  0.4319 -0.6504  0.0374
   91MOL   H15229132   6.613   2.949   0.634  1.6844  0.0233  1.0494
   91MOL   H15329133   6.735   2.756   0.515  0.8276  0.2785  0.3184
   91MOL   H15429134   6.830   2.875   0.597  0.2869 -0.8649 -2.5728
   91MOL   H15529135   6.978   2.672   0.591  0.3335 -1.1877  1.6919
   91MOL   H15629136   6.848   2.584   0.661 -0.9142 -0.2235  1.7202
   91MOL   H15729137   7.053   2.650   0.801 -0.4940 -0.6250 -1.3902
   91MOL   H15829138   6.913   2.681   0.878  0.8124  0.9785  0.5487
   91MOL   H15929139   6.998   2.817   0.804  1.9818  0.1738 -1.2996
   91MOL   H16029140   6.478   2.730   0.787 -0.8317 -1.3348 -0.5367
   91MOL   H16129141   6.382   2.875   0.740  1.5766  0.8675  0.1662
   91MOL   C16229142   6.431   2.751   0.580  0.4250 -0.6376  0.7153
   91MOL   O16329143   6.317   2.661   0.599  0.1582 -0.2239 -0.2033
   91MOL   C16429144   6.353   2.526   0.585 -0.1660  0.2885 -0.6321
   91MOL   C16529145   6.227   2.441   0.570  0.4790 -0.4318  0.7491
   91MOL   C16629146   6.122   2.489   0.464  0.7015 -0.3191  0.5959
   91MOL   C16729147   6.375   2.863   0.475  0.7697 -0.6653  0.3808
   91MOL   H16829148   6.516   2.702   0.534 -0.6358 -2.4944  0.6744
   91MOL   H16929149   6.397   2.501   0.488  2.1831  2.1924 -0.1047
   91MOL   H17029150   6.411   2.488   0.669 -0.5590 -1.6408 -1.2027
   91MOL   H17129151   6.168   2.430   0.661  1.3111 -1.1389  1.2021
   91MOL   H17229152   6.259   2.340   0.543  1.5456  0.0092  0.3312
   91MOL   H17329153   6.036   2.423   0.453  0.3659 -0.0410  1.4445
   91MOL   H17429154   6.174   2.492   0.369 -1.5677  0.7656 -0.6363
   91MOL   H17529155   6.080   2.587   0.485 -0.0495 -0.6761  0.7954
   91MOL   H17629156   6.293   2.919   0.520  0.9267  1.4287 -1.8537
   91MOL   H17729157   6.450   2.940   0.458 -0.6505  0.4345 -1.1512
   91MOL   C17829158   6.347   2.806   0.339 -0.4622  0.0081  0.1549
   91MOL   O17929159   6.289   2.901   0.243 -0.2991 -0.3942 -0.1682
   91MOL   C18029160   6.152   2.941   0.266 -0.1121 -0.3106 -0.4485
   91MOL   C18129161   6.056   2.827   0.225 -0.3539 -0.5002  0.3279
   91MOL   C18229162   6.048   2.784   0.080  0.7513  0.2880  0.3616
   91MOL   C18329163   6.474   2.780   0.255 -0.2981 -0.3477 -0.3071
   91MOL   H18429164   6.294   2.710   0.345 -1.2634  0.1655 -3.2860
   91MOL   H18529165   6.133   2.982   0.365  0.8372  3.1259 -1.6023
   91MOL   H18629166   6.127   3.021   0.197 -0.8896  0.4850  0.7417
   91MOL   H18729167   5.954   2.861   0.247  0.4496  2.2882 -0.2120
   91MOL   H18829168   6.072   2.742   0.293 -0.0156  0.6680  1.7289
   91MOL   H18929169   5.945   2.760   0.054  0.4369  1.3116  0.6514
   91MOL   H19029170   6.118   2.703   0.059 -0.5510 -0.5210 -0.9751
   91MOL   H19129171   6.075   2.862   0.008 -0.9334  0.3892 -0.1944
   91MOL   H19229172   6.514   2.872   0.211 -3.6972  1.2319 -0.2189
   91MOL   H19329173   6.545   2.729   0.320  2.4851  1.6586 -1.6275
   91MOL   C19429174   6.441   2.704   0.126  0.0386 -0.8161 -1.0703
   91MOL   O19529175   6.489   2.771   0.014 -0.0232 -0.3652 -0.4410
   91MOL   C19629176   6.397   2.860   7.780  0.6175  0.0479  0.0817
   91MOL   C19729177   6.480   2.936   7.685  0.4158  0.4520  0.2713
   91MOL   C19829178   6.594   3.008   7.752  0.1675  0.6170 -0.7221
   91MOL   C19929179   6.521   2.567   0.130  0.2493 -0.5316  0.2686
   91MOL   H20029180   6.335   2.679   0.119  0.3303 -1.5237 -3.4581
   91MOL   H20129181   6.306   2.813   7.745  0.6250  1.3674 -1.7540
   91MOL   H20229182   6.369   2.932   0.029 -1.1018 -0.2544 -0.2547
   91MOL   H20329183   6.426   3.022   7.645 -1.6041 -0.4035  1.1033
   91MOL   H20429184   6.516   2.863   7.612  1.0546 -1.2159  2.2144
   91MOL   H20529185   6.559   3.053   0.017 -3.8114  0.4732 -2.0973
   91MOL   H20629186   6.641   3.077   7.683  0.5679  1.0304 -0.0465
   91MOL   H20729187   6.679   2.949   7.789 -0.7022  0.7491  1.5862
   91MOL   H20829188   6.628   2.582   0.119 -0.1671  2.4560 -0.0755
   91MOL   H20929189   6.505   2.521   0.228  3.7611  0.7633  1.5332
   91MOL   C21029190   6.480   2.457   0.030  1.2363 -0.9866 -0.3521
   91MOL   O21129191   6.561   2.346   0.066 -0.0218  0.2605 -0.4857
   91MOL   C21229192   6.689   2.333   0.014  0.5478  0.0352  0.4473
   91MOL   C21329193   6.731   2.181   0.019  0.3503 -0.2145 -0.2628
   91MOL   C21429194   6.753   2.134   0.166  0.0570  0.1799  0.4875
   91MOL   C21529195   6.336   2.405   0.057 -0.3331  1.0749  0.2299
   91MOL   H21629196   6.489   2.490   7.755 -1.3318  0.6170 -0.1072
   91MOL   H21729197   6.675   2.373   7.742  0.6689  1.4797  0.9960
   91MOL   H21829198   6.753   2.396   0.077  0.9590 -1.7419  1.8534
   91MOL   H21929199   6.826   2.181   7.793  0.0114 -1.0898 -0.8714
   91MOL   H22029200   6.656   2.128   7.790 -2.1707 -0.2251  2.9313
   91MOL   H22129201   6.819   2.203   0.218  1.6833 -0.8105 -0.2296
   91MOL   H22229202   6.795   2.033   0.159  1.6011  0.8583 -0.1895
   91MOL   H22329203   6.660   2.130   0.222 -0.6715 -0.9838 -0.7746
   91MOL   H22429204   6.335   2.361   0.157  0.4626  1.5853  0.4717
   91MOL   H22529205   6.255   2.474   0.035 -2.1865 -0.8796  0.7668
   91MOL   C22629206   6.311   2.281   7.798  0.1922  0.6041  0.5677
   91MOL   O22729207   6.184   2.234   0.007 -0.4006  0.1767 -0.1712
   91MOL   C22829208   6.185   2.105   0.069 -0.1905 -1.2501 -0.5187
   91MOL   C22929209   6.048   2.091   0.136  0.3337 -0.4081  0.3245
   91MOL   C23029210   6.005   2.208   0.224 -0.1244  0.3055 -0.2663
   91MOL   C23129211   6.303   2.301   7.648 -0.1938 -0.3683 -0.0022
   91MOL   H23229212   6.386   2.204   7.816  0.3697  0.6290 -0.0496
   91MOL   H23329213   6.208   2.021   0.003  1.5479 -0.4658 -0.9527
   91MOL   H23429214   6.261   2.107   0.147 -1.4650 -2.4643  0.7839
   91MOL   H23529215   6.038   1.999   0.195  0.3414 -0.1044  0.7982
   91MOL   H23629216   5.980   2.097   0.051 -0.1295  2.3714  0.8615
   91MOL   H23729217   6.014   2.299   0.164 -1.3052 -0.0404 -0.9728
   91MOL   H23829218   6.076   2.219   0.306 -1.4929 -2.3411  1.3387
   91MOL   H23929219   5.903   2.197   0.261 -0.4645 -0.3046 -1.3693
   91MOL   H24029220   6.199   2.283   7.619 -0.5212 -0.6037  1.3043
   91MOL   H24129221   6.325   2.405   7.621 -0.6047 -0.1841  0.3752
   91MOL   C24229222   6.393   2.209   7.560 -0.0799 -0.0966  0.0563
   91MOL   O24329223   6.355   2.081   7.598 -0.0058 -0.4325 -0.2644
   91MOL   C24429224   6.425   1.976   7.540 -0.7752  0.4154 -0.0197
   91MOL   C24529225   6.377   1.839   7.594  0.2021  0.1065 -0.1417
   91MOL   C24629226   6.443   1.819   7.732  0.1378 -0.1316 -0.4033
   91MOL   C24729227   6.396   2.238   7.406  0.0484  0.0469 -0.4491
   91MOL   H24829228   6.497   2.211   7.593  0.2168  0.4303 -0.9148
   91MOL   H24929229   6.400   1.968   7.434 -1.5484  0.1743  0.1743
   91MOL   H25029230   6.532   1.980   7.558 -0.4651 -2.2406 -1.1379
   91MOL   H25129231   6.406   1.764   7.521 -0.3970 -0.2267 -0.0434
   91MOL   H25229232   6.268   1.840   7.601  0.1565 -3.2817  0.3880
   91MOL   H25329233   6.404   1.892   7.803 -2.2779 -0.7798 -1.0222
   91MOL   H25429234   6.549   1.838   7.719  0.2205 -1.6235 -2.0667
   91MOL   H25529235   6.437   1.715   7.764  2.1209 -1.2602 -3.5266
   91MOL   H25629236   6.447   2.164   7.345 -1.8534 -0.7515 -1.1002
   91MOL   H25729237   6.292   2.217   7.382  0.1912  0.4964 -1.4638
   91MOL   C25829238   6.445   2.370   7.350 -0.6029 -0.9138 -0.0319
   91MOL   O25929239   6.353   2.469   7.403 -0.2773 -0.2713  0.0491
   91MOL   C26029240   6.244   2.504   7.324 -0.1293 -0.6305 -0.5759
   91MOL   C26129241   6.169   2.622   7.392  0.2356 -0.2343 -0.7603
   91MOL   C26229242   6.103   2.570   7.519 -0.2069  0.1242 -0.4059
   91MOL   C26329243   6.593   2.407   7.375  0.8206 -0.0965 -0.3471
   91MOL   H26429244   6.431   2.368   7.241 -1.9760 -0.0889  0.1148
   91MOL   H26529245   6.289   2.533   7.229  1.5025  0.3522  0.4689
   91MOL   H26629246   6.181   2.418   7.300  2.3167 -2.0754 -2.0337
   91MOL   H26729247   6.089   2.636   7.319 -1.2525 -0.2714  0.8581
   91MOL   H26829248   6.227   2.714   7.407  0.4667 -0.2908 -1.2793
   91MOL   H26929249   6.017   2.635   7.537 -1.1339 -0.6477 -1.9355
   91MOL   H27029250   6.170   2.573   7.605  1.0643  1.3782 -1.4165
   91MOL   H27129251   6.067   2.468   7.509  1.3534 -0.4093 -0.6983
   91MOL   H27229252   6.620   2.398   7.481 -0.5183 -0.4578 -0.0148
   91MOL   H27329253   6.660   2.337   7.326  0.0392 -1.0938 -0.0050
   91MOL   C27429254   6.643   2.548   7.333 -0.2005  0.2037 -0.4495
   91MOL   O27529255   6.730   2.584   7.438  0.1102 -0.4623 -0.1755
   91MOL   C27629256   6.668   2.664   7.537 -0.0973 -0.9143  0.1535
   91MOL   C27729257   6.776   2.711   7.637 -0.4926  0.4681 -0.4673
   91MOL   C27829258   6.890   2.801   7.592 -0.6574 -0.6663 -0.2145
   91MOL   C27929259   6.743   2.539   7.216 -0.9612 -0.1940 -0.2627
   91MOL   H28029260   6.567   2.627   7.329  0.7261  1.1807  0.6719
   91MOL   H28129261   6.637   2.758   7.491 -2.1309 -1.6879 -0.1090
   91MOL   H28229262   6.582   2.613   7.581 -0.2868 -0.4683  0.3011
   91MOL   H28329263   6.812   2.623   7.690 -1.5117 -1.5774 -3.0808
   91MOL   H28429264   6.736   2.758   7.726  2.6435 -1.7174  2.2415
   91MOL   H28529265   6.967   2.829   7.663  0.0328  1.6492 -1.8342
   91MOL   H28629266   6.858   2.889   7.536  2.4526 -0.6896 -2.1145
   91MOL   H28729267   6.951   2.753   7.516  0.2447  1.8406 -1.1185
   91MOL   H28829268   6.806   2.628   7.217 -0.9859 -0.1672 -0.8877
   91MOL   H28929269   6.803   2.449   7.225  1.0674  1.5109  4.5914
   91MOL   C29029270   6.674   2.535   7.083  0.2375  0.4553  0.0034
   91MOL   O29129271   6.620   2.666   7.067 -0.1725  0.5473  0.2322
   91MOL   C29229272   6.502   2.677   6.986 -0.0339 -0.4019  0.4868
   91MOL   C29329273   6.500   2.826   6.956  0.4920 -0.1775 -0.3398
   91MOL   C29429274   6.455   2.900   7.083  0.0393  0.0003  0.0695
   91MOL   C29529275   6.762   2.495   6.961  0.0213 -0.3689 -0.1616
   91MOL   H29629276   6.592   2.462   7.082 -0.1776  0.9256 -0.5698
   91MOL   H29729277   6.517   2.619   6.895  1.4511  2.0939 -0.8960
   91MOL   H29829278   6.412   2.642   7.037  0.5645 -1.8060  0.6084
   91MOL   H29929279   6.443   2.858   6.869 -0.6541 -2.0082 -0.3025
   91MOL   H30029280   6.598   2.862   6.926  0.5763 -0.9231 -0.9694
   91MOL   H30129281   6.527   2.890   7.165 -0.3770  1.1002  0.5701
   91MOL   H30229282   6.359   2.869   7.125  1.7505 -2.9285  1.9957
   91MOL   H30329283   6.441   3.004   7.053  0.1999 -0.0336 -0.1226
   91MOL   H30429284   6.692   2.491   6.877 -1.6787 -0.6742  1.2471
   91MOL   H30529285   6.821   2.583   6.934 -0.2823  0.2133  1.0370
   91MOL   C30629286   6.844   2.366   6.973  0.4013  0.6134 -0.0406
   91MOL   O30729287   6.751   2.262   6.988 -0.2339 -0.0825  0.1288
   91MOL   C30829288   6.793   2.166   7.080  0.0635 -0.8214 -0.1517
   91MOL   C30929289   6.696   2.048   7.087 -0.1248 -0.7097 -0.5122
   91MOL   C31029290   6.713   1.951   7.200 -0.2670 -0.3155 -0.0957
   91MOL   C31129291   6.932   2.350   6.848  0.5934  0.0639 -0.7279
   91MOL   H31229292   6.917   2.371   7.053  0.6082  0.2271 -0.1983
   91MOL   H31329293   6.894   2.130   7.061  1.3635  2.0664  0.9030
   91MOL   H31429294   6.791   2.214   7.178 -0.4588 -0.3590 -0.3836
   91MOL   H31529295   6.707   1.999   6.990  0.7379 -1.5040 -0.0146
   91MOL   H31629296   6.595   2.091   7.086  1.0847  2.4039  2.3789
   91MOL   H31729297   6.679   1.850   7.178  1.3325 -0.9022  0.0137
   91MOL   H31829298   6.657   2.006   7.276  1.3588  2.6928 -1.0125
   91MOL   H31929299   6.818   1.943   7.230 -0.2598  0.0243 -0.0267
   91MOL   H32029300   7.002   2.432   6.830  0.5100  0.9077  2.5511
   91MOL   H32129301   6.993   2.259   6.842 -0.2204 -0.7530  2.6272
   91MOL   H32229302   6.868   2.360   6.761 -0.2160 -2.0399 -0.4048
   92MOL     C129303   6.978   3.564   4.114 -0.6493 -0.3178  0.0328
   92MOL     O229304   6.936   3.475   4.224 -0.3967 -0.0086 -0.0974
   92MOL     C329305   6.838   3.532   4.317  0.0200 -0.0718  0.4012
   92MOL     C429306   6.784   3.429   4.415  0.9568  0.5622  0.0446
   92MOL     C529307   6.694   3.325   4.334 -0.6017  0.3311  0.9467
   92MOL     C629308   7.118   3.503   4.079  0.3787  0.4827  0.0864
   92MOL     H729309   6.982   3.664   4.157 -0.1719 -0.0672 -0.5908
   92MOL     H829310   6.869   3.623   4.368  0.4907  0.3736 -0.6699
   92MOL     H929311   6.761   3.572   4.250 -0.5442 -1.0326  0.4726
   92MOL    H1029312   6.731   3.475   4.499 -2.9162 -1.1900 -1.3248
   92MOL    H1129313   6.867   3.379   4.465 -1.3373 -0.0422  3.4214
   92MOL    H1229314   6.642   3.250   4.394  1.7867 -1.3254  1.0128
   92MOL    H1329315   6.767   3.269   4.274  0.5153  1.4484  1.2413
   92MOL    H1429316   6.632   3.393   4.276  0.0646 -0.2863 -0.5165
   92MOL    H1529317   7.174   3.489   4.171  0.9453 -1.4469 -0.5323
   92MOL    H1629318   7.101   3.397   4.061  0.8335  0.2425  1.0476
   92MOL    H1729319   6.911   3.565   4.028  0.9761  1.1863 -1.2628
   92MOL    C1829320   7.193   3.576   3.963 -0.1775  0.1158 -0.2470
   92MOL    O1929321   7.111   3.583   3.849 -0.1683 -0.0681  0.0365
   92MOL    C2029322   7.096   3.468   3.763 -0.3719 -1.0689  0.2752
   92MOL    C2129323   6.963   3.474   3.684  0.4709  0.2865 -0.1046
   92MOL    C2229324   6.958   3.576   3.575 -0.1599  0.0539  0.5831
   92MOL    C2329325   7.239   3.713   4.004 -0.1319 -1.1841  1.3179
   92MOL    H2429326   7.285   3.520   3.946 -0.4292 -0.2614 -0.3819
   92MOL    H2529327   7.178   3.455   3.693 -0.8410  2.4840 -1.0553
   92MOL    H2629328   7.098   3.374   3.817  0.5077 -1.4663 -0.4418
   92MOL    H2729329   6.876   3.474   3.750  0.5069  1.9110 -0.0418
   92MOL    H2829330   6.964   3.378   3.632  0.1108  0.8429 -1.1409
   92MOL    H2929331   6.973   3.673   3.623 -1.5283  1.1359 -1.0839
   92MOL    H3029332   6.855   3.578   3.538 -0.0198  0.6971  0.2119
   92MOL    H3129333   7.020   3.561   3.487 -0.1695 -2.0831  0.9334
   92MOL    H3229334   7.282   3.747   3.910 -0.8367  0.6420  1.6440
   92MOL    H3329335   7.148   3.771   4.020  1.8602  2.2694  0.6509
   92MOL    C3429336   7.337   3.720   4.118 -0.2481 -0.4683 -0.4028
   92MOL    O3529337   7.454   3.643   4.083  1.0293 -0.9645 -0.5425
   92MOL    C3629338   7.471   3.525   4.164 -0.6364  0.2061 -0.1939
   92MOL    C3729339   7.595   3.451   4.137 -0.8270 -0.2142  0.2767
   92MOL    C3829340   7.617   3.351   4.252  0.4206 -0.1776 -0.3831
   92MOL    C3929341   7.367   3.871   4.131 -0.3115  0.0460 -0.4203
   92MOL    H4029342   7.284   3.687   4.207  1.1214  1.1887  1.0852
   92MOL    H4129343   7.485   3.558   4.267 -0.1433 -1.4576  0.2766
   92MOL    H4229344   7.392   3.452   4.147  1.2570 -1.6994 -0.8950
   92MOL    H4329345   7.687   3.509   4.133 -0.1012 -1.1032  3.2506
   92MOL    H4429346   7.595   3.392   4.045  2.2384  0.8550 -0.4642
   92MOL    H4529347   7.551   3.264   4.253  0.1220  0.0449 -1.1334
   92MOL    H4629348   7.620   3.398   4.351  0.0409 -2.1872  0.6160
   92MOL    H4729349   7.714   3.302   4.243 -0.4408 -2.0234 -0.0252
   92MOL    H4829350   7.435   3.890   4.048 -0.3955 -1.5142 -0.8531
   92MOL    H4929351   7.288   3.944   4.115  0.4920  1.3865  1.4830
   92MOL    C5029352   7.433   3.906   4.270  0.3314 -0.0791 -0.4628
   92MOL    O5129353   7.551   3.983   4.247 -0.3121  0.2800  0.1034
   92MOL    C5229354   7.668   3.910   4.214  0.0327  0.0537  0.4700
   92MOL    C5329355   7.768   3.987   4.123 -0.1914  0.6726 -0.1425
   92MOL    C5429356   0.065   3.897   4.091 -0.2398 -0.1934 -0.2242
   92MOL    C5529357   7.343   3.993   4.358  0.2313 -0.1507 -0.3738
   92MOL    H5629358   7.462   3.813   4.318  1.1935  1.6488  2.5233
   92MOL    H5729359   7.718   3.883   4.307  0.8895  4.5945  1.4812
   92MOL    H5829360   7.642   3.810   4.181 -0.9347  0.1067  1.0565
   92MOL    H5929361   7.798   4.080   4.172  2.0154 -0.2848  0.3994
   92MOL    H6029362   7.713   4.016   4.033 -0.1359 -2.8512 -1.3815
   92MOL    H6129363   0.110   3.943   4.003  0.9724 -1.7453 -0.4323
   92MOL    H6229364   0.031   3.796   4.070 -0.8839 -0.2155  0.8962
   92MOL    H6329365   0.141   3.909   4.168  0.1207  1.4635 -0.8151
   92MOL    H6429366   7.398   4.017   4.448 -0.0405 -1.9668  0.2972
   92MOL    H6529367   7.315   4.084   4.305 -1.3203 -1.6524 -2.2685
   92MOL    C6629368   7.217   3.911   4.397  0.1620  0.5794  0.1269
   92MOL    O6729369   7.256   3.795   4.464 -0.6114  0.1209 -0.0301
   92MOL    C6829370   7.148   3.694   4.465  0.2653  0.9813  0.3178
   92MOL    C6929371   7.216   3.561   4.467 -0.3523  0.8921 -0.6365
   92MOL    C7029372   7.253   3.511   4.606  0.4377 -0.0113 -0.1232
   92MOL    C7129373   7.106   3.987   4.481  0.6489  0.4491 -0.4494
   92MOL    H7229374   7.171   3.876   4.304 -0.9587  0.5002  0.7160
   92MOL    H7329375   7.085   3.703   4.554 -1.5259  1.6948 -1.0068
   92MOL    H7429376   7.089   3.692   4.374 -0.5890  0.6607  0.8717
   92MOL    H7529377   7.311   3.553   4.415  0.6227  0.7079  1.1340
   92MOL    H7629378   7.136   3.496   4.431 -1.3557  1.9251 -0.3252
   92MOL    H7729379   7.269   3.404   4.598 -0.7204 -0.1449 -0.7598
   92MOL    H7829380   7.173   3.517   4.680 -0.8063  2.6500 -1.6005
   92MOL    H7929381   7.347   3.552   4.644 -0.4329  0.1690  1.9166
   92MOL    H8029382   7.036   3.915   4.524 -0.5233  1.1643 -1.1476
   92MOL    H8129383   7.152   4.034   4.568 -0.9662 -1.4325  1.4818
   92MOL    C8229384   7.028   4.093   4.391 -0.3336  0.3212  0.4299
   92MOL    O8329385   6.942   4.009   4.316 -0.5538  0.4901  0.3952
   92MOL    C8429386   6.938   4.045   4.184  0.5606 -0.2142  0.3490
   92MOL    C8529387   6.825   3.963   4.109  0.2261  0.0447  0.2418
   92MOL    C8629388   6.824   3.997   3.958  0.6106 -0.2290 -0.8160
   92MOL    C8729389   6.940   4.183   4.467 -0.5835  0.1098 -0.6629
   92MOL    H8829390   7.104   4.151   4.338  1.8428 -1.7548  1.1651
   92MOL    H8929391   6.924   4.153   4.183 -0.3083 -0.3295 -0.3454
   92MOL    H9029392   7.029   4.027   4.126  1.5313  0.3259  1.6714
   92MOL    H9129393   6.725   3.996   4.140 -0.4259 -0.4467 -1.2902
   92MOL    H9229394   6.837   3.857   4.127 -0.4005 -0.4322 -1.9320
   92MOL    H9329395   6.749   3.949   3.895  1.5283 -1.3032 -1.0966
   92MOL    H9429396   6.901   3.927   3.927 -0.0825 -1.1115 -0.5924
   92MOL    H9529397   6.842   4.100   3.928  2.0969 -0.7128 -1.6632
   92MOL    H9629398   6.856   4.215   4.405 -0.6225 -0.2339 -0.7892
   92MOL    H9729399   6.899   4.114   4.541  3.5902 -3.6990 -1.6702
   92MOL    C9829400   7.017   4.299   4.540 -0.6129 -0.2424  1.1835
   92MOL    O9929401   7.033   4.412   4.459  0.5193  0.3808 -0.4965
   92MOL   C10029402   7.158   4.483   4.487  0.6303  0.2182 -1.0080
   92MOL   C10129403   7.148   4.592   4.387 -0.0078  0.5849  0.5176
   92MOL   C10229404   7.012   4.674   4.394  0.1010  0.3281  0.0562
   92MOL   C10329405   6.935   4.356   4.662  0.5366  0.3161  0.4353
   92MOL   H10429406   7.115   4.269   4.578 -1.2147 -1.9590  1.4380
   92MOL   H10529407   7.161   4.524   4.588  0.8768 -1.9671 -0.1102
   92MOL   H10629408   7.252   4.432   4.466  0.9886  1.5609 -2.8320
   92MOL   H10729409   7.171   4.548   4.290 -0.2977  1.2797  0.1285
   92MOL   H10829410   7.236   4.654   4.405  1.1945 -1.1409  0.7073
   92MOL   H10929411   7.009   4.721   4.492  2.0884 -2.2021  1.3959
   92MOL   H11029412   6.919   4.616   4.388 -0.1238  0.5628  1.2191
   92MOL   H11129413   7.015   4.760   4.328  1.1890  1.1402  1.1471
   92MOL   H11229414   6.953   4.459   4.691 -4.7423  1.0182  1.6516
   92MOL   H11329415   6.831   4.337   4.635  0.8924 -0.5143 -0.3909
   92MOL   C11429416   6.972   4.280   4.796 -0.4251  1.2346 -0.7733
   92MOL   O11529417   7.105   4.334   4.832 -0.7457 -0.2443 -0.3038
   92MOL   C11629418   7.189   4.233   4.876 -0.1932  0.0021 -0.2503
   92MOL   C11729419   7.329   4.296   4.911 -0.2547  0.0703  0.5794
   92MOL   C11829420   7.402   4.334   4.783  1.0752 -0.3304  0.1143
   92MOL   C11929421   6.874   4.297   4.904  0.2592  0.6104 -0.6545
   92MOL   H12029422   6.974   4.176   4.763  2.5368  0.7066  0.8496
   92MOL   H12129423   7.143   4.192   4.966  2.6441 -1.6371  0.4938
   92MOL   H12229424   7.188   4.156   4.799  1.1663 -1.7413  1.4409
   92MOL   H12329425   7.390   4.215   4.950 -0.1426  0.5749  1.4571
   92MOL   H12429426   7.323   4.385   4.974 -1.0335  0.9586 -0.7253
   92MOL   H12529427   7.498   4.373   4.815  0.3023  0.8529  1.0680
   92MOL   H12629428   7.345   4.418   4.742  0.5234 -1.1023 -0.7342
   92MOL   H12729429   7.415   4.253   4.711 -1.8510 -0.4791 -0.3414
   92MOL   H12829430   6.922   4.268   4.998  0.8989  1.1074 -0.8208
   92MOL   H12929431   6.837   4.399   4.908 -1.1084  0.0681  1.7906
   92MOL   C13029432   6.752   4.206   4.898  0.0188 -0.5710  0.7338
   92MOL   O13129433   6.678   4.252   4.788  0.3766  0.2853  0.1946
   92MOL   C13229434   6.539   4.212   4.764  0.2197 -0.5920  0.2364
   92MOL   C13329435   6.495   4.247   4.619 -0.8087 -0.6449 -0.2347
   92MOL   C13429436   6.496   4.406   4.605 -0.1683  0.1984 -0.2474
   92MOL   C13529437   6.772   4.049   4.892 -0.3237  1.0291 -0.2476
   92MOL   H13629438   6.700   4.222   4.992  1.3444  1.4802  1.1492
   92MOL   H13729439   6.528   4.105   4.781  0.6916 -0.8455 -1.0014
   92MOL   H13829440   6.480   4.261   4.841  2.0049 -0.0264  1.2891
   92MOL   H13929441   6.392   4.220   4.596 -0.8867  1.5746 -2.7974
   92MOL   H14029442   6.557   4.206   4.540 -1.1466 -1.1495 -0.2421
   92MOL   H14129443   6.596   4.445   4.620  0.0667 -1.8449  4.2384
   92MOL   H14229444   6.433   4.461   4.675  2.5225  0.9787  1.6021
   92MOL   H14329445   6.446   4.443   4.514  1.0408 -1.7938 -1.7512
   92MOL   H14429446   6.678   3.994   4.901 -0.1784  0.6999 -0.7749
   92MOL   H14529447   6.814   4.025   4.795 -0.4652  0.2497 -0.1169
   92MOL   C14629448   6.861   3.996   4.999 -1.0356 -0.3224  0.5862
   92MOL   O14729449   6.808   4.045   5.123 -0.1767 -0.4288  0.4096
   92MOL   C14829450   6.901   4.033   5.230  0.4490 -0.1374  0.1279
   92MOL   C14929451   6.845   4.111   5.350  0.5813  0.0371  0.3746
   92MOL   C15029452   6.879   4.260   5.337 -0.1375 -0.1813  0.1829
   92MOL   C15129453   6.868   3.842   4.991 -0.6735  0.1880  0.0805
   92MOL   H15229454   6.958   4.039   4.973 -0.6433  0.0868  2.6660
   92MOL   H15329455   6.906   3.930   5.265 -0.2232 -0.0377  0.5410
   92MOL   H15429456   6.999   4.077   5.216 -0.0023  0.0270 -2.7106
   92MOL   H15529457   6.875   4.064   5.444 -0.6650  0.3325  0.9238
   92MOL   H15629458   6.738   4.105   5.330  1.1472 -0.9331 -2.6416
   92MOL   H15729459   6.876   4.297   5.234 -1.3687 -0.0814  0.2477
   92MOL   H15829460   6.984   4.279   5.360  0.0452  1.3657 -1.7775
   92MOL   H15929461   6.811   4.323   5.394 -0.3906 -0.9564  0.7335
   92MOL   H16029462   6.911   3.801   5.083 -0.3853 -1.7998 -0.8962
   92MOL   H16129463   6.769   3.799   4.981 -1.0912  0.6859  1.9288
   92MOL   C16229464   6.962   3.784   4.880  0.0341  0.3133  0.4093
   92MOL   O16329465   7.095   3.811   4.924 -0.6969  0.1431 -0.4621
   92MOL   C16429466   7.199   3.800   4.830 -0.4540 -0.4700 -0.6293
   92MOL   C16529467   7.320   3.786   4.923 -0.1325  0.1651  0.0830
   92MOL   C16629468   7.327   3.655   4.999 -0.0785 -0.2059  0.1426
   92MOL   C16729469   6.942   3.632   4.858  0.0881  0.1472  0.1735
   92MOL   H16829470   6.948   3.838   4.787  0.3169  0.3545  0.3905
   92MOL   H16929471   7.191   3.716   4.761  0.6817 -1.1028 -0.0180
   92MOL   H17029472   7.210   3.891   4.772  0.1576  0.6753  1.2395
   92MOL   H17129473   7.324   3.868   4.995  1.4093  0.2229 -0.0509
   92MOL   H17229474   7.413   3.787   4.866 -0.8531  0.6781 -1.1208
   92MOL   H17329475   7.318   3.569   4.933 -0.8762  1.3345 -1.8265
   92MOL   H17429476   7.263   3.648   5.087  0.7969 -0.0726  0.7998
   92MOL   H17529477   7.427   3.663   5.042  0.7334 -0.1800 -1.6708
   92MOL   H17629478   7.025   3.572   4.823  0.4832 -0.0799  1.4953
   92MOL   H17729479   6.921   3.585   4.954  2.7279  1.0674  1.2121
   92MOL   C17829480   6.815   3.593   4.781  1.0689  0.1392  0.4211
   92MOL   O17929481   6.813   3.671   4.659  0.2687  0.3243  0.1553
   92MOL   C18029482   6.683   3.729   4.634 -0.8062 -0.0265  0.3353
   92MOL   C18129483   6.690   3.819   4.512  0.5347  0.5928 -0.0562
   92MOL   C18229484   6.549   3.874   4.481 -0.4419  0.4987  0.1475
   92MOL   C18329485   6.799   3.439   4.752  0.1909 -0.2426  0.2188
   92MOL   H18429486   6.731   3.620   4.846 -0.2339 -4.7278  0.8956
   92MOL   H18529487   6.605   3.655   4.618  0.1226 -1.3033  1.6228
   92MOL   H18629488   6.657   3.793   4.718 -0.9863  0.7542 -0.3029
   92MOL   H18729489   6.741   3.768   4.430  0.5864 -0.1709  0.4509
   92MOL   H18829490   6.756   3.902   4.537 -0.3457  1.6173 -1.0582
   92MOL   H18929491   6.558   3.952   4.405  0.3492  0.2092 -0.0630
   92MOL   H19029492   6.502   3.915   4.570  1.9928  1.4582  1.0378
   92MOL   H19129493   6.482   3.794   4.450  1.1552 -0.7866 -0.0882
   92MOL   H19229494   6.711   3.419   4.692  0.3909 -1.1386  0.2291
   92MOL   H19329495   6.885   3.398   4.699 -0.6156 -2.0696  0.3059
   92MOL   C19429496   6.776   3.350   4.881 -0.1531  0.2177  0.0440
   92MOL   O19529497   6.663   3.405   4.946 -0.3564 -0.8633 -0.4897
   92MOL   C19629498   6.680   3.423   5.085 -0.0795 -0.4727 -0.7534
   92MOL   C19729499   6.560   3.485   5.157  0.8508  0.1997  1.4499
   92MOL   C19829500   6.427   3.412   5.124 -0.0344  0.0342 -0.0243
   92MOL   C19929501   6.749   3.206   4.846  0.3387 -0.3027 -0.0514
   92MOL   H20029502   6.864   3.354   4.944  1.3369  2.7264 -2.0869
   92MOL   H20129503   6.710   3.330   5.132  1.8152 -0.0954 -1.1810
   92MOL   H20229504   6.756   3.499   5.101 -0.6572  0.3400 -1.7821
   92MOL   H20329505   6.561   3.593   5.138  0.7462 -0.0178  0.1072
   92MOL   H20429506   6.582   3.478   5.263 -0.7124  2.3388  1.9605
   92MOL   H20529507   6.435   3.309   5.159  2.5090  0.6603  1.3821
   92MOL   H20629508   6.400   3.412   5.019  1.2908 -1.2295 -0.3761
   92MOL   H20729509   6.349   3.462   5.181  1.6087  1.4598  1.0593
   92MOL   H20829510   6.698   3.166   4.934 -0.1447  0.7075  0.1369
   92MOL   H20929511   6.667   3.198   4.774 -0.5203  0.7901  0.8013
   92MOL   C21029512   6.874   3.116   4.818  0.4743  0.3846  0.5897
   92MOL   O21129513   6.950   3.098   4.936 -0.5251 -0.7302 -0.6383
   92MOL   C21229514   7.087   3.084   4.920 -0.1376 -0.9066  0.2589
   92MOL   C21329515   7.158   3.170   5.025 -0.1875 -0.0591 -0.1057
   92MOL   C21429516   7.134   3.323   5.011 -0.2077 -0.7189  0.1670
   92MOL   C21529517   6.840   2.981   4.762  0.9963 -0.0788  0.0892
   92MOL   H21629518   6.936   3.166   4.744 -0.7080 -0.5450 -1.0722
   92MOL   H21729519   7.113   2.981   4.939  0.6651 -0.8982 -0.7803
   92MOL   H21829520   7.137   3.099   4.824  0.2152  0.8165  0.6854
   92MOL   H21929521   7.265   3.153   5.015 -0.1857 -0.3476  0.3826
   92MOL   H22029522   7.109   3.127   5.113  0.6784  1.1850  1.0095
   92MOL   H22129523   7.224   3.375   5.046 -0.4161 -0.9882  1.1227
   92MOL   H22229524   7.050   3.364   5.067  2.0890  1.0240  2.4477
   92MOL   H22329525   7.146   3.353   4.907 -1.9616 -0.4139  0.0431
   92MOL   H22429526   6.911   2.900   4.779  0.4509 -1.0068 -1.8618
   92MOL   H22529527   6.752   2.929   4.799  1.9250 -1.1158  0.8400
   92MOL   C22629528   6.824   2.980   4.611 -0.1272 -0.6880 -0.1070
   92MOL   O22729529   6.957   2.995   4.557 -0.1013 -0.1704 -0.0368
   92MOL   C22829530   6.969   3.082   4.441 -0.0927 -0.2629  0.8980
   92MOL   C22929531   7.110   3.084   4.376 -0.1409  0.5116 -0.0145
   92MOL   C23029532   7.123   3.191   4.268  0.7875  0.1336  0.9571
   92MOL   C23129533   6.765   2.850   4.557  0.1343 -0.3535 -0.1868
   92MOL   H23229534   6.757   3.059   4.576  0.6877 -0.2351 -0.6621
   92MOL   H23329535   6.903   3.058   4.358  1.8962 -0.0460 -0.8003
   92MOL   H23429536   6.953   3.185   4.474  1.4522  0.7660 -1.3845
   92MOL   H23529537   7.138   2.986   4.338  1.1360  0.3617  1.2525
   92MOL   H23629538   7.180   3.103   4.457  0.2740 -0.1927 -0.2036
   92MOL   H23729539   7.042   3.175   4.198  0.8034 -1.8459  1.3521
   92MOL   H23829540   7.211   3.158   4.212  0.0507  0.4567 -0.4013
   92MOL   H23929541   7.131   3.297   4.295 -2.2926  0.8078 -0.6031
   92MOL   H24029542   6.806   2.837   4.457  0.4250 -1.7976  0.1134
   92MOL   H24129543   6.808   2.769   4.615 -2.1988 -2.4041 -1.2165
   92MOL   C24229544   6.611   2.837   4.547  0.2296  0.2253  1.2954
   92MOL   O24329545   6.563   2.896   4.423  0.0689 -0.2266 -0.3659
   92MOL   C24429546   6.426   2.944   4.431 -0.3823  0.1727  0.0665
   92MOL   C24529547   6.387   2.980   4.287  0.1936  0.0467 -0.1273
   92MOL   C24629548   6.238   3.003   4.261 -0.1123  0.6470 -1.1317
   92MOL   C24729549   6.560   2.690   4.559 -0.1567 -0.9154  0.1961
   92MOL   H24829550   6.581   2.909   4.623 -0.1013  2.3095 -0.7441
   92MOL   H24929551   6.375   2.851   4.456 -1.1042  0.3554 -0.7096
   92MOL   H25029552   6.417   3.027   4.501  0.6800 -0.7393  1.3333
   92MOL   H25129553   6.422   2.906   4.215  0.8304  0.1090  0.1076
   92MOL   H25229554   6.453   3.063   4.262 -0.0956  0.9504  1.9680
   92MOL   H25329555   6.198   2.904   4.283  3.0410 -0.2940  0.6089
   92MOL   H25429556   6.217   3.024   4.156  2.1974 -0.2902 -1.8002
   92MOL   H25529557   6.191   3.082   4.320 -0.1088 -0.0568 -0.1626
   92MOL   H25629558   6.456   2.685   4.528  0.2951  0.7848 -1.6773
   92MOL   H25729559   6.605   2.624   4.485 -0.5248 -0.8257 -0.1043
   92MOL   C25829560   6.566   2.632   4.702 -0.6459  0.3415  0.1109
   92MOL   O25929561   6.497   2.717   4.795  0.1966 -0.2200 -0.5163
   92MOL   C26029562   6.558   2.729   4.922 -0.3259 -0.1536  0.2942
   92MOL   C26129563   6.480   2.827   5.005  0.1376  0.4346  0.0340
   92MOL   C26229564   6.465   2.962   4.940  0.1428  0.1728 -1.0202
   92MOL   C26329565   6.490   2.496   4.710 -0.3720  0.6292 -0.8235
   92MOL   H26429566   6.669   2.608   4.726 -1.4653 -0.7557  2.6112
   92MOL   H26529567   6.542   2.631   4.966  1.0969 -0.5420 -0.0249
   92MOL   H26629568   6.664   2.752   4.926 -0.6640  1.7465 -0.8337
   92MOL   H26729569   6.530   2.832   5.102  4.5445 -1.0966 -2.0263
   92MOL   H26829570   6.382   2.783   5.024  0.9576 -1.2982  0.4216
   92MOL   H26929571   6.398   3.026   4.996  0.1240  0.8398 -1.7926
   92MOL   H27029572   6.410   2.951   4.846 -1.4094  3.4247 -0.5374
   92MOL   H27129573   6.564   3.007   4.933  0.9308 -1.2119  0.8560
   92MOL   H27229574   6.474   2.473   4.815  0.9907 -0.0176 -0.7492
   92MOL   H27329575   6.390   2.520   4.672 -0.3227  0.1129 -1.2717
   92MOL   C27429576   6.554   2.378   4.640 -0.5162  0.9859 -0.1631
   92MOL   O27529577   6.675   2.351   4.703 -0.2418  0.3076 -0.4691
   92MOL   C27629578   6.791   2.386   4.631  0.0014  0.2097 -0.7611
   92MOL   C27729579   6.898   2.379   4.734 -0.5890  0.5118 -0.0730
   92MOL   C27829580   6.896   2.486   4.846 -0.5451  0.1635  0.0525
   92MOL   C27929581   6.461   2.253   4.652 -0.1974 -0.7307  0.1143
   92MOL   H28029582   6.568   2.394   4.533  0.8609  1.6746  0.1081
   92MOL   H28129583   6.807   2.309   4.556  1.2270 -0.7348  0.4515
   92MOL   H28229584   6.787   2.487   4.589 -1.7583  0.0405 -1.0296
   92MOL   H28329585   6.984   2.394   4.669  0.7971  0.1009  1.6736
   92MOL   H28429586   6.898   2.280   4.778  0.9687  0.1616 -0.8213
   92MOL   H28529587   6.908   2.585   4.804  3.5744 -0.8297 -1.3367
   92MOL   H28629588   6.966   2.467   4.928 -0.2476  0.4905 -0.1278
   92MOL   H28729589   6.795   2.478   4.887  0.7051  0.6151  3.3755
   92MOL   H28829590   6.445   2.235   4.758  0.7236 -0.2187  0.3492
   92MOL   H28929591   6.367   2.279   4.604 -0.2975  0.4836  0.9614
   92MOL   C29029592   6.526   2.126   4.594  0.0143 -0.2956  0.0217
   92MOL   O29129593   6.427   2.017   4.606 -0.0583  0.1098  0.2378
   92MOL   C29229594   6.427   1.948   4.731  0.4497  0.2978 -0.0403
   92MOL   C29329595   6.305   1.851   4.720  0.1996 -0.0357  0.3395
   92MOL   C29429596   6.176   1.931   4.723 -0.1488  0.1892 -0.2040
   92MOL   C29529597   6.546   2.136   4.445 -0.1492  0.2790 -0.5637
   92MOL   H29629598   6.613   2.101   4.655  0.5650  0.1960 -0.5550
   92MOL   H29729599   6.515   1.888   4.757  0.8784  0.7219 -0.5001
   92MOL   H29829600   6.422   2.009   4.821  0.6275 -1.7221  1.3700
   92MOL   H29929601   6.305   1.781   4.804  1.9459 -2.8007 -1.8805
   92MOL   H30029602   6.309   1.797   4.626  0.0200 -0.3649  0.5220
   92MOL   H30129603   6.097   1.887   4.662 -0.9814 -0.3539  1.2369
   92MOL   H30229604   6.185   2.032   4.684 -0.9739  0.9269  1.4451
   92MOL   H30329605   6.139   1.962   4.821  0.7240 -0.2724  0.2816
   92MOL   H30429606   6.443   2.132   4.409 -0.1073 -0.3339 -0.6224
   92MOL   H30529607   6.583   2.236   4.421 -0.2636  0.2281 -0.9569
   92MOL   C30629608   6.621   2.023   4.375  0.1037 -0.3894 -0.6424
   92MOL   O30729609   6.609   2.044   4.237 -0.4111  0.5151  0.3279
   92MOL   C30829610   6.491   1.988   4.178  0.2740  0.2449 -0.2631
   92MOL   C30929611   6.479   2.042   4.033  0.1081  0.2960  0.1417
   92MOL   C31029612   6.451   2.200   4.031 -0.3949 -0.1904 -0.3043
   92MOL   C31129613   6.769   2.015   4.400 -0.3467 -0.3611 -0.0361
   92MOL   H31229614   6.573   1.932   4.413 -1.0210  0.3252 -0.3210
   92MOL   H31329615   6.502   1.881   4.197  0.1033  0.1738 -0.5704
   92MOL   H31429616   6.395   2.013   4.225 -0.5692 -0.6965 -1.4458
   92MOL   H31529617   6.393   1.991   3.989  0.9845 -0.0365 -1.1895
   92MOL   H31629618   6.565   2.014   3.973  1.0709  2.0965  0.6399
   92MOL   H31729619   6.387   2.237   4.111 -0.5070  1.1569 -1.0069
   92MOL   H31829620   6.412   2.245   3.939 -1.0730 -1.0248 -0.4320
   92MOL   H31929621   6.544   2.254   4.047 -0.8026  0.8829 -1.4091
   92MOL   H32029622   6.808   1.924   4.357  0.2247  0.0184 -0.3220
   92MOL   H32129623   6.822   2.108   4.381  1.5410 -1.1919  0.9989
   92MOL   H32229624   6.792   2.009   4.507  0.4745 -0.7080 -0.2268
   93MOL     C129625   6.612   6.989   6.009 -0.2124  0.7109 -0.2979
   93MOL     O229626   6.657   7.121   5.991 -0.5745 -0.7986  0.4661
   93MOL     C329627   6.673   7.191   6.118 -0.6303  0.3229  0.6173
   93MOL     C429628   6.544   7.224   6.196  0.1230 -0.6983  0.1315
   93MOL     C529629   6.460   7.331   6.131  0.1544 -0.0724 -0.3320
   93MOL     C629630   6.720   6.886   5.971  0.5842 -0.3250 -0.4849
   93MOL     H729631   6.516   6.972   5.959 -0.0518 -0.1205 -0.3223
   93MOL     H829632   6.751   7.140   6.174  0.9368  0.6662 -1.2499
   93MOL     H929633   6.723   7.286   6.101  3.0628 -1.3487  1.7639
   93MOL    H1029634   6.577   7.271   6.288  2.4827 -1.1952 -0.4228
   93MOL    H1129635   6.485   7.138   6.230  0.1066 -0.0011  1.9067
   93MOL    H1229636   6.408   7.285   6.047  0.7999  0.2804 -0.9294
   93MOL    H1329637   6.515   7.416   6.091 -1.5643  0.7088 -1.1174
   93MOL    H1429638   6.381   7.365   6.198  1.7373  1.6997  0.6661
   93MOL    H1529639   6.816   6.910   6.016  0.7547 -2.4315  0.2794
   93MOL    H1629640   6.692   6.793   6.020 -0.8125  0.5652  0.4588
   93MOL    H1729641   6.596   6.985   6.117 -0.8417 -3.1482 -0.4579
   93MOL    C1829642   6.720   6.856   5.819  0.3481  0.3416  1.2424
   93MOL    O1929643   6.816   6.950   5.758  0.0099  0.3853 -0.3317
   93MOL    C2029644   6.777   7.083   5.712 -0.2951  0.2990 -0.6715
   93MOL    C2129645   6.835   7.117   5.572  0.2471  0.7721  1.0370
   93MOL    C2229646   6.783   7.251   5.522  0.5241 -0.1459 -0.1443
   93MOL    C2329647   6.780   6.719   5.797 -0.0893  0.1636 -0.3345
   93MOL    H2429648   6.618   6.867   5.783  0.3710  0.1610  1.1210
   93MOL    H2529649   6.669   7.095   5.701 -0.2481  0.2530 -1.2264
   93MOL    H2629650   6.800   7.161   5.784  3.2742  2.3249 -3.8393
   93MOL    H2729651   6.815   7.037   5.501  2.3988  0.6323  0.5613
   93MOL    H2829652   6.944   7.112   5.576  0.3723 -0.0495 -2.3045
   93MOL    H2929653   6.839   7.291   5.437 -2.1507 -0.6439 -2.2224
   93MOL    H3029654   6.797   7.318   5.606  1.9920  0.4789 -0.8685
   93MOL    H3129655   6.675   7.246   5.506  0.4525 -0.8849  0.5217
   93MOL    H3229656   6.881   6.727   5.837 -0.7427 -0.7949  1.5490
   93MOL    H3329657   6.725   6.642   5.850  1.6932 -0.1268  1.1328
   93MOL    C3429658   6.784   6.681   5.643 -0.4649 -0.0771 -0.7196
   93MOL    O3529659   6.817   6.539   5.640 -0.1425 -0.2353  0.4573
   93MOL    C3629660   6.953   6.521   5.665  0.0680  0.3235  0.1734
   93MOL    C3729661   6.978   6.370   5.677  0.0181 -0.0709  0.0260
   93MOL    C3829662   6.912   6.304   5.799  0.3146 -0.6616 -0.4586
   93MOL    C3929663   6.654   6.698   5.565 -0.3515 -0.5585  0.0567
   93MOL    H4029664   6.867   6.729   5.589  0.5256 -0.2054  0.6739
   93MOL    H4129665   7.022   6.546   5.584  1.2216 -0.0176  1.0482
   93MOL    H4229666   6.990   6.573   5.753 -1.5450  1.1334  0.3899
   93MOL    H4329667   7.087   6.364   5.683  0.1173  1.4596 -0.0236
   93MOL    H4429668   6.943   6.329   5.582 -0.0425  1.2490 -0.5332
   93MOL    H4529669   6.950   6.202   5.797 -0.7194 -1.0505 -0.6318
   93MOL    H4629670   6.803   6.306   5.793  0.1609 -0.2524  1.8211
   93MOL    H4729671   6.951   6.362   5.883  0.8649  0.3507 -1.3973
   93MOL    H4829672   6.573   6.643   5.611 -2.8467  0.0469 -3.4025
   93MOL    H4929673   6.625   6.802   5.582 -4.5007 -1.9583  2.0566
   93MOL    C5029674   6.658   6.681   5.415 -0.5540 -0.0329  0.1514
   93MOL    O5129675   6.537   6.682   5.342  0.0835  0.2231  0.2049
   93MOL    C5229676   6.445   6.792   5.363 -0.1649  0.8209  0.0981
   93MOL    C5329677   6.319   6.770   5.271 -0.2827 -0.5855 -0.4104
   93MOL    C5429678   6.343   6.843   5.133  0.1972 -0.2192  0.1806
   93MOL    C5529679   6.747   6.798   5.347  0.4490 -0.5806 -0.0976
   93MOL    H5629680   6.709   6.586   5.398 -1.0839 -0.1969 -0.5011
   93MOL    H5729681   6.425   6.812   5.468  3.3904 -0.2813  1.0582
   93MOL    H5829682   6.501   6.877   5.323 -0.6455  1.4435  0.7423
   93MOL    H5929683   6.238   6.820   5.323  1.8722  1.0593  1.4568
   93MOL    H6029684   6.288   6.666   5.257 -1.1613 -0.0881 -2.3713
   93MOL    H6129685   6.335   6.952   5.138  0.9692 -0.0545 -1.6472
   93MOL    H6229686   6.274   6.807   5.056 -1.1747  2.6050  0.0211
   93MOL    H6329687   6.430   6.815   5.074  0.4220  2.0094 -0.6269
   93MOL    H6429688   6.704   6.896   5.365 -1.8206 -1.5679  0.0861
   93MOL    H6529689   6.846   6.803   5.393 -0.7019 -0.3522  2.4827
   93MOL    C6629690   6.774   6.788   5.196  0.4078  0.1251 -0.5227
   93MOL    O6729691   6.809   6.924   5.144 -0.5012 -0.4300 -0.1746
   93MOL    C6829692   6.716   7.037   5.151 -0.0823  0.1563  0.0268
   93MOL    C6929693   6.756   7.129   5.036 -0.0488 -0.4541 -0.2103
   93MOL    C7029694   6.714   7.270   5.062  0.2706 -0.4687  0.1987
   93MOL    C7129695   6.873   6.683   5.158 -0.3426 -0.1283  0.0837
   93MOL    H7229696   6.679   6.763   5.148  1.1834  0.4329 -2.2673
   93MOL    H7329697   6.612   7.005   5.144 -0.0300 -0.0608  0.2282
   93MOL    H7429698   6.740   7.082   5.247  1.7941  0.2757 -0.4573
   93MOL    H7529699   6.712   7.091   4.943  0.8030 -1.0289 -0.3774
   93MOL    H7629700   6.863   7.129   5.017  0.4052 -1.0490  2.2831
   93MOL    H7729701   6.752   7.317   5.152 -1.6406 -0.7954  1.1901
   93MOL    H7829702   6.606   7.266   5.054  0.3592 -0.1528 -1.5437
   93MOL    H7929703   6.759   7.342   4.993  2.1099 -0.3823  1.4590
   93MOL    H8029704   6.971   6.722   5.184  0.4001 -3.3167  2.3072
   93MOL    H8129705   6.858   6.601   5.228 -0.5128 -0.8222 -0.7503
   93MOL    C8229706   6.873   6.634   5.011  0.6970  0.9266 -0.3724
   93MOL    O8329707   6.998   6.661   4.946 -0.2701 -0.2157 -0.1642
   93MOL    C8429708   6.987   6.685   4.810 -0.0098 -0.6975 -0.3680
   93MOL    C8529709   6.960   6.836   4.785 -0.1797  0.4112 -0.8181
   93MOL    C8629710   7.091   6.914   4.802 -0.1110 -0.2672 -0.4910
   93MOL    C8729711   6.849   6.483   5.006  0.0415 -0.5127  0.9386
   93MOL    H8829712   6.801   6.694   4.955  0.2192 -0.2652 -1.0685
   93MOL    H8929713   7.065   6.654   4.739  0.6015  0.6811 -0.3156
   93MOL    H9029714   6.902   6.629   4.771 -0.4740 -0.2708  0.0214
   93MOL    H9129715   6.880   6.872   4.849  0.8862 -0.5981  1.1024
   93MOL    H9229716   6.922   6.849   4.683  0.3057  1.1323 -0.9136
   93MOL    H9329717   7.079   7.023   4.796 -0.3256 -0.2933 -0.5511
   93MOL    H9429718   7.173   6.888   4.736 -1.9412 -2.5692 -1.9482
   93MOL    H9529719   7.125   6.889   4.902 -0.7958 -2.3034 -0.7420
   93MOL    H9629720   6.845   6.449   4.902 -0.3965  0.0478  0.7650
   93MOL    H9729721   6.935   6.440   5.057  0.2810  2.4414  3.1447
   93MOL    C9829722   6.709   6.429   5.049  0.1727 -0.0206 -0.2005
   93MOL    O9929723   6.604   6.487   4.977 -0.4239 -0.2440 -0.7392
   93MOL   C10029724   6.478   6.479   5.043  0.6814  0.3566  0.0306
   93MOL   C10129725   6.374   6.514   4.936 -0.8413  0.2848  0.4944
   93MOL   C10229726   6.220   6.495   4.964  0.0893  0.5969 -0.1745
   93MOL   C10329727   6.709   6.273   5.035  0.5721  0.0440  0.4702
   93MOL   H10429728   6.686   6.453   5.153  1.4784  3.1436 -0.6105
   93MOL   H10529729   6.466   6.380   5.088  1.2687  0.0326 -0.5126
   93MOL   H10629730   6.477   6.564   5.111 -0.7774  0.6788 -0.3896
   93MOL   H10729731   6.397   6.450   4.851  0.0045  0.3423  0.6819
   93MOL   H10829732   6.388   6.618   4.907 -3.6798  0.4940 -0.2556
   93MOL   H10929733   6.154   6.514   4.879 -0.5762 -1.7418 -0.2316
   93MOL   H11029734   6.195   6.562   5.046 -0.6361  2.4098 -1.8326
   93MOL   H11129735   6.200   6.396   5.006 -0.1579  0.4361 -0.6611
   93MOL   H11229736   6.612   6.237   5.000  0.2474  0.4404  0.9400
   93MOL   H11329737   6.761   6.244   4.945  0.4509  1.2814 -0.0107
   93MOL   C11429738   6.754   6.194   5.160  0.0936  0.3792  0.7455
   93MOL   O11529739   6.652   6.212   5.257 -0.3022  0.3823  0.2113
   93MOL   C11629740   6.691   6.230   5.390  0.0807  0.0748 -0.2182
   93MOL   C11729741   6.555   6.263   5.469 -0.2525 -0.3254  0.3317
   93MOL   C11829742   6.576   6.295   5.615  0.6958  0.0679  0.0764
   93MOL   C11929743   6.756   6.045   5.134 -0.6508 -0.5779  0.5765
   93MOL   H12029744   6.848   6.244   5.184  1.0618 -1.1299  0.1853
   93MOL   H12129745   6.744   6.141   5.425  1.1206  0.3708 -1.0256
   93MOL   H12229746   6.758   6.316   5.390  0.5455 -0.2690  1.3821
   93MOL   H12329747   6.497   6.171   5.461 -2.7359  1.0512  1.5889
   93MOL   H12429748   6.503   6.348   5.425  2.3006  2.0383  1.6985
   93MOL   H12529749   6.482   6.324   5.662  1.8154 -0.1861  2.5907
   93MOL   H12629750   6.650   6.374   5.632 -2.0816  2.7664 -0.0447
   93MOL   H12729751   6.608   6.206   5.669 -1.5730 -0.3022  0.8545
   93MOL   H12829752   6.650   6.018   5.129 -0.8050 -0.8348  4.1943
   93MOL   H12929753   6.779   6.015   5.031  1.1126 -0.9023  1.0521
   93MOL   C13029754   6.849   5.958   5.226 -0.6365  0.2311  0.1109
   93MOL   O13129755   6.839   5.822   5.191  0.3450 -0.1944 -0.0175
   93MOL   C13229756   6.744   5.752   5.278 -0.0080  0.6213 -0.4004
   93MOL   C13329757   6.712   5.622   5.219 -0.0772 -0.5907  0.3681
   93MOL   C13429758   6.828   5.522   5.217  0.3717 -0.6969 -0.4466
   93MOL   C13529759   6.993   6.000   5.211  0.1418  0.1819  0.3714
   93MOL   H13629760   6.831   5.978   5.331 -0.4834 -0.4587  0.2743
   93MOL   H13729761   6.797   5.743   5.372 -1.7061  0.1921  0.5327
   93MOL   H13829762   6.648   5.803   5.289  0.4082  1.3354  0.0194
   93MOL   H13929763   6.656   5.635   5.126  0.7299 -0.2209 -0.0705
   93MOL   H14029764   6.645   5.571   5.287 -2.3314 -0.0520 -1.3736
   93MOL   H14129765   6.917   5.567   5.174  0.1739  0.0380 -0.0956
   93MOL   H14229766   6.808   5.439   5.149  2.4745 -3.1731  1.8087
   93MOL   H14329767   6.856   5.493   5.319  1.3318  1.1612 -0.1638
   93MOL   H14429768   7.007   5.999   5.103  0.6995 -0.6034  0.4486
   93MOL   H14529769   7.004   6.104   5.242 -2.2230  0.3656  0.6536
   93MOL   C14629770   7.107   5.914   5.279 -0.0306  0.1415 -1.0059
   93MOL   O14729771   7.229   5.988   5.276 -0.0235  0.1410 -0.0926
   93MOL   C14829772   7.287   6.008   5.148  0.0577  0.8293 -0.2358
   93MOL   C14929773   7.395   6.112   5.154  0.1192  0.4790 -0.0896
   93MOL   C15029774   7.351   6.256   5.174 -0.2245 -0.1703  0.5126
   93MOL   C15129775   7.086   5.883   5.432  0.4206  0.7303 -0.2292
   93MOL   H15229776   7.125   5.822   5.223  1.1590 -1.3059  1.6462
   93MOL   H15329777   7.324   5.907   5.126 -0.1518  0.1139  2.4861
   93MOL   H15429778   7.226   6.035   5.063  1.4753  1.0649 -1.1833
   93MOL   H15529779   7.448   6.102   5.059 -0.0400  3.0047 -0.4647
   93MOL   H15629780   7.473   6.078   5.222  0.4650  0.4544 -0.4886
   93MOL   H15729781   7.261   6.282   5.117  0.4563  1.3640  0.0940
   93MOL   H15829782   7.421   6.333   5.139  0.4633 -0.6333  0.8572
   93MOL   H15929783   7.340   6.259   5.282  0.1872 -0.6834  0.5678
   93MOL   H16029784   7.106   5.975   5.488 -0.9123 -0.1791  1.7902
   93MOL   H16129785   6.982   5.853   5.445 -0.4231  2.2735 -2.9186
   93MOL   C16229786   7.171   5.761   5.488  0.3503  0.3943  0.1885
   93MOL   O16329787   7.158   5.763   5.628  0.2391 -0.4590  0.2735
   93MOL   C16429788   7.255   5.839   5.707  0.1550  0.2914  0.6621
   93MOL   C16529789   7.250   5.815   5.862 -0.1688 -0.6100  0.1507
   93MOL   C16629790   7.314   5.920   5.949 -0.3286  0.0788  0.7854
   93MOL   C16729791   7.116   5.622   5.440  0.1199 -0.4928 -0.8696
   93MOL   H16829792   7.276   5.771   5.460 -0.2158  1.8787 -1.4716
   93MOL   H16929793   7.352   5.818   5.663 -0.7341  1.2102 -1.8069
   93MOL   H17029794   7.237   5.944   5.681 -2.5524 -0.8155 -2.3425
   93MOL   H17129795   7.287   5.717   5.893 -0.0824 -0.1934  1.3992
   93MOL   H17229796   7.145   5.806   5.890 -0.2640  1.5817  0.5992
   93MOL   H17329797   7.315   5.896   6.055  1.0473 -1.6613  0.3992
   93MOL   H17429798   7.258   6.013   5.937 -0.2381  0.2024  1.3307
   93MOL   H17529799   7.415   5.945   5.918 -0.2554 -1.1618 -0.0169
   93MOL   H17629800   7.022   5.611   5.494 -0.2060  0.6002 -1.2240
   93MOL   H17729801   7.075   5.629   5.339 -0.3372 -2.1519 -0.8156
   93MOL   C17829802   7.209   5.501   5.464  0.4907 -0.4799 -0.3553
   93MOL   O17929803   7.341   5.525   5.418 -0.0207  0.4190 -0.0105
   93MOL   C18029804   7.341   5.542   5.277 -0.0451 -0.0617  0.2673
   93MOL   C18129805   7.487   5.568   5.237 -0.5131  0.0811 -0.2190
   93MOL   C18229806   7.547   5.702   5.271 -0.0017 -0.1793  0.2778
   93MOL   C18329807   7.218   5.460   5.612  0.2862  0.4648  0.3219
   93MOL   H18429808   7.173   5.414   5.410  0.3926 -0.4737 -0.3024
   93MOL   H18529809   7.298   5.458   5.222 -0.3413  0.7653 -0.7660
   93MOL   H18629810   7.292   5.630   5.236 -0.0258 -1.0857 -2.0417
   93MOL   H18729811   7.503   5.560   5.129 -1.8506 -0.4269 -0.3870
   93MOL   H18829812   7.557   5.488   5.262 -0.0571  0.6415  0.3156
   93MOL   H18929813   7.469   5.778   5.281 -0.2868 -0.5962  1.2453
   93MOL   H19029814   7.627   5.733   5.204  0.7941  0.6610  1.6102
   93MOL   H19129815   7.594   5.692   5.369  0.6622 -1.8376 -0.1944
   93MOL   H19229816   7.293   5.383   5.629  1.1762  1.4535  0.9243
   93MOL   H19329817   7.256   5.542   5.672  0.7748  2.2995 -2.4089
   93MOL   C19429818   7.083   5.416   5.671  0.1829 -0.2738  0.4626
   93MOL   O19529819   7.070   5.281   5.723  0.0074 -0.2508  0.2988
   93MOL   C19629820   7.042   5.177   5.629  0.0045 -0.2593  0.2175
   93MOL   C19729821   7.013   5.039   5.704 -0.4153 -0.1421  0.4606
   93MOL   C19829822   7.133   4.987   5.786 -0.5518  0.5623 -0.2261
   93MOL   C19929823   7.026   5.510   5.778  1.1332  0.2145  0.1264
   93MOL   H20029824   7.009   5.412   5.592 -1.2755 -0.7691  1.8254
   93MOL   H20129825   6.948   5.193   5.575 -0.2348 -0.9355  0.4260
   93MOL   H20229826   7.119   5.164   5.553 -0.4181  0.3029 -0.3221
   93MOL   H20329827   6.992   4.976   5.618 -0.3160 -0.0049  0.3364
   93MOL   H20429828   6.926   5.046   5.770 -0.0547  0.5354  0.8668
   93MOL   H20529829   7.155   5.067   5.857 -0.2127 -0.4816  0.8545
   93MOL   H20629830   7.224   4.976   5.727  0.2594  1.5724  0.8275
   93MOL   H20729831   7.119   4.888   5.829  0.1876  0.6074  0.1138
   93MOL   H20829832   7.091   5.526   5.864 -1.4219  2.2599  1.7354
   93MOL   H20929833   7.018   5.613   5.742 -0.0758  0.4113  0.9270
   93MOL   C21029834   6.879   5.473   5.819 -0.4963 -0.6098 -0.3596
   93MOL   O21129835   6.852   5.533   5.941  0.1244  0.0817  0.0517
   93MOL   C21229836   6.885   5.450   6.056  0.1313 -0.4970 -0.0626
   93MOL   C21329837   6.874   5.560   6.167  0.4633  0.1497 -0.0528
   93MOL   C21429838   6.828   5.491   6.299  0.3883 -0.8829  0.2085
   93MOL   C21529839   6.779   5.519   5.716  0.1040 -0.4020  0.2178
   93MOL   H21629840   6.868   5.365   5.826  1.3016 -0.9265 -2.1101
   93MOL   H21729841   6.809   5.372   6.058  1.5081 -1.8231  2.0065
   93MOL   H21829842   6.980   5.398   6.050  0.8917  1.1027 -2.8883
   93MOL   H21929843   6.797   5.635   6.149 -0.3924  0.0098  2.7181
   93MOL   H22029844   6.968   5.608   6.190 -0.1590  2.1103 -1.5003
   93MOL   H22129845   6.746   5.423   6.275 -0.2871 -0.6104  1.6578
   93MOL   H22229846   6.795   5.570   6.367 -0.7776 -0.6808 -0.5821
   93MOL   H22329847   6.904   5.439   6.358  2.5266  1.4438 -0.4212
   93MOL   H22429848   6.796   5.625   5.699  0.2414 -0.3663  0.5700
   93MOL   H22529849   6.805   5.471   5.622  1.3002  0.8630 -0.1076
   93MOL   C22629850   6.632   5.490   5.742  0.2302 -0.7906  0.4618
   93MOL   O22729851   6.563   5.544   5.630  0.1704 -0.6241 -0.3922
   93MOL   C22829852   6.504   5.672   5.654 -0.5437  0.1503  0.3376
   93MOL   C22929853   6.595   5.785   5.606  0.4050 -0.0596 -0.4650
   93MOL   C23029854   6.514   5.890   5.523  0.0395 -0.4503 -0.2251
   93MOL   C23129855   6.602   5.341   5.745 -0.1653 -0.1200  0.2553
   93MOL   H23229856   6.597   5.534   5.835  1.6141 -0.1930  0.7103
   93MOL   H23329857   6.411   5.662   5.599 -0.9981  0.6092  1.0220
   93MOL   H23429858   6.453   5.704   5.744 -4.6131  0.4357 -1.9683
   93MOL   H23529859   6.660   5.731   5.537 -0.1269  0.7010 -1.5718
   93MOL   H23629860   6.656   5.828   5.686 -1.0960  0.6017  0.3562
   93MOL   H23729861   6.473   5.973   5.579 -0.3098 -0.1480 -0.9163
   93MOL   H23829862   6.446   5.831   5.462 -0.0579  1.5609 -2.1256
   93MOL   H23929863   6.580   5.937   5.450  2.1460 -1.5435  0.9299
   93MOL   H24029864   6.641   5.308   5.648 -0.1134  1.3420 -0.2416
   93MOL   H24129865   6.658   5.286   5.821  1.2087  0.8708 -0.0151
   93MOL   C24229866   6.449   5.307   5.746 -0.0516  0.2532  0.0254
   93MOL   O24329867   6.421   5.171   5.783 -0.6391  0.3765 -0.1497
   93MOL   C24429868   6.458   5.074   5.687 -0.2653  0.1155 -0.2234
   93MOL   C24529869   6.455   4.938   5.753  0.2064 -0.3991  1.0509
   93MOL   C24629870   6.570   4.918   5.855 -0.1132 -0.6595  0.0311
   93MOL   C24729871   6.359   5.389   5.843  0.7681  0.6771  0.4388
   93MOL   H24829872   6.420   5.331   5.644  0.7002 -0.2867 -0.3206
   93MOL   H24929873   6.389   5.078   5.603  1.3173  0.6393 -1.5021
   93MOL   H25029874   6.558   5.093   5.649  0.1682 -1.2068  0.2378
   93MOL   H25129875   6.485   4.864   5.678  1.4870 -1.5635  2.6785
   93MOL   H25229876   6.356   4.916   5.792 -0.7415  0.3540 -0.8738
   93MOL   H25329877   6.579   4.813   5.885  0.1705 -0.5428  0.3596
   93MOL   H25429878   6.552   4.984   5.940 -3.4732  0.8477 -1.7527
   93MOL   H25529879   6.664   4.949   5.809  1.8306 -3.2642  2.0648
   93MOL   H25629880   6.374   5.496   5.832  1.5590  0.4040 -1.4344
   93MOL   H25729881   6.254   5.371   5.818  0.9498 -0.9465  0.7501
   93MOL   C25829882   6.375   5.366   5.992  0.2482  0.4439 -0.8251
   93MOL   O25929883   6.336   5.488   6.051  0.2820  0.4937 -0.0664
   93MOL   C26029884   6.438   5.584   6.065  0.6045  0.0648 -0.0648
   93MOL   C26129885   6.403   5.680   6.182 -0.2135  0.9346  0.1425
   93MOL   C26229886   6.379   5.598   6.306  0.2885  0.2698 -0.0118
   93MOL   C26329887   6.271   5.257   6.036 -0.5862  0.2257 -0.0400
   93MOL   H26429888   6.477   5.329   6.008  0.2146  0.9279  0.5801
   93MOL   H26529889   6.529   5.527   6.082 -1.0143 -2.4550  0.3796
   93MOL   H26629890   6.440   5.643   5.973  1.8917  2.4332  1.4313
   93MOL   H26729891   6.317   5.744   6.162  0.3879  1.7798  0.2508
   93MOL   H26829892   6.484   5.751   6.199 -0.8802  2.3774 -2.4300
   93MOL   H26929893   6.464   5.531   6.320 -0.7567 -0.6805  1.9313
   93MOL   H27029894   6.294   5.530   6.302  1.2944 -1.3068  3.6498
   93MOL   H27129895   6.378   5.659   6.396 -0.2346  1.2198 -0.6512
   93MOL   H27229896   6.190   5.298   6.096 -0.6731  0.7219 -0.5001
   93MOL   H27329897   6.215   5.213   5.953 -0.7522  0.1541  0.1110
   93MOL   C27429898   6.335   5.154   6.135 -0.1288  0.5714 -0.0092
   93MOL   O27529899   6.361   5.215   6.263 -0.5597  0.4451 -0.5102
   93MOL   C27629900   6.491   5.211   6.314  0.0248  0.5573  0.1786
   93MOL   C27729901   6.481   5.268   6.459 -0.6155  0.5577  0.2062
   93MOL   C27829902   6.619   5.316   6.513  0.0667 -0.3252  0.5531
   93MOL   C27929903   6.235   5.038   6.157  0.8935 -0.4908  0.0379
   93MOL   H28029904   6.421   5.115   6.081 -2.6923 -2.0226 -2.4124
   93MOL   H28129905   6.533   5.111   6.306 -1.3093  0.0664 -0.6788
   93MOL   H28229906   6.555   5.280   6.257 -0.4011  1.1870  0.4547
   93MOL   H28329907   6.441   5.189   6.523  0.5579  0.6709  1.1057
   93MOL   H28429908   6.415   5.354   6.450 -1.7303 -0.3313 -0.1984
   93MOL   H28529909   6.602   5.317   6.621 -0.9914 -1.3053  0.4051
   93MOL   H28629910   6.635   5.416   6.472 -0.1016 -0.6204 -0.2459
   93MOL   H28729911   6.699   5.248   6.482  0.3631  0.6165 -0.8301
   93MOL   H28829912   6.144   5.079   6.200  1.1412  0.2940 -0.1800
   93MOL   H28929913   6.199   4.996   6.063  2.4990 -1.1380 -0.3045
   93MOL   C29029914   6.276   4.928   6.249  0.1989 -0.1182 -0.1003
   93MOL   O29129915   6.170   4.842   6.259 -0.4769 -0.0124  0.1549
   93MOL   C29229916   6.054   4.888   6.328 -0.1261  0.3773 -0.0308
   93MOL   C29329917   5.979   4.776   6.400 -0.1759  0.0488  0.1830
   93MOL   C29429918   6.069   4.721   6.512  0.8630  0.3507  0.3743
   93MOL   C29529919   6.392   4.844   6.182 -0.5151 -0.3881  0.0294
   93MOL   H29629920   6.300   4.974   6.345 -0.0995 -0.7801  0.3021
   93MOL   H29729921   6.085   4.954   6.409 -0.5184  0.5847 -0.0449
   93MOL   H29829922   5.981   4.946   6.270  0.2281  1.1010  0.2421
   93MOL   H29929923   5.954   4.695   6.332  1.0022  1.0173 -1.4596
   93MOL   H30029924   5.888   4.810   6.450 -0.1559  1.4086 -0.6669
   93MOL   H30129925   6.016   4.632   6.547  0.1695 -0.5292 -2.8134
   93MOL   H30229926   6.066   4.791   6.597 -0.1417 -0.1618  0.7808
   93MOL   H30329927   6.172   4.699   6.486  0.9120  0.3008  0.6072
   93MOL   H30429928   6.349   4.791   6.097  0.2044  0.3236 -0.7927
   93MOL   H30529929   6.473   4.911   6.154  0.5412 -1.1828  1.1151
   93MOL   C30629930   6.451   4.731   6.257 -0.1333 -0.9407  0.3222
   93MOL   O30729931   6.571   4.711   6.194  0.2120  0.1789  0.0208
   93MOL   C30829932   6.637   4.591   6.241 -0.1166 -0.3793 -0.3164
   93MOL   C30929933   6.698   4.513   6.130  0.1137  0.2045 -0.0247
   93MOL   C31029934   6.803   4.604   6.061  0.2887 -0.3093  0.3761
   93MOL   C31129935   6.489   4.772   6.403  0.6413  0.3514  0.4144
   93MOL   H31229936   6.392   4.640   6.247  0.2704 -0.9859 -1.9605
   93MOL   H31329937   6.715   4.636   6.302  0.7924 -0.2200 -1.5619
   93MOL   H31429938   6.576   4.524   6.302 -2.3214  3.0930  1.4692
   93MOL   H31529939   6.622   4.479   6.059  0.6104 -2.8799  0.8644
   93MOL   H31629940   6.755   4.426   6.160 -0.6213 -0.2327  0.1124
   93MOL   H31729941   6.885   4.631   6.127 -1.6805  1.8767  2.0144
   93MOL   H31829942   6.770   4.703   6.030  1.1740  0.2808  1.2941
   93MOL   H31929943   6.842   4.548   5.976  2.0070 -1.2126  1.7223
   93MOL   H32029944   6.524   4.690   6.466 -1.9283  0.3509  1.8983
   93MOL   H32129945   6.568   4.847   6.411  1.9321 -0.7739 -1.3969
   93MOL   H32229946   6.403   4.799   6.464 -0.4554  2.3638 -1.9576
   94MOL     C129947   3.576   3.079   6.543 -0.4875 -0.0950  0.5089
   94MOL     O229948   3.514   2.988   6.452  0.5744  0.1706  0.3453
   94MOL     C329949   3.602   2.897   6.395  0.1111 -0.4324 -0.3058
   94MOL     C429950   3.522   2.824   6.289 -0.1923  0.3085 -0.4664
   94MOL     C529951   3.479   2.908   6.167 -0.0386  0.5159 -0.2484
   94MOL     C629952   3.458   3.143   6.618 -0.1892 -0.0811 -0.2519
   94MOL     H729953   3.627   3.166   6.503 -1.7806  0.4843  0.1158
   94MOL     H829954   3.691   2.941   6.350  0.7296 -1.3433  0.0054
   94MOL     H929955   3.645   2.828   6.467  0.7798  0.5760  0.2579
   94MOL    H1029956   3.428   2.799   6.338 -0.2631  1.9911  0.2942
   94MOL    H1129957   3.579   2.733   6.269 -1.7077 -0.7238 -0.1956
   94MOL    H1229958   3.399   2.971   6.206  1.2170  1.6225  0.6287
   94MOL    H1329959   3.448   2.842   6.086  1.8881 -0.8889  0.1272
   94MOL    H1429960   3.565   2.964   6.130  0.7039 -0.4420  0.0198
   94MOL    H1529961   3.377   3.176   6.553  1.7139  1.2063 -2.0583
   94MOL    H1629962   3.414   3.079   6.694  0.4438  2.4373  2.3173
   94MOL    H1729963   3.645   3.033   6.614  2.0513  1.8426 -0.6331
   94MOL    C1829964   3.503   3.271   6.686  0.4152 -0.3662 -0.1753
   94MOL    O1929965   3.384   3.330   6.742  0.1267 -0.5365  0.3004
   94MOL    C2029966   3.317   3.433   6.671 -0.2475  0.0755 -0.5057
   94MOL    C2129967   3.178   3.440   6.740  0.5759 -0.3279 -0.3366
   94MOL    C2229968   3.111   3.300   6.723  0.1821 -0.2370 -0.6123
   94MOL    C2329969   3.598   3.250   6.812  0.6174 -0.0445  0.1591
   94MOL    H2429970   3.546   3.343   6.616 -0.7933  0.3958 -0.1541
   94MOL    H2529971   3.373   3.525   6.686 -2.3308  1.6461 -2.2031
   94MOL    H2629972   3.302   3.399   6.568 -2.3191  1.5680 -0.7194
   94MOL    H2729973   3.122   3.521   6.694 -0.4520 -1.8418 -1.8002
   94MOL    H2829974   3.168   3.470   6.845  0.8143 -0.3778 -0.2991
   94MOL    H2929975   3.171   3.221   6.766  3.0709  2.5185  0.6192
   94MOL    H3029976   3.092   3.275   6.618  3.5622  0.3292 -1.4219
   94MOL    H3129977   3.012   3.291   6.768 -0.0594  0.9744 -0.8583
   94MOL    H3229978   3.537   3.246   6.902 -0.1952  0.4382 -0.3616
   94MOL    H3329979   3.640   3.149   6.807 -0.3862 -0.4627  0.0477
   94MOL    C3429980   3.707   3.356   6.838  0.4812 -0.0561  0.7921
   94MOL    O3529981   3.778   3.309   6.954 -0.1544 -0.0985 -0.2293
   94MOL    C3629982   3.786   3.402   7.056  0.5988  0.0570 -0.4046
   94MOL    C3729983   3.847   3.345   7.179 -0.0402  1.2187  0.4724
   94MOL    C3829984   3.988   3.299   7.151 -0.3217  0.2426  0.3159
   94MOL    C3929985   3.806   3.351   6.725 -0.7668 -0.2785  0.4109
   94MOL    H4029986   3.668   3.457   6.857  2.6433  0.8995  0.2505
   94MOL    H4129987   3.845   3.486   7.019  0.3478 -0.3596 -1.7570
   94MOL    H4229988   3.683   3.434   7.071  0.2067 -0.9575 -0.8652
   94MOL    H4329989   3.788   3.275   7.237  2.0919 -0.6952  0.4196
   94MOL    H4429990   3.861   3.435   7.239  0.3375  1.7174 -0.3565
   94MOL    H4529991   4.030   3.259   7.244 -0.6699 -1.5297 -0.2641
   94MOL    H4629992   4.053   3.382   7.123 -1.0016 -0.3969 -3.3826
   94MOL    H4729993   3.990   3.224   7.072 -0.2325 -0.8187  1.3065
   94MOL    H4829994   3.848   3.250   6.718 -1.2839 -0.4695 -0.0331
   94MOL    H4929995   3.756   3.360   6.628 -0.8966  1.5193  0.6401
   94MOL    C5029996   3.915   3.455   6.721  0.1406 -0.9093 -0.4826
   94MOL    O5129997   4.032   3.393   6.663 -0.5863  0.1895 -0.4525
   94MOL    C5229998   4.100   3.312   6.750 -0.3067  0.1351 -0.3234
   94MOL    C5329999   4.237   3.381   6.775 -0.3076  0.4296 -0.4955
   94MOL    C5430000   4.317   3.308   6.879 -0.2997 -0.3937 -0.2651
   94MOL    C5530001   3.885   3.574   6.623  0.4982  0.1742 -0.1549
   94MOL    H5630002   3.953   3.487   6.818 -0.3225 -1.1684 -0.2133
   94MOL    H5730003   4.055   3.293   6.847 -0.4320  0.4057 -0.3263
   94MOL    H5830004   4.107   3.215   6.700 -1.2520 -0.5007  0.7470
   94MOL    H5930005   4.227   3.486   6.802  2.7969  0.6276  0.0859
   94MOL    H6030006   4.298   3.379   6.684 -1.3153 -3.0234 -1.1483
   94MOL    H6130007   4.253   3.286   6.965  1.5330 -0.6398  1.0738
   94MOL    H6230008   4.410   3.359   6.901 -0.5018  0.7230 -1.9125
   94MOL    H6330009   4.352   3.208   6.853 -3.0162 -0.9190 -2.1588
   94MOL    H6430010   3.874   3.527   6.525 -1.6026 -2.9209  1.4507
   94MOL    H6530011   3.792   3.623   6.652 -0.0673  0.4874 -2.4087
   94MOL    C6630012   3.998   3.679   6.624  0.0738 -0.1358 -0.0938
   94MOL    O6730013   4.047   3.698   6.490 -0.4933 -0.1289  0.1348
   94MOL    C6830014   4.131   3.590   6.439 -0.0113  0.1773 -0.2342
   94MOL    C6930015   4.199   3.641   6.313 -0.4961  0.5033  0.1609
   94MOL    C7030016   4.094   3.648   6.198 -0.2165 -0.1403 -0.5290
   94MOL    C7130017   3.960   3.821   6.677  0.0318 -0.4950 -0.2523
   94MOL    H7230018   4.084   3.649   6.685 -0.9824  0.6528  1.8261
   94MOL    H7330019   4.202   3.565   6.518 -0.6612 -3.4249 -0.6867
   94MOL    H7430020   4.077   3.498   6.417 -0.2030 -0.1354  1.4502
   94MOL    H7530021   4.285   3.580   6.287 -2.0089 -0.3574 -3.0440
   94MOL    H7630022   4.233   3.744   6.324  1.4678 -0.0240 -0.8204
   94MOL    H7730023   4.071   3.545   6.169  0.3470 -0.4069 -0.0281
   94MOL    H7830024   4.140   3.703   6.116  1.2514  1.4935  1.3314
   94MOL    H7930025   3.999   3.689   6.232 -0.4669  0.2249 -1.6607
   94MOL    H8030026   4.047   3.881   6.651 -0.9208  0.9016 -0.2300
   94MOL    H8130027   3.875   3.844   6.613 -0.2453 -1.2170 -0.1514
   94MOL    C8230028   3.931   3.837   6.829  0.7145 -0.0669 -0.7100
   94MOL    O8330029   3.808   3.764   6.859  0.4910 -0.6281 -0.1159
   94MOL    C8430030   3.689   3.832   6.830  0.4183 -0.1895 -0.5315
   94MOL    C8530031   3.565   3.737   6.849 -0.0381  0.1533 -0.2584
   94MOL    C8630032   3.551   3.673   6.993 -0.0924 -0.3931 -0.7425
   94MOL    C8730033   4.050   3.812   6.927 -0.3349 -0.7693 -0.4292
   94MOL    H8830034   3.912   3.944   6.827  0.0094 -0.1875 -0.5725
   94MOL    H8930035   3.682   3.910   6.906 -0.2976 -0.8526  0.1047
   94MOL    H9030036   3.684   3.871   6.729  2.7598 -0.1770 -0.6701
   94MOL    H9130037   3.588   3.650   6.786  0.7486  1.1193 -1.3247
   94MOL    H9230038   3.470   3.771   6.808 -1.1641 -1.2807  1.0814
   94MOL    H9330039   3.483   3.589   6.978 -0.4208 -0.5192  1.2319
   94MOL    H9430040   3.512   3.745   7.065 -3.2903 -2.4094 -0.3610
   94MOL    H9530041   3.653   3.650   7.023  0.6503  0.8470 -2.2991
   94MOL    H9630042   4.092   3.712   6.915 -0.6955 -0.7250 -2.1658
   94MOL    H9730043   4.137   3.877   6.921  0.4576 -1.8327 -0.6371
   94MOL    C9830044   4.013   3.827   7.076 -0.3930  0.8040  0.6542
   94MOL    O9930045   4.131   3.825   7.159  0.1450 -0.1935  0.2810
   94MOL   C10030046   4.152   3.693   7.216  0.6496  0.1733  0.6326
   94MOL   C10130047   4.290   3.688   7.277 -0.5227  0.1360 -0.4079
   94MOL   C10230048   4.344   3.554   7.338  0.0238 -0.0145  0.2336
   94MOL   C10330049   3.946   3.958   7.116  0.1539 -0.1217  0.4283
   94MOL   H10430050   3.944   3.747   7.104 -0.9394  1.5532  1.4681
   94MOL   H10530051   4.073   3.665   7.285 -1.2593 -0.6103 -1.7694
   94MOL   H10630052   4.143   3.618   7.137 -0.8496 -1.3868  2.2549
   94MOL   H10730053   4.303   3.756   7.360 -1.8042  0.8383 -0.7591
   94MOL   H10830054   4.364   3.713   7.201 -0.9473  0.7365 -0.6313
   94MOL   H10930055   4.284   3.513   7.419 -0.3160  1.2711  0.6359
   94MOL   H11030056   4.444   3.560   7.383  0.0584 -0.1515  0.1761
   94MOL   H11130057   4.339   3.474   7.264  0.9431 -0.4671  0.6387
   94MOL   H11230058   4.018   4.039   7.120 -0.5941  0.5406  0.6844
   94MOL   H11330059   3.875   3.994   7.041 -1.6753  1.4742  2.8469
   94MOL   C11430060   3.872   3.961   7.252  0.1595  0.3057 -0.1306
   94MOL   O11530061   3.865   4.097   7.298  0.0611 -0.4101 -0.5087
   94MOL   C11630062   3.964   4.121   7.401  0.2342 -0.2235  0.4225
   94MOL   C11730063   3.924   4.263   7.448  0.5827  0.6539 -0.0757
   94MOL   C11830064   3.796   4.270   7.518 -0.1026  0.0164  0.0494
   94MOL   C11930065   3.734   3.889   7.243  0.5152  0.0905  0.0574
   94MOL   H12030066   3.930   3.900   7.321 -0.0728 -1.5913 -1.5701
   94MOL   H12130067   3.984   4.040   7.471  1.1957  1.0676  1.6544
   94MOL   H12230068   4.061   4.124   7.352  1.1552  3.6881  2.3265
   94MOL   H12330069   3.922   4.331   7.363 -0.2225  2.8453  1.6445
   94MOL   H12430070   4.006   4.291   7.514  1.6466  1.2851 -1.6420
   94MOL   H12530071   3.804   4.197   7.598 -1.2728 -1.8106 -1.4753
   94MOL   H12630072   3.720   4.232   7.449  1.9504 -2.5177 -0.8888
   94MOL   H12730073   3.771   4.372   7.549 -1.9593  0.1892 -1.8916
   94MOL   H12830074   3.687   3.955   7.169  3.2462  1.6539 -0.3640
   94MOL   H12930075   3.741   3.788   7.201  0.5408  0.7613 -1.6149
   94MOL   C13030076   3.648   3.884   7.374 -0.3169  0.3760  0.9253
   94MOL   O13130077   3.515   3.854   7.349  0.0357  0.3418  0.6577
   94MOL   C13230078   3.423   3.959   7.357 -0.2984 -0.3934  0.1892
   94MOL   C13330079   3.301   3.902   7.279 -0.1602 -0.0980 -0.3859
   94MOL   C13430080   3.162   3.957   7.304 -0.1251 -0.1778  1.0033
   94MOL   C13530081   3.698   3.777   7.470  0.6493  0.1069 -0.0770
   94MOL   H13630082   3.642   3.980   7.425 -0.5746  0.3314  0.9801
   94MOL   H13730083   3.411   3.974   7.465  0.2775 -3.1196  0.6770
   94MOL   H13830084   3.461   4.045   7.303 -1.2260  1.0354  1.7523
   94MOL   H13930085   3.280   3.803   7.321  1.1389 -0.7603 -1.2625
   94MOL   H14030086   3.319   3.888   7.173  2.2761  1.6929 -0.2572
   94MOL   H14130087   3.151   4.063   7.281 -2.2314 -0.5941 -0.0107
   94MOL   H14230088   3.158   3.963   7.413  2.5422 -2.3287  1.2773
   94MOL   H14330089   3.081   3.905   7.252  0.5964  1.2009 -1.5833
   94MOL   H14430090   3.636   3.687   7.462  0.8955  0.0652 -1.7668
   94MOL   H14530091   3.797   3.748   7.432  0.4341  0.7387 -1.1289
   94MOL   C14630092   3.717   3.822   7.615 -0.5406 -0.3990  0.2777
   94MOL   O14730093   3.599   3.854   7.683 -0.4866  0.2923  0.0532
   94MOL   C14830094   3.586   3.994   7.716  0.1873  0.7353  0.1476
   94MOL   C14930095   3.443   4.000   7.778  0.2355 -0.3070  0.4517
   94MOL   C15030096   3.406   4.139   7.808 -0.0448 -0.8683 -0.2049
   94MOL   C15130097   3.783   3.707   7.694  0.2198 -0.4656  0.2246
   94MOL   H15230098   3.782   3.908   7.623  0.1261 -0.9489  0.8454
   94MOL   H15330099   3.663   4.024   7.787  2.2022  2.4302 -2.6203
   94MOL   H15430100   3.588   4.056   7.626 -3.9362  0.4922 -0.1805
   94MOL   H15530101   3.438   3.933   0.035 -0.6365  0.4912  1.0458
   94MOL   H15630102   3.364   3.966   7.711  0.5966 -2.3245  1.0416
   94MOL   H15730103   3.299   4.142   7.828 -0.1991  0.0022 -1.1409
   94MOL   H15830104   3.424   4.218   7.735 -2.7170 -1.0617 -1.1255
   94MOL   H15930105   3.459   4.179   0.066 -0.5376  1.2171 -0.8375
   94MOL   H16030106   3.715   3.622   7.683 -2.4327  1.7794 -1.2925
   94MOL   H16130107   3.872   3.664   7.647  0.7314  0.7608  0.0536
   94MOL   C16230108   3.810   3.726   0.012  0.3352 -0.4777 -0.5049
   94MOL   O16330109   3.816   3.594   0.072 -0.0294 -0.5888  0.3435
   94MOL   C16430110   3.729   3.564   0.167 -0.3857  0.0754  0.2704
   94MOL   C16530111   3.755   3.430   0.230  0.0460 -0.0080  0.4383
   94MOL   C16630112   3.874   3.413   0.318 -0.3036  0.2615 -0.2654
   94MOL   C16730113   3.937   3.810   0.057  0.9745  0.5803 -0.1560
   94MOL   H16830114   3.724   3.778   0.053  1.4746  1.6861 -0.8193
   94MOL   H16930115   3.723   3.638   0.246 -2.3070 -0.6920  0.8618
   94MOL   H17030116   3.630   3.565   0.122  0.0317 -1.4965 -0.7350
   94MOL   H17130117   3.753   3.357   0.149 -1.3183  1.2840 -0.7262
   94MOL   H17230118   3.668   3.408   0.291  0.2940  0.0181  0.8017
   94MOL   H17330119   3.871   3.364   0.415  0.1035  0.9919  0.1184
   94MOL   H17430120   3.906   3.515   0.339 -2.0329  0.7093  0.2245
   94MOL   H17530121   3.960   3.370   0.267 -1.0230  0.0065 -1.2680
   94MOL   H17630122   3.921   3.907   0.011 -0.5373  0.0389 -0.8192
   94MOL   H17730123   3.927   3.827   0.164  0.6179  0.6455 -0.2000
   94MOL   C17830124   4.082   3.749   0.019  0.4139  0.2057 -0.3301
   94MOL   O17930125   4.175   3.855   0.007 -0.9501  0.8509 -0.1047
   94MOL   C18030126   4.179   3.901   7.705  0.3300 -0.0871 -0.0763
   94MOL   C18130127   4.249   4.032   7.696  0.1401  0.3024  0.0063
   94MOL   C18230128   4.392   4.028   7.753  0.2179  0.1199 -1.0618
   94MOL   C18330129   4.140   3.655   0.126  0.2573  0.1056  0.0627
   94MOL   H18430130   4.082   3.693   7.753 -2.9182  1.2422 -1.0458
   94MOL   H18530131   4.229   3.830   7.640 -0.7069 -0.3220 -0.6230
   94MOL   H18630132   4.084   3.910   7.654  0.2435  0.1381  0.1202
   94MOL   H18730133   4.182   4.092   7.758 -1.9367 -1.2752 -0.6486
   94MOL   H18830134   4.240   4.064   7.593  0.8436  1.4225  0.2950
   94MOL   H18930135   4.447   3.942   7.716 -0.7705 -0.0396 -2.2001
   94MOL   H19030136   4.389   4.039   0.034  0.1372  0.6285 -1.1179
   94MOL   H19130137   4.455   4.111   7.723  0.7295  0.3184  0.5210
   94MOL   H19230138   4.141   3.711   0.220  3.0858 -2.3170  1.5746
   94MOL   H19330139   4.073   3.569   0.135 -0.3949  0.5197 -0.7653
   94MOL   C19430140   4.286   3.606   0.108  0.3962  0.2320 -0.1770
   94MOL   O19530141   4.321   3.517   0.209 -0.8562 -1.3895 -0.0858
   94MOL   C19630142   4.365   3.582   0.327 -0.6319 -0.2334 -0.3441
   94MOL   C19730143   4.373   3.457   0.416  0.0675  0.4289  0.5490
   94MOL   C19830144   4.228   3.426   0.465 -1.0478 -0.0117 -0.1241
   94MOL   C19930145   4.319   3.522   7.818 -1.1988  0.5464 -0.1770
   94MOL   H20030146   4.346   3.697   0.110  0.0207  0.4787  0.1590
   94MOL   H20130147   4.462   3.629   0.308 -0.7534  0.2477  0.2042
   94MOL   H20230148   4.292   3.653   0.366  0.4402  0.3185  0.7032
   94MOL   H20330149   4.444   3.465   0.498 -0.2447 -4.6438  1.4725
   94MOL   H20430150   4.420   3.380   0.354 -1.1793  1.2803 -1.5339
   94MOL   H20530151   4.220   3.340   0.532  0.0988 -0.1797 -0.1971
   94MOL   H20630152   4.165   3.406   0.378 -0.8847 -1.3221  0.0505
   94MOL   H20730153   4.183   3.518   0.501 -0.5063 -0.3785  1.5287
   94MOL   H20830154   4.285   3.419   0.003 -1.7278  0.8268  0.6557
   94MOL   H20930155   4.272   3.550   7.724 -0.4792  1.5199 -0.2500
   94MOL   C21030156   4.470   3.514   7.793  0.4762  0.1184 -0.2173
   94MOL   O21130157   4.495   3.414   7.700 -0.4972  0.2565 -0.4911
   94MOL   C21230158   4.515   3.289   7.762  0.4853  0.0777  1.0852
   94MOL   C21330159   4.541   3.190   7.641  0.3808  0.4704  0.3226
   94MOL   C21430160   4.649   3.256   7.539  0.4891  0.3428 -0.4508
   94MOL   C21530161   4.521   3.642   7.719 -0.8308 -0.2588 -0.8001
   94MOL   H21630162   4.515   3.494   0.062 -0.4179  0.1982  0.2162
   94MOL   H21730163   4.609   3.294   7.817 -0.7035 -1.3969  3.3320
   94MOL   H21830164   4.437   3.247   7.825  1.1320  0.0399  1.8728
   94MOL   H21930165   4.448   3.165   7.589  1.1788 -0.9961 -0.4418
   94MOL   H22030166   4.579   3.096   7.680 -0.7404  0.7423  2.0875
   94MOL   H22130167   4.738   3.290   7.590 -1.2552  1.9064  1.6311
   94MOL   H22230168   4.608   3.334   7.474 -0.8481  0.9319  1.0777
   94MOL   H22330169   4.676   3.168   7.481  0.3546  1.1654 -1.8078
   94MOL   H22430170   4.440   3.671   7.652 -2.3408 -0.0329  1.0983
   94MOL   H22530171   4.522   3.723   7.791  3.4252 -0.3892 -0.6097
   94MOL   C22630172   4.663   3.654   7.664 -0.9263 -0.0455 -0.4969
   94MOL   O22730173   4.690   3.781   7.616  0.0007  0.1554 -0.2039
   94MOL   C22830174   4.688   3.785   7.474  0.1317 -0.9048  0.2706
   94MOL   C22930175   4.699   3.934   7.440 -0.1027  0.4164 -0.4512
   94MOL   C23030176   4.627   3.993   7.316 -0.5649  0.0203  0.4496
   94MOL   C23130177   4.771   3.618   7.768 -0.3765 -0.0601 -0.0102
   94MOL   H23230178   4.675   3.579   7.586 -0.2413  1.9349 -2.3305
   94MOL   H23330179   4.764   3.719   7.433  0.7765 -0.0277  0.0543
   94MOL   H23430180   4.594   3.749   7.432  0.0082  0.9921 -1.1470
   94MOL   H23530181   4.805   3.955   7.430 -0.0917 -0.0350 -1.2846
   94MOL   H23630182   4.667   3.992   7.527 -1.4462  0.4867 -0.9716
   94MOL   H23730183   4.527   4.029   7.343  0.2545  1.3210  1.7934
   94MOL   H23830184   4.629   3.925   7.231 -0.6221  1.5033 -0.7569
   94MOL   H23930185   4.679   4.082   7.283  0.1566 -0.3702  0.5144
   94MOL   H24030186   4.753   3.685   0.024  0.7081  2.4616 -1.7104
   94MOL   H24130187   4.743   3.528   7.821  0.3294 -0.2709  0.0149
   94MOL   C24230188   4.927   3.620   7.717  0.4855  0.8579 -0.3066
   94MOL   O24330189   5.022   3.599   7.823 -0.3508 -0.5159 -0.1331
   94MOL   C24430190   5.019   3.688   0.104  0.1602 -0.2521 -0.0423
   94MOL   C24530191   5.163   3.698   0.156  0.4886 -0.6312 -0.0562
   94MOL   C24630192   5.281   3.760   0.072  0.5214  0.2682 -0.2345
   94MOL   C24730193   4.955   3.507   7.619  0.7960 -0.3716 -0.7546
   94MOL   H24830194   4.954   3.713   7.666  3.5665 -0.6408 -1.5280
   94MOL   H24930195   4.997   3.790   0.072  0.4911 -0.1064  0.2074
   94MOL   H25030196   4.948   3.666   0.184  0.6592  1.0666  0.7807
   94MOL   H25130197   5.184   3.598   0.196 -0.7613 -0.6188  0.6689
   94MOL   H25230198   5.160   3.758   0.247  3.3156  0.9038 -0.9401
   94MOL   H25330199   5.267   3.866   0.048 -2.4316 -0.2085 -0.8472
   94MOL   H25430200   5.300   3.709   7.805  0.5672 -0.0826 -0.0362
   94MOL   H25530201   5.372   3.749   0.130 -0.0123  0.6646  0.6853
   94MOL   H25630202   4.935   3.415   7.674 -1.6065  0.6720  0.2117
   94MOL   H25730203   4.887   3.499   7.534  1.9098 -0.0796 -1.6906
   94MOL   C25830204   5.093   3.499   7.555 -0.5410 -0.0409 -0.9930
   94MOL   O25930205   5.097   3.366   7.503 -0.2407 -0.7425  0.3506
   94MOL   C26030206   5.209   3.297   7.543 -0.1002  0.5868  0.3273
   94MOL   C26130207   5.216   3.150   7.490  0.3981 -0.0458 -0.8057
   94MOL   C26230208   5.235   3.139   7.332  0.2524 -0.8270 -0.1205
   94MOL   C26330209   5.126   3.591   7.430 -0.0565 -0.3479  0.4636
   94MOL   H26430210   5.169   3.518   7.632  0.1798 -1.0519 -1.4416
   94MOL   H26530211   5.300   3.345   7.506  0.9385 -2.6802 -1.5155
   94MOL   H26630212   5.223   3.294   7.651 -1.3693  1.2100  0.5148
   94MOL   H26730213   5.127   3.093   7.518  1.4180 -1.7143 -0.9132
   94MOL   H26830214   5.303   3.102   7.534 -0.5078  0.4873  1.6479
   94MOL   H26930215   5.305   3.220   7.309  2.3205 -1.9345  2.1270
   94MOL   H27030216   5.142   3.162   7.279 -0.2360 -0.0655  1.0313
   94MOL   H27130217   5.279   3.044   7.303 -0.1654 -0.6387 -1.4272
   94MOL   H27230218   5.203   3.538   7.373 -0.0204 -0.3306  0.4953
   94MOL   H27330219   5.037   3.582   7.369 -1.0414  0.0502  1.8170
   94MOL   C27430220   5.173   3.731   7.464 -0.2809 -0.2948 -0.1241
   94MOL   O27530221   5.311   3.743   7.432  0.3101 -0.2222  0.8108
   94MOL   C27630222   5.408   3.670   7.506 -0.4595 -0.4024  0.2365
   94MOL   C27730223   5.546   3.691   7.442  0.2490 -0.2836 -0.1382
   94MOL   C27830224   5.659   3.615   7.522 -0.1392 -0.1121  0.4258
   94MOL   C27930225   5.090   3.847   7.405 -0.1951  0.0661  0.3737
   94MOL   H28030226   5.174   3.750   7.571  3.4644 -1.4238  0.1227
   94MOL   H28130227   5.418   3.718   7.603 -1.1426 -4.1043  2.2326
   94MOL   H28230228   5.378   3.566   7.514 -2.4211  0.0717 -0.6105
   94MOL   H28330229   5.570   3.796   7.423  0.0330 -0.5568 -1.9527
   94MOL   H28430230   5.544   3.652   7.341  0.3758  0.8256 -0.5779
   94MOL   H28530231   5.750   3.613   7.462  1.1255 -0.0909  2.3025
   94MOL   H28630232   5.632   3.510   7.532 -0.7366 -0.0276 -0.2770
   94MOL   H28730233   5.671   3.662   7.620  0.7636  0.7947 -0.1182
   94MOL   H28830234   5.107   3.851   7.297  0.2966  5.1435  0.5413
   94MOL   H28930235   4.983   3.831   7.419 -0.7422  2.9276 -0.3253
   94MOL   C29030236   5.131   3.977   7.480  0.2594  0.4748  0.1915
   94MOL   O29130237   5.078   4.087   7.404  0.0877  0.7211 -0.2718
   94MOL   C29230238   5.158   4.137   7.297 -0.4557 -0.3998 -0.7415
   94MOL   C29330239   5.137   4.289   7.289 -0.1900 -0.1925  0.3656
   94MOL   C29430240   5.155   4.360   7.420  0.3068  0.6539  0.1849
   94MOL   C29530241   5.063   3.964   7.616 -0.0636 -0.4990  0.8674
   94MOL   H29630242   5.238   3.992   7.496 -0.0735  2.7164  0.4408
   94MOL   H29730243   5.263   4.126   7.322 -0.4407 -1.6934 -1.3374
   94MOL   H29830244   5.131   4.078   7.209 -0.2113  0.3610 -1.3304
   94MOL   H29930245   5.038   4.300   7.243 -0.1276 -0.7407  0.0975
   94MOL   H30030246   5.212   4.323   7.218  1.9205 -4.3183  0.5127
   94MOL   H30130247   5.060   4.355   7.472  0.3327  0.2359  0.1951
   94MOL   H30230248   5.183   4.464   7.406  0.2633  0.4713 -1.3799
   94MOL   H30330249   5.228   4.311   7.485  0.0724 -1.1917 -0.8922
   94MOL   H30430250   4.961   3.928   7.603  0.6937 -2.5525  0.4489
   94MOL   H30530251   5.104   3.893   7.687  0.4773  0.6814  1.7558
   94MOL   C30630252   5.052   4.104   7.689  0.6938  0.2979 -0.3817
   94MOL   O30730253   4.971   4.084   7.805  0.1593 -0.0045  0.3094
   94MOL   C30830254   4.843   4.151   7.792  0.3405 -1.1369  0.1988
   94MOL   C30930255   4.753   4.116   0.073  1.0240 -0.6516  0.0187
   94MOL   C31030256   4.735   3.967   0.087 -0.7108  0.5045  0.1222
   94MOL   C31130257   5.191   4.143   7.742  0.0194 -0.4394 -0.2945
   94MOL   H31230258   5.013   4.182   7.625  1.6108  1.4167  0.4121
   94MOL   H31330259   4.851   4.260   7.785  2.4734 -1.0591  2.7470
   94MOL   H31430260   4.802   4.118   7.697  2.5974  1.2477 -1.6654
   94MOL   H31530261   4.655   4.159   0.051  1.5004  1.2454  1.4600
   94MOL   H31630262   4.783   4.156   0.169 -0.8670 -1.0487  0.8004
   94MOL   H31730263   4.642   3.949   0.141  0.1988 -0.3985  1.4153
   94MOL   H31830264   4.822   3.924   0.137  0.4437  0.8405 -1.5765
   94MOL   H31930265   4.719   3.921   7.818 -0.1529 -0.1545  0.3371
   94MOL   H32030266   5.237   4.073   7.812 -1.0139 -1.4604 -0.6290
   94MOL   H32130267   5.272   4.157   7.671 -1.5934  1.0026 -1.8782
   94MOL   H32230268   5.183   4.233   7.803  1.4275 -0.5324  0.0374
   95MOL     C130269   3.130   3.391   1.943 -0.4243  0.1701 -0.4111
   95MOL     O230270   3.237   3.480   1.935  0.0657 -0.3951 -0.1298
   95MOL     C330271   3.305   3.502   2.060  0.5027  0.0445  0.4652
   95MOL     C430272   3.416   3.608   2.046 -0.4155  0.7797  0.3605
   95MOL     C530273   3.478   3.632   2.182  0.2302 -0.1533 -1.0769
   95MOL     C630274   3.100   3.357   1.799  0.4137 -0.2230 -0.0569
   95MOL     H730275   3.043   3.437   1.990 -1.3094 -0.7623 -1.1089
   95MOL     H830276   3.230   3.519   2.137  1.5706 -3.9324  2.5032
   95MOL     H930277   3.355   3.413   2.098  0.2043 -0.6154 -0.6720
   95MOL    H1030278   3.365   3.701   2.019 -1.3962  0.0082 -0.4531
   95MOL    H1130279   3.479   3.571   1.964  0.4119 -0.8829  1.7225
   95MOL    H1230280   3.557   3.705   2.169 -0.1668  0.8055  1.5642
   95MOL    H1330281   3.520   3.543   2.231 -1.3564  0.5606  1.7228
   95MOL    H1430282   3.403   3.678   2.247  0.8479 -0.5957 -0.0245
   95MOL    H1530283   3.064   3.446   1.746  1.5000  1.6252  2.2243
   95MOL    H1630284   3.188   3.317   1.750  0.0310 -0.8983 -0.2017
   95MOL    H1730285   3.164   3.309   2.006 -1.1312  2.2286  2.7826
   95MOL    C1830286   3.002   3.239   1.794  0.3607  0.0074 -0.7126
   95MOL    O1930287   2.874   3.292   1.820 -0.4291  0.0069 -0.2340
   95MOL    C2030288   2.798   3.226   1.926  0.4054 -0.4958  0.6124
   95MOL    C2130289   2.644   3.267   1.925  0.0501  0.1106 -0.0827
   95MOL    C2230290   2.575   3.252   2.057 -0.0597 -0.0913  0.4100
   95MOL    C2330291   3.002   3.188   1.649  0.2652  0.3460  0.4718
   95MOL    H2430292   3.036   3.165   1.867  2.1909  2.1138  0.6381
   95MOL    H2530293   2.817   3.119   1.934 -0.5598 -0.7997 -0.9412
   95MOL    H2630294   2.846   3.263   2.017  0.0563 -3.1592  1.9115
   95MOL    H2730295   2.588   3.216   1.847 -0.2743 -1.2668  1.0283
   95MOL    H2830296   2.633   3.372   1.898 -1.5705  0.3020  1.2172
   95MOL    H2930297   2.578   3.157   2.111  0.6025 -0.6179 -0.5538
   95MOL    H3030298   2.468   3.267   2.039 -0.2597 -0.1525  1.4929
   95MOL    H3130299   2.611   3.326   2.129  1.1061  0.2727 -0.5436
   95MOL    H3230300   2.964   3.258   1.574  1.9990 -1.3664 -2.0696
   95MOL    H3330301   3.102   3.168   1.612  1.0720  0.5593  2.4712
   95MOL    C3430302   2.918   3.056   1.631 -0.5257 -0.0268  0.8229
   95MOL    O3530303   2.918   3.033   1.489 -0.2116  0.1106 -0.4539
   95MOL    C3630304   2.795   3.013   1.428 -0.0615 -0.2116  0.3251
   95MOL    C3730305   2.831   2.974   1.281  0.2452  0.6993 -0.6022
   95MOL    C3830306   2.920   3.083   1.216 -0.8387 -0.1311  0.5738
   95MOL    C3930307   2.973   2.918   1.690 -0.6368  0.5034 -0.5356
   95MOL    H4030308   2.815   3.072   1.664 -0.0924  1.3816  1.5407
   95MOL    H4130309   2.722   2.948   1.478 -3.5810  2.3491 -1.2521
   95MOL    H4230310   2.734   3.102   1.415  2.3025  1.4602  0.5004
   95MOL    H4330311   2.750   2.953   1.211 -1.0192 -0.3344  1.1538
   95MOL    H4430312   2.886   2.880   1.276 -0.6107  0.1804 -0.2417
   95MOL    H4530313   3.024   3.072   1.247 -0.0974  0.2624 -1.6814
   95MOL    H4630314   2.882   3.183   1.235  0.9683  1.1392 -2.2256
   95MOL    H4730315   2.912   3.080   1.107 -0.0744  1.8776  0.4457
   95MOL    H4830316   3.055   2.878   1.631 -0.1814 -2.8871  2.2280
   95MOL    H4930317   3.016   2.930   1.790  1.5451 -4.6536 -0.7110
   95MOL    C5030318   2.864   2.811   1.714  0.4438 -0.5874  0.1017
   95MOL    O5130319   2.893   2.691   1.646 -0.6803 -0.3134  0.1866
   95MOL    C5230320   2.821   2.665   1.522 -0.5115  0.0080 -0.9159
   95MOL    C5330321   2.820   2.510   1.501 -0.2359 -0.0408 -0.2711
   95MOL    C5430322   2.950   2.444   1.465  0.6312  0.5226  0.2261
   95MOL    C5530323   2.834   2.772   1.857 -0.0721  0.0971 -1.1077
   95MOL    H5630324   2.771   2.849   1.671  0.9776 -0.9647 -1.4057
   95MOL    H5730325   2.716   2.693   1.530 -0.3177  0.5318 -0.1689
   95MOL    H5830326   2.877   2.702   1.436 -1.3934  1.2512 -0.9699
   95MOL    H5930327   2.739   2.480   1.434  0.2395  1.1910 -1.4268
   95MOL    H6030328   2.786   2.470   1.597  1.3539  1.5109  0.9651
   95MOL    H6130329   3.035   2.478   1.524  0.5522  1.3768 -0.1462
   95MOL    H6230330   2.976   2.489   1.369  0.2871  0.9198  0.3199
   95MOL    H6330331   2.943   2.335   1.463 -1.1043  0.6476 -1.6804
   95MOL    H6430332   2.907   2.700   1.893 -0.7089  0.1839  0.3768
   95MOL    H6530333   2.854   2.859   1.920 -0.1006 -0.7413  0.0752
   95MOL    C6630334   2.686   2.739   1.880  0.3606 -0.1002 -0.5348
   95MOL    O6730335   2.659   2.691   2.014  0.0794  0.1401 -0.0842
   95MOL    C6830336   2.692   2.547   2.026 -0.6663 -0.3339  0.3875
   95MOL    C6930337   2.619   2.502   2.154 -0.2845  0.4499  0.1986
   95MOL    C7030338   2.644   2.362   2.195 -0.1809 -0.6948  0.8816
   95MOL    C7130339   2.594   2.863   1.867  0.7666 -0.6881  0.2178
   95MOL    H7230340   2.654   2.672   1.800 -2.5455  0.7291 -0.1468
   95MOL    H7330341   2.661   2.496   1.934  1.5202  3.2127 -2.4841
   95MOL    H7430342   2.801   2.546   2.034 -0.4232  3.1683 -1.4897
   95MOL    H7530343   2.514   2.514   2.126 -1.1125 -0.9470  2.5645
   95MOL    H7630344   2.638   2.566   2.240  0.1861  1.6196 -0.7615
   95MOL    H7730345   2.745   2.341   2.229  0.1652  1.8718  1.5052
   95MOL    H7830346   2.626   2.294   2.111  2.3839 -0.4361  0.1043
   95MOL    H7930347   2.573   2.335   2.274 -1.9604  1.7140  0.1530
   95MOL    H8030348   2.594   2.909   1.967  0.6755 -0.3115  0.0458
   95MOL    H8130349   2.628   2.939   1.797  2.9094 -0.9054  0.9621
   95MOL    C8230350   2.447   2.834   1.842  0.1662  0.4646  0.6972
   95MOL    O8330351   2.364   2.946   1.897  0.3158  0.0981 -0.0399
   95MOL    C8430352   2.335   2.930   2.036 -0.6570 -0.1700  0.0412
   95MOL    C8530353   2.237   3.042   2.065 -0.4869  0.2128 -0.2409
   95MOL    C8630354   2.243   3.081   2.213 -0.2369 -0.4950  0.1885
   95MOL    C8730355   2.397   2.808   1.696 -0.0954 -0.6354  0.3241
   95MOL    H8830356   2.420   2.742   1.892 -0.2875  0.1866 -0.0515
   95MOL    H8930357   2.305   2.828   2.060  0.4016 -0.8165 -1.3020
   95MOL    H9030358   2.427   2.957   2.087  0.6447 -2.7592 -0.8454
   95MOL    H9130359   2.139   3.004   2.034  0.8458 -3.3059 -0.4108
   95MOL    H9230360   2.251   3.126   1.998 -0.8708  0.4783  0.0080
   95MOL    H9330361   2.184   3.011   2.274 -1.8023  1.2071  0.6885
   95MOL    H9430362   2.198   3.180   2.224  0.2371  0.1026 -2.8165
   95MOL    H9530363   2.343   3.093   2.253 -0.0836 -1.7995  0.2298
   95MOL    H9630364   2.427   2.896   1.640 -0.1000 -0.6700  0.2675
   95MOL    H9730365   2.443   2.723   1.645  0.5038  0.3127 -0.7373
   95MOL    C9830366   2.244   2.797   1.679  0.2186  0.4394  0.2518
   95MOL    O9930367   2.219   2.784   1.538 -0.2225  0.0341 -0.5596
   95MOL   C10030368   2.173   2.903   1.468  0.3457 -0.3407  0.5678
   95MOL   C10130369   2.148   2.868   1.318  0.3443 -0.1608  0.5443
   95MOL   C10230370   2.271   2.839   1.230 -0.1367 -0.2984  0.2529
   95MOL   C10330371   2.184   2.668   1.733  0.3825  0.9553  0.4457
   95MOL   H10430372   2.196   2.885   1.722 -1.6852 -0.7395  0.5665
   95MOL   H10530373   2.084   2.946   1.515  0.5528 -1.0251  1.5943
   95MOL   H10630374   2.251   2.977   1.488  0.0345  0.2071 -0.2412
   95MOL   H10730375   2.101   2.957   1.275 -2.2535 -2.3032 -1.2182
   95MOL   H10830376   2.071   2.791   1.310 -0.8231  1.1516 -1.5323
   95MOL   H10930377   2.245   2.772   1.148  1.5302  1.4648 -1.7816
   95MOL   H11030378   2.357   2.796   1.280  0.7754  0.8608 -0.2942
   95MOL   H11130379   2.303   2.932   1.182 -0.0817 -0.1290  0.6159
   95MOL   H11230380   2.250   2.588   1.697  0.0521  0.4160  1.0283
   95MOL   H11330381   2.200   2.658   1.841  2.5366 -0.7573  0.0278
   95MOL   C11430382   2.031   2.637   1.707 -0.3815  0.6660 -0.0325
   95MOL   O11530383   1.987   2.537   1.805 -0.0976  0.0431  0.1156
   95MOL   C11630384   2.043   2.402   1.794 -0.2343  0.1008  0.4167
   95MOL   C11730385   1.954   2.298   1.862  0.4504 -0.1625 -0.6752
   95MOL   C11830386   1.993   2.156   1.830 -0.4402 -0.6224 -0.0669
   95MOL   C11930387   1.938   2.759   1.727 -0.1016 -0.6211  0.3889
   95MOL   H12030388   2.026   2.596   1.606  2.4144  3.0070 -1.1803
   95MOL   H12130389   2.036   2.381   1.687 -3.7238  1.7811  0.2693
   95MOL   H12230390   2.148   2.408   1.824 -0.2129 -1.2073  0.6190
   95MOL   H12330391   1.847   2.317   1.856  0.3808 -0.5212 -0.5744
   95MOL   H12430392   1.969   2.302   1.970  1.4012 -0.1191 -0.8001
   95MOL   H12530393   1.946   2.091   1.904 -0.5707 -0.7820 -0.2871
   95MOL   H12630394   2.101   2.150   1.842 -0.2821  1.0316 -0.6326
   95MOL   H12730395   1.954   2.112   1.738 -2.8156 -0.1290  0.6733
   95MOL   H12830396   1.935   2.810   1.823  0.0976 -0.1166  0.1304
   95MOL   H12930397   1.959   2.850   1.670  1.9412 -1.0821  0.3819
   95MOL   C13030398   1.792   2.725   1.683  0.4343 -0.5565 -0.0721
   95MOL   O13130399   1.713   2.842   1.696  0.0470  0.4125 -0.4036
   95MOL   C13230400   1.571   2.812   1.705 -0.3925  0.1568 -1.0828
   95MOL   C13330401   1.505   2.945   1.705  0.7357  0.6763 -0.4611
   95MOL   C13430402   1.544   3.046   1.820  0.5143 -0.0757  0.0354
   95MOL   C13530403   1.786   2.672   1.533  0.4415 -0.4065 -0.1529
   95MOL   H13630404   1.736   2.647   1.734 -0.2930  0.2695  0.4103
   95MOL   H13730405   1.533   2.745   1.628 -2.6585 -0.4307  0.4847
   95MOL   H13830406   1.553   2.756   1.797 -1.7804 -0.7147 -1.8688
   95MOL   H13930407   1.398   2.927   1.710  0.7302  0.5044 -1.1523
   95MOL   H14030408   1.527   2.989   1.607  1.1174 -1.2557 -1.2654
   95MOL   H14130409   1.549   2.992   1.914  3.5308  0.5956  0.3185
   95MOL   H14230410   1.475   3.131   1.824 -0.3991 -0.7859 -0.5674
   95MOL   H14330411   1.642   3.082   1.788  0.8939 -1.9052 -0.8937
   95MOL   H14430412   1.712   2.729   1.476  1.9868 -0.2196 -2.0027
   95MOL   H14530413   1.881   2.696   1.485 -0.4853  1.0451 -1.3300
   95MOL   C14630414   1.752   2.518   1.516 -0.0267  0.3853  0.0728
   95MOL   O14730415   1.618   2.500   1.586 -0.6958  0.4471 -0.3785
   95MOL   C14830416   1.588   2.361   1.611  0.1945 -0.1477  0.7050
   95MOL   C14930417   1.579   2.348   1.757 -0.2371 -0.1502 -0.4194
   95MOL   C15030418   1.442   2.385   1.812  0.4320  0.0512 -0.6245
   95MOL   C15130419   1.735   2.478   1.363  0.0308  0.0514  0.0684
   95MOL   H15230420   1.828   2.464   1.572 -0.5270  2.7650  3.2344
   95MOL   H15330421   1.493   2.335   1.564  0.7874  1.2294 -1.3539
   95MOL   H15430422   1.675   2.300   1.583 -0.5747 -0.8897 -0.0868
   95MOL   H15530423   1.665   2.397   1.803 -0.2494 -1.5700  1.1935
   95MOL   H15630424   1.600   2.244   1.784 -1.7103 -0.8146 -1.7429
   95MOL   H15730425   1.363   2.320   1.774  0.2272 -0.8625  1.2856
   95MOL   H15830426   1.412   2.484   1.780  0.2763 -0.5925 -2.5445
   95MOL   H15930427   1.451   2.375   1.921  0.2949  0.4693 -0.5734
   95MOL   H16030428   1.703   2.374   1.368 -0.4165  0.2300  1.0144
   95MOL   H16130429   1.645   2.528   1.326  0.0583  0.3760  0.4323
   95MOL   C16230430   1.865   2.489   1.288 -0.6898 -0.2930  0.0847
   95MOL   O16330431   1.961   2.423   1.373 -0.2394  0.4003 -0.7054
   95MOL   C16430432   2.094   2.458   1.336  0.6789  0.3358 -0.8431
   95MOL   C16530433   2.168   2.342   1.275  0.5551 -0.5059 -0.2679
   95MOL   C16630434   2.268   2.396   1.173 -0.3269 -0.2909 -0.3885
   95MOL   C16730435   1.848   2.430   1.149  0.2443 -0.3635 -0.9100
   95MOL   H16830436   1.878   2.597   1.289 -1.4257 -0.1201  5.7380
   95MOL   H16930437   2.109   2.545   1.272 -1.6229  0.7016 -0.9480
   95MOL   H17030438   2.146   2.485   1.428  1.7975 -2.8455 -0.4911
   95MOL   H17130439   2.098   2.271   1.232 -0.1729 -0.1241  0.2710
   95MOL   H17230440   2.216   2.286   1.355  0.3009  0.0999  0.3147
   95MOL   H17330441   2.331   2.318   1.131 -0.2740 -0.0100 -0.8412
   95MOL   H17430442   2.335   2.460   1.231 -0.8125  0.2838 -0.4579
   95MOL   H17530443   2.228   2.443   1.083 -1.1022 -1.3585 -0.6041
   95MOL   H17630444   1.945   2.410   1.103 -0.0912 -0.5038 -1.5717
   95MOL   H17730445   1.800   2.332   1.159  1.7052 -1.0070  0.0194
   95MOL   C17830446   1.762   2.518   1.052  0.1692  0.1357 -0.0557
   95MOL   O17930447   1.839   2.632   1.027  0.1091 -0.0054  0.1082
   95MOL   C18030448   1.772   2.757   1.006  0.2541 -0.3148 -0.2788
   95MOL   C18130449   1.866   2.870   1.052  0.4918  0.0776  0.0674
   95MOL   C18230450   2.001   2.882   0.975  0.1777  0.0127  0.2381
   95MOL   C18330451   1.739   2.458   0.906  0.5443  0.7963  0.3334
   95MOL   H18430452   1.674   2.554   1.106 -1.0252  1.8551 -3.0451
   95MOL   H18530453   1.747   2.756   0.900 -0.6571  1.9559 -0.1120
   95MOL   H18630454   1.677   2.758   1.059  0.1763 -2.3213 -0.3312
   95MOL   H18730455   1.887   2.844   1.156 -2.2114 -0.3325  0.5386
   95MOL   H18830456   1.805   2.960   1.049 -0.9152 -0.8996 -2.6877
   95MOL   H18930457   2.080   2.933   1.030 -0.9982  0.3983  1.5838
   95MOL   H19030458   2.001   2.928   0.876  1.3287  1.1430  0.7578
   95MOL   H19130459   2.041   2.782   0.959 -0.5386  0.2297 -3.4935
   95MOL   H19230460   1.714   2.543   0.843  2.2576  1.0975  0.0442
   95MOL   H19330461   1.838   2.429   0.871 -0.6946 -2.2420 -0.8769
   95MOL   C19430462   1.641   2.345   0.888  0.6817  0.0416 -0.0078
   95MOL   O19530463   1.512   2.404   0.884  0.7750 -0.0719 -0.4081
   95MOL   C19630464   1.418   2.323   0.958 -0.1545 -0.4366 -0.2515
   95MOL   C19730465   1.278   2.383   0.946  0.5526 -0.3854 -0.3092
   95MOL   C19830466   1.274   2.517   1.005 -0.1247 -0.2579  0.7580
   95MOL   C19930467   1.657   2.278   0.747 -0.3332 -0.5343 -0.6992
   95MOL   H20030468   1.657   2.272   0.968 -1.2220  1.8800  2.1196
   95MOL   H20130469   1.418   2.216   0.941  0.9017 -0.2198 -1.7851
   95MOL   H20230470   1.448   2.337   1.061 -2.2092 -0.4425  0.3688
   95MOL   H20330471   1.209   2.320   1.001  0.2726 -0.3704 -0.6451
   95MOL   H20430472   1.246   2.381   0.842 -2.1286 -2.2227  0.5141
   95MOL   H20530473   1.353   2.585   0.972 -0.1719 -0.8620 -0.6218
   95MOL   H20630474   1.275   2.520   1.114  0.1236 -0.0037  0.7501
   95MOL   H20730475   1.180   2.569   0.986  0.4931  0.7410  0.4219
   95MOL   H20830476   1.639   2.346   0.664 -1.6235  1.7329  1.3620
   95MOL   H20930477   1.762   2.259   0.723  0.4580  2.9760 -0.2260
   95MOL   C21030478   1.599   2.144   0.719  0.1777 -0.0601 -0.0870
   95MOL   O21130479   1.591   2.111   0.579 -0.0895  0.4479 -0.1193
   95MOL   C21230480   1.489   2.172   0.514  0.6481  0.0379  0.0419
   95MOL   C21330481   1.424   2.069   0.426  0.7266  0.5991  0.0856
   95MOL   C21430482   1.307   2.110   0.335 -0.0115  0.0029  0.3864
   95MOL   C21530483   1.682   2.029   0.791  0.0954 -0.2045  0.0408
   95MOL   H21630484   1.503   2.135   0.769  0.9172 -0.5942  1.3035
   95MOL   H21730485   1.409   2.214   0.575  1.7852 -0.6410  2.0396
   95MOL   H21830486   1.534   2.246   0.447 -0.6436  1.1541  0.3839
   95MOL   H21930487   1.390   1.986   0.488  0.1115  0.5991 -0.2512
   95MOL   H22030488   1.505   2.024   0.368  1.1578 -0.1128  1.2018
   95MOL   H22130489   1.279   2.024   0.275  1.4177  0.6939 -1.3198
   95MOL   H22230490   1.346   2.187   0.268  1.8896 -0.0846  1.3569
   95MOL   H22330491   1.222   2.151   0.389 -0.6031 -0.1208 -0.4531
   95MOL   H22430492   1.774   2.011   0.736  0.6585  1.4148  0.4096
   95MOL   H22530493   1.710   2.063   0.891 -1.3829 -1.6375  0.9654
   95MOL   C22630494   1.612   1.892   0.785  0.7252  0.0230 -0.6074
   95MOL   O22730495   1.693   1.798   0.861  0.0122 -0.5137  0.2753
   95MOL   C22830496   1.697   1.668   0.815  0.5518  0.3021 -0.5691
   95MOL   C22930497   1.789   1.594   0.912  0.1942  0.3937  0.1294
   95MOL   C23030498   1.933   1.637   0.905  0.0006 -0.0637 -0.0337
   95MOL   C23130499   1.463   1.889   0.830 -0.0944 -0.4794  0.8295
   95MOL   H23230500   1.606   1.856   0.682 -0.2237  0.0277 -0.5529
   95MOL   H23330501   1.598   1.623   0.814  0.2337  1.0227 -2.2319
   95MOL   H23430502   1.737   1.675   0.714 -0.0568  4.2158 -0.6235
   95MOL   H23530503   1.776   1.487   0.892 -0.0935  0.8095 -2.1018
   95MOL   H23630504   1.759   1.614   1.014 -2.2843 -2.6159  0.0739
   95MOL   H23730505   1.978   1.607   0.810  0.6239 -0.4016  0.3669
   95MOL   H23830506   1.995   1.601   0.986 -1.9630  1.7801  2.3500
   95MOL   H23930507   1.945   1.745   0.898 -2.7733  0.3111  0.4554
   95MOL   H24030508   1.397   1.930   0.754  0.2704  1.1095  1.3618
   95MOL   H24130509   1.442   1.782   0.829  2.9859 -1.1436  1.0004
   95MOL   C24230510   1.441   1.943   0.982  0.8039  0.4690 -0.4457
   95MOL   O24330511   1.322   2.009   0.994  0.1539 -0.1246  0.2229
   95MOL   C24430512   1.203   1.935   0.974 -0.2016  0.0370 -0.2225
   95MOL   C24530513   1.090   2.025   0.925 -0.5692 -0.4765  0.2465
   95MOL   C24630514   1.119   2.095   0.793  0.3773 -0.5140 -0.8411
   95MOL   C24730515   1.465   1.839   1.097 -0.0706 -0.0462  0.1941
   95MOL   H24830516   1.520   2.018   0.995  1.7660 -0.5724 -0.1755
   95MOL   H24930517   1.215   1.862   0.893 -1.9048  1.2575 -1.6365
   95MOL   H25030518   1.177   1.881   1.065  0.5314  1.0709  0.6114
   95MOL   H25130519   1.087   2.102   1.002 -1.2678 -1.4518  1.1945
   95MOL   H25230520   0.996   1.970   0.928  0.0582 -1.5732  0.0104
   95MOL   H25330521   1.218   2.141   0.803  0.3142 -0.4483 -0.5181
   95MOL   H25430522   1.044   2.169   0.766  1.8307  1.4571  0.4142
   95MOL   H25530523   1.111   2.025   0.710  1.1365  1.4198 -2.5790
   95MOL   H25630524   1.376   1.777   1.102 -0.2073  0.1806  0.5997
   95MOL   H25730525   1.542   1.771   1.058 -1.6224 -1.1655 -1.0033
   95MOL   C25830526   1.508   1.905   1.230 -0.0328  0.4557 -0.0490
   95MOL   O25930527   1.398   1.982   1.276  0.1816 -0.6252 -0.0187
   95MOL   C26030528   1.432   2.115   1.317  0.4130  0.7670  0.2108
   95MOL   C26130529   1.316   2.175   1.386  0.6717  0.6816  0.0859
   95MOL   C26230530   1.178   2.186   1.309  0.1608 -0.2030  0.2164
   95MOL   C26330531   1.543   1.804   1.340 -0.1328  0.5191 -0.5504
   95MOL   H26430532   1.597   1.967   1.223  0.1590  0.5402  2.5160
   95MOL   H26530533   1.518   2.133   1.383  0.8119 -0.7883  0.1308
   95MOL   H26630534   1.455   2.168   1.224  2.0098 -0.0184  0.1281
   95MOL   H26730535   1.339   2.275   1.424  1.8881  0.1666  0.7188
   95MOL   H26830536   1.298   2.125   1.482 -1.1315  1.1079 -0.0153
   95MOL   H26930537   1.110   2.250   1.366  1.5555 -0.3668  2.1053
   95MOL   H27030538   1.131   2.088   1.306 -2.9036  1.2699 -1.8592
   95MOL   H27130539   1.191   2.224   1.208  0.8894  1.2565  0.8281
   95MOL   H27230540   1.552   1.871   1.426 -1.3866  1.0976 -0.8533
   95MOL   H27330541   1.460   1.733   1.351 -1.2215  1.9570  0.7716
   95MOL   C27430542   1.680   1.735   1.318 -0.7236 -0.1168 -0.3005
   95MOL   O27530543   1.776   1.831   1.315  0.2472 -0.2745  0.0588
   95MOL   C27630544   1.887   1.823   1.226  0.0313 -0.4098  0.7073
   95MOL   C27730545   1.946   1.970   1.203  0.1756  0.3582 -0.1053
   95MOL   C27830546   1.883   2.043   1.078  0.2229 -0.1072 -0.6621
   95MOL   C27930547   1.703   1.638   1.435 -0.0863  0.1827 -0.2846
   95MOL   H28030548   1.681   1.670   1.230  2.2707  0.4450 -0.7293
   95MOL   H28130549   1.970   1.769   1.271  0.2863 -0.7898 -0.2049
   95MOL   H28230550   1.859   1.772   1.134  2.5644  0.1067 -0.3671
   95MOL   H28330551   2.053   1.956   1.183 -0.2479 -1.4072 -1.2608
   95MOL   H28430552   1.928   2.020   1.298  0.8388 -0.6966  0.5903
   95MOL   H28530553   1.932   2.136   1.050 -0.4214  1.2476  2.4465
   95MOL   H28630554   1.780   2.069   1.098 -0.1809 -0.2996 -2.4061
   95MOL   H28730555   1.887   1.974   0.994  0.9732 -1.4179  0.4168
   95MOL   H28830556   1.729   1.711   1.512 -0.5108 -2.1853  2.2072
   95MOL   H28930557   1.601   1.608   1.463 -0.8018  0.0086 -3.0069
   95MOL   C29030558   1.802   1.516   1.411  0.0474 -0.4704  0.3303
   95MOL   O29130559   1.833   1.458   1.540 -0.0681  0.3896 -0.2392
   95MOL   C29230560   1.909   1.537   1.621 -0.2750 -0.0773 -0.3496
   95MOL   C29330561   2.021   1.459   1.692 -0.4537 -0.3108  0.3573
   95MOL   C29430562   1.961   1.368   1.803  1.1146 -0.2380 -0.7433
   95MOL   C29530563   1.731   1.405   1.332 -0.4652 -0.2115 -0.4930
   95MOL   H29630564   1.896   1.550   1.366  0.7280  0.0399  2.0553
   95MOL   H29730565   1.949   1.626   1.571  0.3396 -0.6441 -0.8871
   95MOL   H29830566   1.849   1.586   1.697 -0.3636 -3.2345  1.7009
   95MOL   H29930567   2.089   1.523   1.748 -0.2168 -0.8731  0.7239
   95MOL   H30030568   2.081   1.413   1.613  0.8578 -0.2404  1.3089
   95MOL   H30130569   1.880   1.298   1.781  0.1458  0.8844 -0.7682
   95MOL   H30230570   1.907   1.438   1.867 -1.0004 -1.0798 -1.5416
   95MOL   H30330571   2.042   1.328   1.863 -0.1988  0.3785  1.5186
   95MOL   H30430572   1.638   1.383   1.384 -0.4826 -0.1512 -0.4987
   95MOL   H30530573   1.697   1.450   1.238 -1.7358  0.1064  0.1097
   95MOL   C30630574   1.822   1.283   1.299 -0.5180 -0.4308  0.3542
   95MOL   O30730575   1.745   1.184   1.237 -0.0160  0.2145 -0.1416
   95MOL   C30830576   1.800   1.046   1.240 -0.1471 -0.6106 -0.1431
   95MOL   C30930577   1.698   0.952   1.172 -1.1772 -0.9345  0.0004
   95MOL   C31030578   1.561   0.945   1.241 -0.4032 -0.3071  0.6977
   95MOL   C31130579   1.931   1.314   1.202  0.0521 -0.7741  0.7026
   95MOL   H31230580   1.868   1.252   1.393 -1.0245  4.5064  2.4074
   95MOL   H31330581   1.894   1.052   1.184 -0.0971 -1.6702 -0.1768
   95MOL   H31430582   1.828   1.021   1.342 -0.2156  0.8593  0.2494
   95MOL   H31530583   1.746   0.855   1.191  1.9645  0.6685  0.5803
   95MOL   H31630584   1.700   0.970   1.065  3.1730 -1.0582 -0.0386
   95MOL   H31730585   1.488   0.898   1.176  0.0299  0.8404 -0.6344
   95MOL   H31830586   1.543   1.045   1.280  0.4768  0.1272  0.0044
   95MOL   H31930587   1.555   0.881   1.329 -1.0051 -2.1975 -0.6812
   95MOL   H32030588   1.891   1.360   1.112  2.7067  2.7287  1.2191
   95MOL   H32130589   2.004   1.379   1.250  1.0793  0.2610 -2.1281
   95MOL   H32230590   1.989   1.229   1.167  1.0048  0.6237 -1.1754
   96MOL     C130591   7.655   1.842   0.895  0.2625  0.1065  0.3633
   96MOL     O230592   7.742   1.896   0.794 -0.0629  0.0622  0.0692
   96MOL     C330593   7.823   2.001   0.846 -0.2113  0.2364  0.5028
   96MOL     C430594   0.106   2.035   0.748  0.3815 -0.1314  0.5981
   96MOL     C530595   0.066   2.140   0.645  0.1417  0.0460 -0.6290
   96MOL     C630596   7.558   1.760   0.815 -0.1617  0.1965 -0.8993
   96MOL     H730597   7.601   1.928   0.935 -0.3935 -0.4932  0.7903
   96MOL     H830598   7.760   2.088   0.866  0.9684  1.7456 -2.1539
   96MOL     H930599   0.030   1.974   0.946  0.6076 -0.4718  0.0182
   96MOL    H1030600   0.140   1.941   0.704 -2.5256 -0.8416 -0.2296
   96MOL    H1130601   0.194   2.083   0.791  0.3584  0.3341  0.1325
   96MOL    H1230602   7.799   2.122   0.593  0.2670  0.1198 -0.8844
   96MOL    H1330603   0.132   2.143   0.558 -0.5279  2.2821 -1.0879
   96MOL    H1430604   0.064   2.237   0.693 -0.3628 -0.1122 -0.3279
   96MOL    H1530605   7.516   1.827   0.740  1.8262  1.7446 -0.6929
   96MOL    H1630606   7.611   1.683   0.760  0.7012  0.2898 -0.2183
   96MOL    H1730607   7.699   1.781   0.974 -3.4386 -2.0069  0.9573
   96MOL    C1830608   7.441   1.685   0.892  0.4801 -0.4842  0.0441
   96MOL    O1930609   7.365   1.790   0.944 -0.3277 -0.1535 -0.1150
   96MOL    C2030610   7.288   1.749   1.051  0.0352 -0.5062  0.3418
   96MOL    C2130611   7.245   1.868   1.131  0.0336  0.4886 -0.1663
   96MOL    C2230612   7.365   1.948   1.171 -0.3277 -0.7115 -0.5930
   96MOL    C2330613   7.360   1.608   0.783 -0.3419  0.1596  0.2886
   96MOL    H2430614   7.481   1.613   0.963 -0.5405 -1.1313 -0.0217
   96MOL    H2530615   7.197   1.699   1.018 -0.7003  0.8609  0.2950
   96MOL    H2630616   7.346   1.678   1.111 -2.1242 -2.6537 -0.0052
   96MOL    H2730617   7.187   1.832   1.215  0.8009 -0.0123  0.1484
   96MOL    H2830618   7.173   1.930   1.076  0.6502  0.8900 -0.5289
   96MOL    H2930619   7.459   1.894   1.184  0.5253  1.2897  2.1795
   96MOL    H3030620   7.345   2.012   1.258  0.7436 -1.5746  0.3079
   96MOL    H3130621   7.389   2.019   1.092  0.4927  1.2733  1.3606
   96MOL    H3230622   7.278   1.556   0.834 -2.4695  0.3472 -2.8113
   96MOL    H3330623   7.313   1.680   0.717  0.6411 -0.4028 -1.0351
   96MOL    C3430624   7.423   1.498   0.698 -0.1376 -0.2218 -0.1989
   96MOL    O3530625   7.505   1.424   0.781 -0.3671  0.5221 -0.1653
   96MOL    C3630626   7.623   1.367   0.715 -0.1627 -0.2444 -0.7179
   96MOL    C3730627   7.680   1.265   0.813  0.4135 -0.2800 -0.3803
   96MOL    C3830628   7.585   1.151   0.868 -0.7841  0.2629 -0.4163
   96MOL    C3930629   7.329   1.404   0.618 -0.1404  0.7576 -0.3878
   96MOL    H4030630   7.486   1.541   0.620  1.3944  3.0452  2.6650
   96MOL    H4130631   7.601   1.324   0.617 -1.3825 -2.3967  0.4810
   96MOL    H4230632   7.685   1.457   0.709  0.3603 -0.5428  0.2450
   96MOL    H4330633   7.711   1.324   0.899 -1.0905 -1.0915  0.7415
   96MOL    H4430634   7.773   1.219   0.778  0.7322 -1.7039  2.2463
   96MOL    H4530635   7.618   1.105   0.962  0.4999  0.1173 -0.9341
   96MOL    H4630636   7.572   1.069   0.797  0.0022 -1.2347  1.1227
   96MOL    H4730637   7.489   1.202   0.877 -0.5887  0.9147 -2.0446
   96MOL    H4830638   7.375   1.306   0.602  1.9936  1.7206 -0.3776
   96MOL    H4930639   7.247   1.366   0.679  0.1607 -0.6960 -0.8758
   96MOL    C5030640   7.294   1.468   0.483  0.0411  0.6242  0.2728
   96MOL    O5130641   7.409   1.449   0.399  0.3933  0.1042  0.0830
   96MOL    C5230642   7.410   1.517   0.271 -0.0865 -0.3552 -0.1617
   96MOL    C5330643   7.530   1.470   0.187  0.1424 -0.4686 -0.0543
   96MOL    C5430644   7.664   1.501   0.252  0.0515 -0.6073 -0.2440
   96MOL    C5530645   7.161   1.416   0.429  0.2172 -0.1428 -0.3029
   96MOL    H5630646   7.285   1.574   0.506 -1.5851  0.5396  0.0969
   96MOL    H5730647   7.314   1.489   0.229 -0.3848  3.8345 -2.5764
   96MOL    H5830648   7.414   1.625   0.281  0.6182 -0.4738  0.9473
   96MOL    H5930649   7.526   1.509   0.085 -0.5207 -0.6374 -0.0973
   96MOL    H6030650   7.520   1.363   0.167  1.2167 -0.4091 -0.9887
   96MOL    H6130651   7.663   1.604   0.287  0.1832 -0.9996  0.9363
   96MOL    H6230652   7.746   1.501   0.180 -1.0108  0.4997 -1.4555
   96MOL    H6330653   7.683   1.451   0.347  0.9398 -0.3933 -0.2975
   96MOL    H6430654   7.145   1.428   0.321  1.0145 -1.5033 -0.5745
   96MOL    H6530655   7.155   1.308   0.443  0.6615 -0.0467  0.6402
   96MOL    C6630656   7.048   1.492   0.500  0.5029  0.4789 -0.4421
   96MOL    O6730657   7.054   1.631   0.469  0.2511 -0.3423 -0.7177
   96MOL    C6830658   7.044   1.710   0.591 -0.5305 -0.3207  0.1494
   96MOL    C6930659   7.050   1.852   0.555  0.4967 -0.4492  0.1673
   96MOL    C7030660   6.943   1.911   0.464 -0.2105  0.3326 -0.0879
   96MOL    C7130661   6.910   1.453   0.434  0.5042  0.4097  0.4658
   96MOL    H7230662   7.036   1.461   0.604 -1.3016  0.0969 -0.7557
   96MOL    H7330663   6.944   1.711   0.636 -1.2493 -2.5947 -1.2870
   96MOL    H7430664   7.126   1.691   0.660 -0.7360 -0.1171  0.4530
   96MOL    H7530665   7.141   1.858   0.495  0.7897  1.2565  0.7251
   96MOL    H7630666   7.064   1.910   0.646  0.4776 -0.3895  0.1327
   96MOL    H7730667   6.933   1.838   0.384  0.7923  1.3733 -1.1828
   96MOL    H7830668   6.982   2.001   0.417 -1.3286  0.8506 -0.0451
   96MOL    H7930669   6.844   1.916   0.509 -0.1373  1.7468 -0.0679
   96MOL    H8030670   6.833   1.512   0.483  0.7503  0.9718  0.1747
   96MOL    H8130671   6.911   1.477   0.328 -2.3674 -0.6340  0.1604
   96MOL    C8230672   6.868   1.299   0.454 -0.2463  0.0338  0.1345
   96MOL    O8330673   6.865   1.276   0.596  0.1533 -0.2196 -0.0923
   96MOL    C8430674   6.936   1.160   0.654  0.0565  0.2645 -0.3272
   96MOL    C8530675   6.957   1.171   0.806 -0.1588  0.1163  0.4620
   96MOL    C8630676   7.032   1.050   0.856  0.0045  0.3547 -1.0202
   96MOL    C8730677   6.725   1.260   0.402 -0.2129  0.6262 -0.5993
   96MOL    H8830678   6.954   1.243   0.416  0.0875  0.4950  0.2059
   96MOL    H8930679   6.860   1.082   0.642 -0.9326  1.1199  0.2465
   96MOL    H9030680   7.024   1.127   0.601 -1.4964 -0.1498 -2.7124
   96MOL    H9130681   6.854   1.188   0.839 -0.9871  0.5836 -2.2496
   96MOL    H9230682   7.025   1.252   0.829  0.4722 -0.3473  0.2409
   96MOL    H9330683   6.966   0.966   0.834 -3.4747  2.5012  0.7938
   96MOL    H9430684   7.052   1.066   0.962 -2.6787  1.6542 -0.6670
   96MOL    H9530685   7.128   1.042   0.804  1.3467 -1.2165  1.5767
   96MOL    H9630686   6.702   1.158   0.433  0.6610  0.4945 -0.3711
   96MOL    H9730687   6.659   1.331   0.451  0.0504  1.0559 -0.8684
   96MOL    C9830688   6.704   1.278   0.252  0.0242 -0.6619 -0.7148
   96MOL    O9930689   6.790   1.189   0.182 -0.4582  0.1280 -0.0972
   96MOL   C10030690   6.862   1.231   0.072  0.3431 -0.0503  0.0104
   96MOL   C10130691   6.917   1.102   0.015  0.3535  0.7848 -0.2680
   96MOL   C10230692   7.012   1.112   7.726 -0.0897 -0.2519 -0.5761
   96MOL   C10330693   6.564   1.224   0.213  0.2743 -0.3906 -0.8028
   96MOL   H10430694   6.716   1.381   0.220 -0.8053  0.2569  1.8171
   96MOL   H10530695   6.791   1.271   7.828  0.6188 -0.8536 -0.7242
   96MOL   H10630696   6.942   1.302   0.093  0.0381  0.4817 -0.6045
   96MOL   H10730697   6.837   1.030   7.825  1.8921 -1.6708  2.2844
   96MOL   H10830698   6.982   1.059   0.092 -0.0832 -1.7637 -1.2788
   96MOL   H10930699   6.974   1.160   7.636  0.1803  1.7041  0.3078
   96MOL   H11030700   7.038   1.008   7.707  0.0918  0.3189 -3.5941
   96MOL   H11130701   7.097   1.168   7.765 -0.9386  0.0719  0.8525
   96MOL   H11230702   6.564   1.199   0.107  3.1898 -1.5530 -0.5654
   96MOL   H11330703   6.552   1.125   0.256 -0.8063  0.1407  0.1392
   96MOL   C11430704   6.446   1.325   0.249 -0.5539 -0.1076 -0.0451
   96MOL   O11530705   6.462   1.438   0.163 -0.4630 -0.1062 -0.1360
   96MOL   C11630706   6.382   1.552   0.202 -0.9654  0.1173  0.0977
   96MOL   C11730707   6.461   1.636   0.313  0.2868  0.3240 -0.7073
   96MOL   C11830708   6.572   1.717   0.248 -1.1437 -0.1874 -0.5144
   96MOL   C11930709   6.313   1.248   0.229  1.0150 -1.1249 -0.0586
   96MOL   H12030710   6.459   1.349   0.354 -1.2950  0.7091 -0.1391
   96MOL   H12130711   6.376   1.624   0.121 -1.9446 -0.8070 -0.6561
   96MOL   H12230712   6.287   1.517   0.243 -2.0817 -0.0585 -2.5417
   96MOL   H12330713   6.506   1.571   0.388  3.5565  3.9491  0.7159
   96MOL   H12430714   6.391   1.698   0.369 -0.8134 -0.1215 -1.5683
   96MOL   H12530715   6.635   1.773   0.317  0.5915 -0.3038 -1.9421
   96MOL   H12630716   6.534   1.798   0.186 -1.2404 -1.9850 -2.8805
   96MOL   H12730717   6.639   1.655   0.188  0.6565  2.7382 -1.6471
   96MOL   H12830718   6.234   1.323   0.232  0.8451 -1.2715 -0.6704
   96MOL   H12930719   6.320   1.203   0.130  0.2328 -0.1587 -0.5634
   96MOL   C13030720   6.267   1.147   0.339  0.2810 -0.7630 -0.1051
   96MOL   O13130721   6.254   1.224   0.464  0.2644  0.3565 -0.2423
   96MOL   C13230722   6.257   1.153   0.589  0.1052  0.3030  0.9239
   96MOL   C13330723   6.312   1.249   0.695  0.6523  0.5446  0.1737
   96MOL   C13430724   6.444   1.305   0.648  1.1505 -0.0283 -0.0239
   96MOL   C13530725   6.131   1.069   0.313 -0.1470 -0.7627  0.0185
   96MOL   H13630726   6.348   1.076   0.353  2.6256  1.4428 -1.9443
   96MOL   H13730727   6.158   1.122   0.619 -0.0519  0.0799  0.1943
   96MOL   H13830728   6.331   1.073   0.579 -1.8501 -1.4870  0.4955
   96MOL   H13930729   6.338   1.204   0.791 -2.4129  0.9599  1.2527
   96MOL   H14030730   6.238   1.324   0.722 -1.3317 -1.4127  0.3140
   96MOL   H14130731   6.438   1.371   0.562  1.5636 -0.5623 -0.4721
   96MOL   H14230732   6.513   1.227   0.617  0.0219 -0.1286 -2.3315
   96MOL   H14330733   6.498   1.348   0.733 -1.2491  0.6586  1.2142
   96MOL   H14430734   6.113   1.009   0.402  2.5424 -1.2616  0.2783
   96MOL   H14530735   6.052   1.144   0.312  2.7061  2.3482 -0.5893
   96MOL   C14630736   6.123   0.982   0.191  0.6268  0.2050  0.5085
   96MOL   O14730737   6.109   1.063   0.079  0.4176 -0.5042  0.1503
   96MOL   C14830738   6.034   1.001   7.801 -0.3102  0.0131  0.7790
   96MOL   C14930739   6.013   1.119   7.704 -0.0772 -0.4309 -0.3248
   96MOL   C15030740   6.148   1.179   7.657 -0.3344 -0.1259 -0.4571
   96MOL   C15130741   6.237   0.883   0.166  0.3826  0.7149  0.4839
   96MOL   H15230742   6.030   0.932   0.220  0.8151  0.6517  1.9530
   96MOL   H15330743   6.082   0.919   7.750  0.5627  0.8869  0.1871
   96MOL   H15430744   5.942   0.955   0.009 -0.0629 -1.0876 -0.0178
   96MOL   H15530745   5.964   1.204   7.751  0.7113  1.1291 -2.2494
   96MOL   H15630746   5.949   1.081   7.624 -0.4882  1.1212 -0.7387
   96MOL   H15730747   6.234   1.113   7.668  0.0368  0.2932 -0.8282
   96MOL   H15830748   6.173   1.253   7.734 -0.3827  0.0774 -0.6333
   96MOL   H15930749   6.155   1.213   7.554  3.8310  1.3828  0.1967
   96MOL   H16030750   6.230   0.828   0.073 -0.4173  0.3636  0.7416
   96MOL   H16130751   6.328   0.940   0.151 -0.4746  1.6493 -1.3240
   96MOL   C16230752   6.238   0.776   0.276  0.4764  0.2045 -0.2335
   96MOL   O16330753   6.172   0.663   0.233 -0.5281  0.6158  0.1760
   96MOL   C16430754   6.028   0.660   0.238  0.0570  0.2609  0.9793
   96MOL   C16530755   5.990   0.515   0.220 -0.2046  0.4596  1.1362
   96MOL   C16630756   6.018   0.464   0.076  0.4666  0.1855 -0.1393
   96MOL   C16730757   6.386   0.742   0.316  0.0429  0.4111 -0.0729
   96MOL   H16830758   6.197   0.807   0.372  2.6075 -1.2648  1.1917
   96MOL   H16930759   5.996   0.695   0.336 -0.6182 -1.0965  1.2527
   96MOL   H17030760   5.972   0.711   0.160  1.4295  0.5802  0.1870
   96MOL   H17130761   5.884   0.504   0.240  0.0275 -4.3438  0.4902
   96MOL   H17230762   6.045   0.448   0.286  2.0453 -0.4292 -1.5308
   96MOL   H17330763   6.016   0.544   0.002 -0.1490 -0.7226 -1.1214
   96MOL   H17430764   5.930   0.413   0.038 -0.8609  0.0142  3.0132
   96MOL   H17530765   6.102   0.394   0.083 -1.1475 -1.6822  1.0253
   96MOL   H17630766   6.425   0.839   0.347 -0.5068 -0.2708  2.8163
   96MOL   H17730767   6.387   0.683   0.407  0.0241  1.5220  0.6592
   96MOL   C17830768   6.471   0.673   0.206 -0.0921  0.2813 -0.6135
   96MOL   O17930769   6.613   0.694   0.241 -0.0369 -0.5035 -0.3726
   96MOL   C18030770   6.682   0.757   0.139 -0.3522  0.3190 -0.2008
   96MOL   C18130771   6.834   0.739   0.164 -0.1838 -0.0195  0.1292
   96MOL   C18230772   6.896   0.817   0.278 -0.3127 -0.1352  0.3064
   96MOL   C18330773   6.447   0.525   0.195 -0.5352  0.2211 -0.0185
   96MOL   H18430774   6.445   0.718   0.111 -1.4892  0.9847  0.0890
   96MOL   H18530775   6.661   0.719   0.039 -0.5908  1.7985 -0.7202
   96MOL   H18630776   6.665   0.865   0.144 -0.6949  0.3102 -0.9726
   96MOL   H18730777   6.880   0.766   0.069 -1.8092 -0.3549 -0.7590
   96MOL   H18830778   6.852   0.633   0.182 -2.2390 -0.6467 -1.3697
   96MOL   H18930779   7.001   0.803   0.301 -0.4128 -2.5204 -0.6288
   96MOL   H19030780   6.842   0.772   0.362  0.8791  1.2426  1.8489
   96MOL   H19130781   6.880   0.925   0.277  0.0554 -0.0889 -0.7697
   96MOL   H19230782   6.349   0.505   0.151  0.7544 -2.2229 -1.9005
   96MOL   H19330783   6.501   0.488   0.107 -1.5449  2.2016 -1.5275
   96MOL   C19430784   6.457   0.424   0.312 -0.0329 -0.1418  0.2696
   96MOL   O19530785   6.447   0.297   0.242  0.0200  0.2292 -0.4104
   96MOL   C19630786   6.324   0.225   0.232 -0.0703  0.0244 -0.2617
   96MOL   C19730787   6.324   0.170   0.093  0.4484  0.8316  0.6272
   96MOL   C19830788   6.437   0.066   0.071 -0.3650 -0.4088  0.2757
   96MOL   C19930789   6.591   0.434   0.382  0.5123  0.1984  0.5885
   96MOL   H20030790   6.377   0.450   0.381  0.7410  1.9669  0.3928
   96MOL   H20130791   6.331   0.144   0.305  2.3308 -1.1101 -1.6798
   96MOL   H20230792   6.242   0.293   0.256 -1.7349 -2.3976  1.2417
   96MOL   H20330793   6.334   0.248   0.018  1.5265 -2.1653 -2.4186
   96MOL   H20430794   6.230   0.116   0.080  1.6632 -1.3907  0.9245
   96MOL   H20530795   6.410   0.020   7.804 -1.9041  0.5536  0.2214
   96MOL   H20630796   6.441   7.812   0.142 -2.8995 -1.8746 -1.2034
   96MOL   H20730797   6.537   0.104   0.052  0.1569 -0.4023  2.8435
   96MOL   H20830798   6.668   0.456   0.308  1.6857 -1.9729  1.0994
   96MOL   H20930799   6.596   0.522   0.445  0.5363  0.5922  0.0441
   96MOL   C21030800   6.627   0.310   0.483 -0.8293  0.8037  0.5319
   96MOL   O21130801   6.750   0.351   0.546  0.0858 -0.0730  0.1765
   96MOL   C21230802   6.865   0.322   0.467 -0.2211 -1.1271 -0.3364
   96MOL   C21330803   6.987   0.388   0.523 -0.1568  0.2259  0.2293
   96MOL   C21430804   6.990   0.533   0.465  0.1058  0.1080  0.1273
   96MOL   C21530805   6.512   0.279   0.587  0.0673 -0.2255 -0.0309
   96MOL   H21630806   6.625   0.216   0.429  0.2366 -0.5304  2.7875
   96MOL   H21730807   6.878   0.215   0.484  0.4866 -0.7964  1.3370
   96MOL   H21830808   6.856   0.341   0.360  0.4928 -1.8622 -0.5358
   96MOL   H21930809   7.075   0.329   0.499 -2.8133 -4.0573  0.3726
   96MOL   H22030810   6.981   0.395   0.632  0.2901 -1.6737  0.3995
   96MOL   H22130811   6.889   0.572   0.472  0.2071  0.6038 -1.1373
   96MOL   H22230812   7.031   0.542   0.364  2.7132  2.2997  1.3076
   96MOL   H22330813   7.057   0.584   0.534  1.5192  0.8301 -1.7385
   96MOL   H22430814   6.501   0.367   0.651 -0.4052 -0.2720 -0.0519
   96MOL   H22530815   6.418   0.260   0.537 -1.3766 -1.5678  3.0670
   96MOL   C22630816   6.530   0.149   0.669  0.1185 -0.5202  0.7058
   96MOL   O22730817   6.531   0.035   0.580  0.3133 -0.0867 -0.4535
   96MOL   C22830818   6.408   7.786   0.582  0.5994 -0.2789 -0.4666
   96MOL   C22930819   6.423   7.683   0.467  0.0015  0.2457 -0.1078
   96MOL   C23030820   6.322   7.566   0.450 -0.5802 -0.4492  0.2433
   96MOL   C23130821   6.649   0.140   0.762 -0.0756  0.1657  0.1099
   96MOL   H23230822   6.449   0.144   0.742  0.4462 -0.0358  1.1090
   96MOL   H23330823   6.393   7.737   0.678  1.6441 -0.2053 -0.2621
   96MOL   H23430824   6.326   0.027   0.562 -1.3123 -1.7710  1.8975
   96MOL   H23530825   6.518   7.630   0.473 -0.3572 -0.3107  0.8308
   96MOL   H23630826   6.425   7.720   0.365 -0.3680  1.7682  0.4273
   96MOL   H23730827   6.315   7.510   0.543  0.2546  1.2201  1.3343
   96MOL   H23830828   6.354   7.496   0.373  0.0565 -1.1803  1.1591
   96MOL   H23930829   6.218   7.595   0.435 -0.7482 -0.8865  0.5484
   96MOL   H24030830   6.656   0.039   0.804  1.7188 -0.3188 -1.2937
   96MOL   H24130831   6.740   0.144   0.702 -0.5000  0.4413 -0.5086
   96MOL   C24230832   6.650   0.246   0.884  0.0244  0.6144  0.8278
   96MOL   O24330833   6.533   0.234   0.959  0.0982 -0.1117  0.2656
   96MOL   C24430834   6.484   0.362   0.997 -0.1662  1.1884 -0.0449
   96MOL   C24530835   6.370   0.338   1.093  1.0925  0.3205 -0.3965
   96MOL   C24630836   6.268   0.233   1.047 -0.5058  0.6843  0.2865
   96MOL   C24730837   6.767   0.234   0.977  0.2187 -0.1793  0.3546
   96MOL   H24830838   6.659   0.344   0.838  1.1134  0.0079 -0.2726
   96MOL   H24930839   6.553   0.427   1.051 -0.9328  0.1857  2.2302
   96MOL   H25030840   6.452   0.418   0.909  0.6130  1.3534 -0.2206
   96MOL   H25130841   6.326   0.432   1.126  0.8821  0.1386 -0.1582
   96MOL   H25230842   6.415   0.293   1.182  1.8445 -0.1974 -1.0260
   96MOL   H25330843   6.246   0.238   0.941 -0.8287  0.2857  0.3332
   96MOL   H25430844   6.179   0.250   1.107  0.6554  0.6034  2.0930
   96MOL   H25530845   6.300   0.132   1.073 -0.0711  0.8712  0.4955
   96MOL   H25630846   6.737   0.255   1.079  1.7671 -1.1137  1.0160
   96MOL   H25730847   6.808   0.133   0.977 -1.0398 -0.7122  1.6245
   96MOL   C25830848   6.884   0.330   0.944  0.0254 -0.6841 -0.5406
   96MOL   O25930849   6.833   0.460   0.951 -0.1300 -0.9830  0.3453
   96MOL   C26030850   6.876   0.552   0.859  0.3786  0.1452 -0.2068
   96MOL   C26130851   6.806   0.692   0.871  0.0238  0.2872  0.2775
   96MOL   C26230852   6.846   0.757   1.002 -0.3391  0.3101  0.2424
   96MOL   C26330853   6.996   0.317   1.051  0.1779  0.4398  0.0405
   96MOL   H26430854   6.920   0.306   0.844 -0.5620  2.6035 -1.5955
   96MOL   H26530855   6.984   0.563   0.868  0.1851  0.6685  1.7479
   96MOL   H26630856   6.842   0.522   0.760 -0.0317  0.3864 -0.1438
   96MOL   H26730857   6.699   0.683   0.853 -0.0825  2.2256 -0.2274
   96MOL   H26830858   6.846   0.759   0.795  0.5986  1.8924  1.9637
   96MOL   H26930859   6.946   0.799   1.002 -0.6228  0.9980  0.9399
   96MOL   H27030860   6.824   0.697   1.091 -0.5095  1.8426  1.2536
   96MOL   H27130861   6.783   0.845   1.016  1.3557  1.3762  1.2522
   96MOL   H27230862   6.957   0.321   1.153  0.1892 -1.5813  0.1369
   96MOL   H27330863   7.029   0.215   1.034 -1.7904  0.1384 -2.4111
   96MOL   C27430864   7.121   0.403   1.031  0.4790  0.2348 -0.6470
   96MOL   O27530865   7.200   0.382   1.143  0.6714 -0.0214 -0.0690
   96MOL   C27630866   7.164   0.456   1.263 -0.2488  0.3511  0.8838
   96MOL   C27730867   7.238   0.395   1.385 -0.0994  0.1348  0.3202
   96MOL   C27830868   7.191   0.471   1.515  0.1933 -0.2683  0.8410
   96MOL   C27930869   7.196   0.371   0.907 -0.0735 -0.1512  0.3532
   96MOL   H28030870   7.103   0.511   1.025  0.1886  0.2763  0.7296
   96MOL   H28130871   7.192   0.559   1.244 -0.6804  0.7427  2.2719
   96MOL   H28230872   7.057   0.472   1.281 -0.5238 -0.6036  0.1460
   96MOL   H28330873   7.345   0.394   1.366 -0.2318 -1.7442 -0.3675
   96MOL   H28430874   7.222   0.288   1.395 -1.3940  0.3431  0.6051
   96MOL   H28530875   7.251   0.430   1.596  0.8818  0.0621  0.4953
   96MOL   H28630876   7.083   0.459   1.528 -0.0366  1.2158  0.4046
   96MOL   H28730877   7.195   0.579   1.506  1.3150 -0.4151 -0.4993
   96MOL   H28830878   7.226   0.266   0.910 -1.9933 -0.6900  1.6287
   96MOL   H28930879   7.137   0.365   0.815  1.0411 -0.9442 -0.3325
   96MOL   C29030880   7.329   0.444   0.882  0.1312 -0.1107 -0.5355
   96MOL   O29130881   7.408   0.378   0.782 -0.0605  0.3778  0.2168
   96MOL   C29230882   7.512   0.304   0.842  0.0104  0.2249 -0.8350
   96MOL   C29330883   7.561   0.196   0.743 -0.5026 -0.1795 -0.5603
   96MOL   C29430884   7.462   0.085   0.724 -0.5580  0.0521  0.9022
   96MOL   C29530885   7.296   0.581   0.814  0.8141 -0.7738  0.8063
   96MOL   H29630886   7.383   0.464   0.975 -0.1361  0.2364 -0.4538
   96MOL   H29730887   7.597   0.361   0.878 -1.1290  4.1271 -3.9337
   96MOL   H29830888   7.479   0.239   0.923  1.1631 -0.3808 -0.8357
   96MOL   H29930889   7.655   0.152   0.776  0.2471  0.2282 -2.1156
   96MOL   H30030890   7.579   0.244   0.647  1.5991  0.9087  0.3327
   96MOL   H30130891   7.382   0.134   0.669  1.0160  1.4811 -0.1631
   96MOL   H30230892   7.420   0.052   0.819  0.9568 -0.0473  1.5475
   96MOL   H30330893   7.496   7.827   0.667 -0.1566  0.0446  1.1481
   96MOL   H30430894   7.261   0.565   0.712 -2.2977  0.3138  1.6369
   96MOL   H30530895   7.212   0.631   0.863  0.2761 -0.4360 -0.4485
   96MOL   C30630896   7.412   0.683   0.801 -0.7663 -0.2847 -0.5581
   96MOL   O30730897   7.383   0.786   0.707  0.3388  0.1254 -0.2662
   96MOL   C30830898   7.453   0.770   0.584 -0.7275  0.3159 -0.1865
   96MOL   C30930899   7.420   0.881   0.488 -0.5014  0.3197 -0.0090
   96MOL   C31030900   7.445   1.017   0.545 -0.1143  0.0785 -0.7600
   96MOL   C31130901   7.421   0.774   0.935  0.0225  0.1983  0.4927
   96MOL   H31230902   7.502   0.624   0.782 -0.9487 -0.3545 -1.1966
   96MOL   H31330903   7.560   0.763   0.607 -0.7638  1.5004  0.3861
   96MOL   H31430904   7.426   0.673   0.544  0.8648  0.5581 -1.9027
   96MOL   H31530905   7.317   0.880   0.452 -0.7870  0.9785  0.7743
   96MOL   H31630906   7.483   0.872   0.400 -1.1315  0.1509 -0.4496
   96MOL   H31730907   7.423   1.034   0.650 -0.5982 -1.2888 -0.6309
   96MOL   H31830908   7.396   1.087   0.478 -0.1119  0.5342 -0.2879
   96MOL   H31930909   7.553   1.027   0.533  0.1289  1.0127  1.9050
   96MOL   H32030910   7.469   0.715   1.013 -2.4308 -1.3981  0.8404
   96MOL   H32130911   7.492   0.851   0.906 -0.6973  1.3210  1.6991
   96MOL   H32230912   7.325   0.819   0.957  0.0516  0.3204  0.3754
   97MOL     C130913   3.166   6.232   5.274 -0.2765  0.4576  0.3372
   97MOL     O230914   3.155   6.127   5.175  0.0040  0.3296 -0.0928
   97MOL     C330915   3.234   6.151   5.056  0.0115 -0.2363 -0.2137
   97MOL     C430916   3.231   6.025   4.964 -0.0107 -0.3926  0.3901
   97MOL     C530917   3.310   5.905   5.017  0.3238  0.4879  0.8559
   97MOL     C630918   3.103   6.198   5.407 -0.6947 -0.3177  0.2349
   97MOL     H730919   3.125   6.325   5.235 -1.4298 -0.4172 -0.5814
   97MOL     H830920   3.190   6.236   5.005  1.0979  0.8453  0.6457
   97MOL     H930921   3.337   6.169   5.085 -0.1438 -1.9647  1.5324
   97MOL    H1030922   3.272   6.046   4.865 -1.2101  2.0881  0.3853
   97MOL    H1130923   3.125   6.004   4.952  0.1240 -1.0406  0.3460
   97MOL    H1230924   3.414   5.922   5.045  0.7207 -2.1376  1.1268
   97MOL    H1330925   3.322   5.834   4.935 -2.8609  2.3992 -1.3411
   97MOL    H1430926   3.260   5.853   5.098 -3.2085 -0.6076 -1.8934
   97MOL    H1530927   3.119   6.282   5.475 -0.1853  0.9241 -1.3858
   97MOL    H1630928   2.995   6.186   5.394 -0.7816 -0.9374  1.3733
   97MOL    H1730929   3.271   6.255   5.291 -0.7451  3.0991 -0.0475
   97MOL    C1830930   3.161   6.078   5.474 -0.2334  0.4887 -0.8021
   97MOL    O1930931   3.285   6.124   5.535  1.1975  0.2396 -0.0465
   97MOL    C2030932   3.403   6.046   5.495  0.1872  0.4724 -0.4939
   97MOL    C2130933   3.517   6.107   5.576 -0.4515  0.6149 -0.5486
   97MOL    C2230934   3.501   6.091   5.723 -0.9483  0.2988 -0.0273
   97MOL    C2330935   3.059   5.996   5.577  0.0514 -0.5343 -0.4484
   97MOL    H2430936   3.177   6.003   5.396  0.7258 -1.1220  0.8847
   97MOL    H2530937   3.377   5.943   5.518 -1.8826  0.5919 -2.1423
   97MOL    H2630938   3.422   6.059   5.389 -0.6068  0.4401 -0.6419
   97MOL    H2730939   3.529   6.214   5.557 -2.6126  0.8908 -0.4643
   97MOL    H2830940   3.612   6.075   5.533  0.3311 -2.4069  3.0994
   97MOL    H2930941   3.411   6.141   5.761 -0.8048  1.4197 -1.1274
   97MOL    H3030942   3.586   6.133   5.775  0.3347 -1.9387 -0.2704
   97MOL    H3130943   3.491   5.984   5.741  0.7718  0.1170 -0.1593
   97MOL    H3230944   3.046   6.063   5.662 -2.0612 -2.5274  0.8630
   97MOL    H3330945   2.966   5.998   5.520  1.1904  1.0567 -2.3046
   97MOL    C3430946   3.091   5.856   5.618 -0.1720 -0.1068  0.8491
   97MOL    O3530947   2.995   5.817   5.714  0.0446 -0.1119 -0.2995
   97MOL    C3630948   3.027   5.838   5.852 -0.8941 -0.9226  0.8596
   97MOL    C3730949   3.111   5.719   5.894 -0.3066 -0.2426 -0.3725
   97MOL    C3830950   3.179   5.732   6.032 -0.0233  0.0896  0.3440
   97MOL    C3930951   3.074   5.761   5.492 -0.4523  0.8026 -0.4001
   97MOL    H4030952   3.191   5.847   5.661 -0.7233 -0.2581  2.1241
   97MOL    H4130953   3.072   5.932   5.881  0.2530 -0.3947 -2.4222
   97MOL    H4230954   2.928   5.853   5.896 -1.5507  1.0139 -1.1684
   97MOL    H4330955   3.197   5.711   5.828 -1.0305 -1.8846 -1.1512
   97MOL    H4430956   3.054   5.626   5.887  0.5387 -0.8435  0.6857
   97MOL    H4530957   3.114   5.769   6.111  1.2267  0.7643  1.0744
   97MOL    H4630958   3.261   5.803   6.042  1.2106 -1.2678  0.1911
   97MOL    H4730959   3.216   5.633   6.059 -0.4669 -0.3905 -0.7805
   97MOL    H4830960   2.966   5.766   5.479 -0.7300  0.6353  1.8165
   97MOL    H4930961   3.115   5.800   5.398 -1.1533 -1.3717 -1.6506
   97MOL    C5030962   3.115   5.615   5.511 -0.1647 -0.7194  0.0120
   97MOL    O5130963   3.021   5.529   5.442  0.5807 -0.0832 -0.0873
   97MOL    C5230964   2.916   5.486   5.529 -0.5599 -0.1787  0.1922
   97MOL    C5330965   2.832   5.389   5.444  0.0495  0.7831  0.2483
   97MOL    C5430966   2.909   5.282   5.371 -0.2956  0.1923  0.6567
   97MOL    C5530967   3.243   5.573   5.440  0.1697 -0.6720 -0.2815
   97MOL    H5630968   3.126   5.595   5.618  0.2845 -1.8993 -0.2397
   97MOL    H5730969   2.972   5.439   5.611 -2.2994  0.2299  1.6490
   97MOL    H5830970   2.865   5.577   5.560  1.7361  0.8600  1.0547
   97MOL    H5930971   2.782   5.444   5.363  0.9027 -0.8630 -1.4371
   97MOL    H6030972   2.758   5.342   5.508 -0.6340 -0.7201 -1.6072
   97MOL    H6130973   2.852   5.199   5.329  1.1114 -0.1054 -0.7051
   97MOL    H6230974   2.995   5.248   5.429 -0.2648  2.2066  1.8026
   97MOL    H6330975   2.946   5.329   5.280  1.2229  0.3844  1.3578
   97MOL    H6430976   3.215   5.588   5.336 -1.0377 -0.5521  0.0530
   97MOL    H6530977   3.325   5.638   5.469  0.8001 -1.9262  0.7802
   97MOL    C6630978   3.272   5.419   5.449 -0.0347  0.9139  0.0046
   97MOL    O6730979   3.328   5.387   5.324 -0.0223  0.3240 -0.1695
   97MOL    C6830980   3.299   5.261   5.282  0.1149 -0.6550 -0.1509
   97MOL    C6930981   3.411   5.222   5.176 -0.4413  0.3018  0.6278
   97MOL    C7030982   3.534   5.165   5.243  0.4904  0.1657 -0.3066
   97MOL    C7130983   3.380   5.380   5.557  0.4065 -0.1032 -0.2068
   97MOL    H7230984   3.185   5.357   5.468  0.1804  0.2840 -1.0324
   97MOL    H7330985   3.293   5.182   5.357  1.3929  1.5960  2.4272
   97MOL    H7430986   3.201   5.276   5.236  0.5657  1.2575 -0.5357
   97MOL    H7530987   3.432   5.307   5.110  0.4558  0.0198  0.5533
   97MOL    H7630988   3.385   5.139   5.111  2.9883 -1.1059  0.9500
   97MOL    H7730989   3.587   5.117   5.160 -2.0025  2.2369 -3.2332
   97MOL    H7830990   3.509   5.091   5.318 -1.1062  0.0561 -0.9290
   97MOL    H7930991   3.594   5.249   5.277  0.9518 -0.1347 -0.3684
   97MOL    H8030992   3.431   5.291   5.521  1.3477  0.0088  0.8194
   97MOL    H8130993   3.457   5.455   5.539 -1.4495  2.3167  1.5247
   97MOL    C8230994   3.350   5.362   5.708  0.0881  0.3478  0.7802
   97MOL    O8330995   3.243   5.272   5.724 -0.1525 -0.4844 -0.0227
   97MOL    C8430996   3.136   5.303   5.805 -0.7562  0.4272 -0.6650
   97MOL    C8530997   3.032   5.187   5.788 -0.8082  0.2774 -0.0125
   97MOL    C8630998   2.916   5.226   5.874 -0.2525 -0.2975  0.6646
   97MOL    C8730999   3.476   5.309   5.784 -0.5322 -0.7322 -0.0122
   97MOL    H8831000   3.310   5.458   5.741 -0.5275 -0.6913  3.1710
   97MOL    H8931001   3.168   5.309   5.909 -1.5070 -0.9496 -0.3426
   97MOL    H9031002   3.091   5.396   5.773 -0.1503  1.4280  1.3173
   97MOL    H9131003   3.056   5.081   5.796 -0.5333  0.1653 -1.9469
   97MOL    H9231004   2.999   5.199   5.684  0.2993  0.5699 -0.3408
   97MOL    H9331005   2.923   5.320   5.929  1.1461  0.0355 -0.0597
   97MOL    H9431006   2.912   5.153   5.955 -1.4905  2.2865  3.0109
   97MOL    H9531007   2.816   5.223   5.832 -0.3751 -1.8760  1.0473
   97MOL    H9631008   3.447   5.260   5.877 -0.9554  0.3151  0.4119
   97MOL    H9731009   3.513   5.221   5.732  3.3606  0.8641 -0.0784
   97MOL    C9831010   3.589   5.416   5.806  0.0557  0.2218  0.6983
   97MOL    O9931011   3.530   5.499   5.900  0.4770 -0.1889  0.6606
   97MOL   C10031012   3.581   5.629   5.901  0.4010  0.1354  0.2505
   97MOL   C10131013   3.544   5.688   6.038  0.7792 -0.0421  0.2640
   97MOL   C10231014   3.621   5.653   6.164  0.1282 -0.1278  0.0471
   97MOL   C10331015   3.717   5.348   5.856 -0.1113  0.2801  0.2752
   97MOL   H10431016   3.595   5.471   5.711 -2.5007 -0.1345  0.2925
   97MOL   H10531017   3.690   5.630   5.897  0.4901 -1.4159  1.7334
   97MOL   H10631018   3.555   5.696   5.819  0.4819  0.2087  0.2840
   97MOL   H10731019   3.441   5.658   6.055  1.2084 -2.6294 -1.3630
   97MOL   H10831020   3.536   5.795   6.020 -0.9679 -0.0924  0.7012
   97MOL   H10931021   3.621   5.544   6.161 -0.7877 -0.1477  0.5431
   97MOL   H11031022   3.577   5.684   6.258 -0.0623  1.4256 -0.5426
   97MOL   H11131023   3.722   5.693   6.158  0.0294  0.1072 -0.0439
   97MOL   H11231024   3.780   5.425   5.900  0.1979 -0.8488  1.8608
   97MOL   H11331025   3.693   5.277   5.936  1.9464 -1.8588 -0.9423
   97MOL   C11431026   3.802   5.276   5.753 -0.1102 -0.2859  0.3655
   97MOL   O11531027   3.883   5.377   5.684  0.5686 -0.3568  0.4444
   97MOL   C11631028   3.929   5.349   5.555  0.7769  0.4459 -0.3985
   97MOL   C11731029   3.898   5.454   5.445  0.2586  0.2360 -0.0264
   97MOL   C11831030   4.013   5.557   5.435  0.6911 -0.3564 -0.4286
   97MOL   C11931031   3.901   5.169   5.810 -0.4326 -0.2946  0.8483
   97MOL   H12031032   3.740   5.222   5.682  1.9808 -1.7675 -0.4074
   97MOL   H12131033   4.034   5.320   5.564 -0.1359 -2.9763  0.0928
   97MOL   H12231034   3.874   5.260   5.523 -0.6535  1.2919 -0.3453
   97MOL   H12331035   3.802   5.504   5.455  0.6949  1.5244 -2.0247
   97MOL   H12431036   3.905   5.394   5.354 -1.5629 -1.5280  0.9492
   97MOL   H12531037   4.045   5.595   5.532  3.0138 -1.5706 -0.6735
   97MOL   H12631038   3.984   5.638   5.369  0.5054 -0.0739 -0.0054
   97MOL   H12731039   4.099   5.507   5.391  0.5501  0.4519 -1.6213
   97MOL   H12831040   3.994   5.164   5.753 -0.6529  3.3917 -0.0038
   97MOL   H12931041   3.926   5.214   5.906  1.3999 -1.5798  0.9951
   97MOL   C13031042   3.827   5.034   5.824  0.5874 -0.2184 -0.1789
   97MOL   O13131043   3.826   4.978   5.698 -0.3731  0.1287 -0.1564
   97MOL   C13231044   3.739   4.863   5.673 -0.7186 -0.5824 -0.3266
   97MOL   C13331045   3.698   4.857   5.520 -0.2016 -0.6487 -0.2979
   97MOL   C13431046   3.823   4.862   5.429  0.1297  0.4096  0.0283
   97MOL   C13531047   3.884   4.948   5.944 -0.0502 -0.5658  0.0478
   97MOL   H13631048   3.722   5.048   5.846  0.7429  1.0473 -0.2041
   97MOL   H13731049   3.790   4.768   5.687 -0.6878 -0.6265 -0.7212
   97MOL   H13831050   3.646   4.873   5.729  0.0353  1.0908  0.6653
   97MOL   H13931051   3.645   4.946   5.486  0.9122 -0.1179 -0.6829
   97MOL   H14031052   3.637   4.768   5.503 -2.2868  0.2732  2.1237
   97MOL   H14131053   3.801   4.841   5.324  1.2733  2.5860 -0.6727
   97MOL   H14231054   3.895   4.783   5.454  1.4691  1.3415 -0.7988
   97MOL   H14331055   3.874   4.957   5.441  0.5543  0.0128  1.4695
   97MOL   H14431056   3.864   4.842   5.929 -0.0688 -0.5808  0.1762
   97MOL   H14531057   3.993   4.951   5.950  0.0905 -2.5175 -1.1859
   97MOL   C14631058   3.821   4.990   6.079  0.5170  1.1134  0.4881
   97MOL   O14731059   3.705   4.908   6.089  1.1606  0.8854 -0.0970
   97MOL   C14831060   3.596   4.964   6.153 -0.2133 -0.6376  0.0169
   97MOL   C14931061   3.480   4.861   6.151  0.0548 -0.1378 -0.6277
   97MOL   C15031062   3.456   4.808   6.009  0.1628 -0.3132  0.0881
   97MOL   C15131063   3.920   4.988   6.195  0.6990 -0.0378 -0.2571
   97MOL   H15231064   3.789   5.092   6.060  0.5888  0.7537 -1.7298
   97MOL   H15331065   3.628   4.990   6.254 -1.6800  0.9528  0.0832
   97MOL   H15431066   3.566   5.046   6.088  0.5136  0.2089  0.7485
   97MOL   H15531067   3.389   4.910   6.186  0.1501 -0.4587  0.0744
   97MOL   H15631068   3.513   4.786   6.223 -1.1114  0.8312  0.9425
   97MOL   H15731069   3.353   4.772   6.000 -0.1025  0.5622 -0.4375
   97MOL   H15831070   3.538   4.741   5.985  0.5603  0.5410 -0.9501
   97MOL   H15931071   3.454   4.885   5.933  0.6087  0.8312  1.2281
   97MOL   H16031072   3.856   4.983   6.283 -1.9757 -0.8865 -2.2008
   97MOL   H16131073   3.966   4.889   6.202 -0.9536 -0.8174 -0.3404
   97MOL   C16231074   4.029   5.096   6.190  0.2300  0.0977  0.2363
   97MOL   O16331075   3.957   5.219   6.200  0.2024  0.3501 -0.5451
   97MOL   C16431076   4.020   5.331   6.146  0.1383  0.1855  0.6152
   97MOL   C16531077   3.912   5.441   6.166  0.4721  0.2549 -0.4209
   97MOL   C16631078   3.908   5.476   6.321 -0.1709  0.1704  0.4792
   97MOL   C16731079   4.133   5.092   6.300 -0.1955 -0.3396 -0.4996
   97MOL   H16831080   4.084   5.100   6.096  1.3120 -0.1006  0.8557
   97MOL   H16931081   4.120   5.352   6.184  0.2494 -1.6480  1.3987
   97MOL   H17031082   4.038   5.322   6.039  0.7456 -0.1021  0.7430
   97MOL   H17131083   3.813   5.407   6.135  0.5287 -3.4812  3.0379
   97MOL   H17231084   3.944   5.524   6.103 -1.6391  0.7969 -0.8289
   97MOL   H17331085   3.833   5.554   6.335 -1.5250 -1.2847  1.4661
   97MOL   H17431086   4.001   5.517   6.360  0.6141 -2.4380  1.4180
   97MOL   H17531087   3.875   5.399   6.391 -1.4219  0.8349  0.6411
   97MOL   H17631088   4.196   5.180   6.292  1.8607 -1.7697 -0.5394
   97MOL   H17731089   4.070   5.107   6.388 -0.1779 -0.8407 -0.4012
   97MOL   C17831090   4.208   4.961   6.315 -0.4346  0.1799 -0.2634
   97MOL   O17931091   4.264   4.939   6.196 -0.0967  0.5420 -0.2429
   97MOL   C18031092   4.281   4.799   6.174 -0.1180 -0.0041  0.1849
   97MOL   C18131093   4.361   4.764   6.052  0.1210  0.1960 -0.9877
   97MOL   C18231094   4.510   4.785   6.057  0.0665 -0.1257 -0.2364
   97MOL   C18331095   4.322   4.968   6.426  0.0750  0.3444  0.1480
   97MOL   H18431096   4.129   4.889   6.340  0.2347 -0.3116  0.4359
   97MOL   H18531097   4.323   4.750   6.261  0.0158  2.0837  1.3236
   97MOL   H18631098   4.186   4.745   6.174 -0.1196  0.0020  1.0135
   97MOL   H18731099   4.325   4.828   5.971 -2.2002  0.4813  0.2280
   97MOL   H18831100   4.341   4.664   6.015  1.2369 -1.3751  2.5379
   97MOL   H18931101   4.539   4.889   6.070  0.1473 -0.1865  0.0664
   97MOL   H19031102   4.560   4.755   5.965  1.6555 -0.4893  0.7051
   97MOL   H19131103   4.557   4.713   6.124  2.1468  0.9040 -0.5420
   97MOL   H19231104   4.418   4.939   6.385 -1.0516  0.9962 -3.1285
   97MOL   H19331105   4.338   5.076   6.433 -2.1280  0.7512 -0.4520
   97MOL   C19431106   4.294   4.899   6.563  0.2984 -0.3770  0.1447
   97MOL   O19531107   4.288   4.762   6.543  0.3500  0.1240 -0.5555
   97MOL   C19631108   4.189   4.697   6.611  0.3763  0.0227 -0.4251
   97MOL   C19731109   4.251   4.559   6.638  0.0240  0.7623 -0.2725
   97MOL   C19831110   4.262   4.471   6.518  0.2713 -0.0163 -0.8375
   97MOL   C19931111   4.399   4.926   6.676  0.1853 -0.4196 -0.3201
   97MOL   H20031112   4.196   4.940   6.585  0.1388 -0.0785 -1.1226
   97MOL   H20131113   4.178   4.745   6.708  1.2520 -1.5124  0.4691
   97MOL   H20231114   4.090   4.705   6.567 -1.0269  0.5979  2.7312
   97MOL   H20331115   4.189   4.521   6.719 -0.6484  0.3564 -0.9671
   97MOL   H20431116   4.350   4.584   6.676  1.3217 -1.4805 -1.9803
   97MOL   H20531117   4.168   4.443   6.471  1.4510 -2.8655 -1.6528
   97MOL   H20631118   4.309   4.378   6.550  1.4498  1.1708  0.9810
   97MOL   H20731119   4.316   4.525   6.440  0.8058 -0.2386 -0.6295
   97MOL   H20831120   4.397   4.836   6.738 -1.6384 -0.0262  0.2074
   97MOL   H20931121   4.501   4.928   6.638  0.4769 -1.5270  0.3703
   97MOL   C21031122   4.361   5.051   6.760  0.2921 -0.1068 -0.0977
   97MOL   O21131123   4.266   5.005   6.856 -0.8071  0.4678  0.0017
   97MOL   C21231124   4.186   5.101   6.921  0.4312  0.3565 -0.2731
   97MOL   C21331125   4.082   5.016   7.004 -0.4051 -0.2107 -0.0184
   97MOL   C21431126   4.141   4.930   7.122 -0.1088 -0.7034 -0.1248
   97MOL   C21531127   4.474   5.112   6.846  0.0109 -0.0693  0.2519
   97MOL   H21631128   4.329   5.131   6.693 -0.1219  1.8734  2.4128
   97MOL   H21731129   4.249   5.168   6.979 -0.0503  0.9064 -0.3801
   97MOL   H21831130   4.156   5.171   6.843  0.0789 -0.6981 -1.0969
   97MOL   H21931131   4.032   4.950   6.933  0.5656  0.2970 -1.1944
   97MOL   H22031132   4.009   5.089   7.037 -0.3244  0.5468 -1.4929
   97MOL   H22131133   4.179   4.989   7.206 -0.0987 -0.1535 -0.5077
   97MOL   H22231134   4.219   4.861   7.092 -0.5063 -0.7742 -1.0136
   97MOL   H22331135   4.064   4.860   7.155  0.2233 -2.1310 -2.3173
   97MOL   H22431136   4.428   5.203   6.883  2.4965  1.7728 -1.0375
   97MOL   H22531137   4.486   5.040   6.928  0.7946 -0.4031 -0.1431
   97MOL   C22631138   4.599   5.162   6.761  0.3067  0.8821  0.3323
   97MOL   O22731139   4.539   5.232   6.649  0.1217 -0.2334  0.2442
   97MOL   C22831140   4.627   5.261   6.537 -0.0832 -0.3743 -0.0399
   97MOL   C22931141   4.550   5.321   6.420 -0.9184 -0.1951  0.6142
   97MOL   C23031142   4.639   5.387   6.323  0.5465  0.1669 -0.3975
   97MOL   C23131143   4.697   5.241   6.849  0.0598 -0.1664  0.0646
   97MOL   H23231144   4.652   5.079   6.714 -0.4402  1.0527 -0.8367
   97MOL   H23331145   4.703   5.333   6.567  1.0615 -1.3031 -0.6600
   97MOL   H23431146   4.689   5.177   6.507  0.9945 -0.1756  1.5411
   97MOL   H23531147   4.470   5.387   6.454 -0.2308  1.6021 -1.1381
   97MOL   H23631148   4.500   5.235   6.375 -0.1994  0.2740 -1.1064
   97MOL   H23731149   4.720   5.319   6.297 -1.0079 -1.7164 -0.3647
   97MOL   H23831150   4.684   5.481   6.356 -0.7566  0.0697  1.7402
   97MOL   H23931151   4.596   5.421   6.229  2.0884  1.8727 -0.5250
   97MOL   H24031152   4.759   5.312   6.793  0.6986  1.1693  2.4055
   97MOL   H24131153   4.637   5.297   6.920  0.0699  0.2691 -0.2669
   97MOL   C24231154   4.789   5.151   6.931 -0.3905  0.3343 -0.0317
   97MOL   O24331155   4.859   5.079   6.832 -0.0411  0.5841  0.0602
   97MOL   C24431156   4.935   4.966   6.885  0.8446  0.2488  0.1720
   97MOL   C24531157   4.884   4.836   6.820 -0.2035 -0.3046 -0.5050
   97MOL   C24631158   4.752   4.787   6.875 -0.4198  0.4052  0.1177
   97MOL   C24731159   4.882   5.215   7.025  0.5192  0.0768 -0.2022
   97MOL   H24831160   4.730   5.076   6.982  1.7481 -0.6754  1.0149
   97MOL   H24931161   5.040   4.984   6.864  1.5427 -1.3766  2.0912
   97MOL   H25031162   4.922   4.956   6.993  0.3612  1.3538  0.2285
   97MOL   H25131163   4.961   4.760   6.831  0.8855  0.9676  0.8450
   97MOL   H25231164   4.885   4.842   6.712  1.2630 -1.2489 -0.5595
   97MOL   H25331165   4.730   4.694   6.823 -1.2568  0.1126  0.9921
   97MOL   H25431166   4.673   4.854   6.839 -1.9494 -1.3914  0.0239
   97MOL   H25531167   4.742   4.783   6.983 -0.8016 -2.1525  0.0216
   97MOL   H25631168   4.950   5.150   7.081 -0.2199 -1.1437 -0.7227
   97MOL   H25731169   4.954   5.277   6.972 -1.5651  1.2221 -1.7495
   97MOL   C25831170   4.808   5.305   7.125 -0.4258 -0.5819  0.0246
   97MOL   O25931171   4.697   5.235   7.182  0.3829 -0.0060  0.1052
   97MOL   C26031172   4.591   5.318   7.228  0.2945 -0.3744  0.5121
   97MOL   C26131173   4.460   5.244   7.221 -0.2692  0.3416  0.2549
   97MOL   C26231174   4.345   5.331   7.247 -0.5192  0.2611  0.3967
   97MOL   C26331175   4.907   5.357   7.236  0.3242  0.3421 -0.2769
   97MOL   H26431176   4.767   5.395   7.079  0.9956  0.3612  0.5588
   97MOL   H26531177   4.611   5.327   7.335  0.5020  1.2788  0.3414
   97MOL   H26631178   4.592   5.417   7.183  0.6532 -0.4130  0.4345
   97MOL   H26731179   4.468   5.162   7.292 -1.2259 -2.0123 -2.2738
   97MOL   H26831180   4.449   5.187   7.128  0.4932 -0.5246  0.6885
   97MOL   H26931181   4.343   5.388   7.155  0.3665  0.2925  0.3948
   97MOL   H27031182   4.360   5.405   7.326 -1.4133  2.2990 -1.3127
   97MOL   H27131183   4.257   5.270   7.272 -0.8009  1.1439  1.5909
   97MOL   H27231184   4.842   5.397   7.315  0.2193  0.4645 -0.4253
   97MOL   H27331185   4.957   5.267   7.273 -2.2008 -1.0128 -0.0050
   97MOL   C27431186   5.001   5.478   7.199 -0.3664  0.0421 -0.0040
   97MOL   O27531187   4.912   5.595   7.209 -0.1385  0.0852 -0.2088
   97MOL   C27631188   4.975   5.711   7.174 -1.0213 -0.4607  0.5152
   97MOL   C27731189   4.869   5.807   7.117 -0.2041 -0.0537  0.4682
   97MOL   C27831190   4.924   5.931   7.061 -0.3234  0.1211  0.3732
   97MOL   C27931191   5.109   5.484   7.300  0.4079 -0.3605 -0.5588
   97MOL   H28031192   5.040   5.465   7.098  1.7018  2.2796  0.4551
   97MOL   H28131193   5.019   5.748   7.267  0.6315  2.9216 -1.5262
   97MOL   H28231194   5.049   5.689   7.098  0.3274 -1.0076  1.9683
   97MOL   H28331195   4.810   5.844   7.201  0.8127  0.7987  0.8127
   97MOL   H28431196   4.793   5.769   7.049 -0.3271  0.4980  0.2965
   97MOL   H28531197   5.003   5.965   7.128  0.6276 -0.8040 -0.2664
   97MOL   H28631198   4.853   6.014   7.053 -2.3050 -1.7053 -1.6536
   97MOL   H28731199   4.975   5.911   6.967 -3.4926 -1.3687 -1.1237
   97MOL   H28831200   5.169   5.573   7.279  0.4432 -0.0138  0.9311
   97MOL   H28931201   5.073   5.501   7.402 -0.0156 -2.9226 -0.2467
   97MOL   C29031202   5.220   5.380   7.306  0.1046 -0.0210 -0.5763
   97MOL   O29131203   5.266   5.357   7.179  0.0463 -0.2008 -0.3325
   97MOL   C29231204   5.333   5.238   7.159  0.5340 -0.6689  0.0795
   97MOL   C29331205   5.362   5.231   7.005 -0.7512  0.7312  0.0057
   97MOL   C29431206   5.238   5.219   6.918 -0.2279  0.9067  0.2955
   97MOL   C29531207   5.335   5.423   7.401  0.2949 -0.1700 -0.0635
   97MOL   H29631208   5.176   5.290   7.348  1.3956  0.9895  3.1305
   97MOL   H29731209   5.431   5.244   7.206  0.9211  0.4092 -0.8495
   97MOL   H29831210   5.282   5.147   7.193 -1.5074 -0.0973 -1.3392
   97MOL   H29931211   5.435   5.153   6.983 -0.6265  0.5428  1.0879
   97MOL   H30031212   5.410   5.324   6.971 -1.2036  1.5271  1.5236
   97MOL   H30131213   5.176   5.135   6.946  1.1091  0.7412  2.8943
   97MOL   H30231214   5.281   5.214   6.818 -1.1727  0.2532 -0.0799
   97MOL   H30331215   5.184   5.314   6.925  0.9787  1.5874  0.6571
   97MOL   H30431216   5.427   5.380   7.362  0.5534 -0.1791  0.5496
   97MOL   H30531217   5.358   5.530   7.397  0.4026  0.0318  3.7697
   97MOL   C30631218   5.310   5.392   7.552 -0.0589 -0.0174  0.2219
   97MOL   O30731219   5.346   5.250   7.571  0.2822 -0.1530  0.3160
   97MOL   C30831220   5.283   5.191   7.680  0.5666  0.0656  0.3066
   97MOL   C30931221   5.305   5.040   7.668 -0.5022 -0.3962 -0.2905
   97MOL   C31031222   5.263   4.976   7.534  0.3340  0.0666  0.3250
   97MOL   C31131223   5.401   5.480   7.633  0.0281  0.4609  0.2182
   97MOL   H31231224   5.205   5.421   7.557  0.3527  1.4984  0.4717
   97MOL   H31331225   5.332   5.230   7.770 -0.8044  1.6634  0.3889
   97MOL   H31431226   5.178   5.220   7.686 -0.2632 -2.6962 -0.3381
   97MOL   H31531227   5.258   4.987   7.750  2.2473  0.7550  2.1163
   97MOL   H31631228   5.413   5.026   7.680 -0.5184  0.0026  0.3393
   97MOL   H31731229   5.338   5.002   7.458  0.7920 -0.5301  0.5698
   97MOL   H31831230   5.162   5.005   7.506  0.6013  0.7383  0.0308
   97MOL   H31931231   5.274   4.870   7.554 -1.8186  0.0779  1.7351
   97MOL   H32031232   5.377   5.582   7.602  0.5146  1.3541  2.6725
   97MOL   H32131233   5.368   5.488   7.737 -1.5559  2.6801 -0.4042
   97MOL   H32231234   5.507   5.457   7.626 -0.0173  0.6891 -1.2759
   98MOL     C131235   6.777   2.876   4.150  0.5150 -0.5200 -0.4576
   98MOL     O231236   6.822   2.815   4.033 -0.7237  0.5073  0.5726
   98MOL     C331237   6.961   2.830   4.026 -0.2688 -0.0024 -0.0395
   98MOL     C431238   6.998   2.830   3.876 -0.4295  0.2491  0.6015
   98MOL     C531239   7.112   2.920   3.823  0.9429 -0.3948  0.2363
   98MOL     C631240   6.747   3.024   4.122  0.1450 -0.0954  0.3104
   98MOL     H731241   6.848   2.868   4.233  3.7670 -0.6558 -3.1399
   98MOL     H831242   7.002   2.926   4.060  0.6227  0.0962 -1.3484
   98MOL     H931243   7.000   2.740   4.073  2.6829  0.0974 -2.1792
   98MOL    H1031244   6.907   2.856   3.822 -1.3024 -2.2424  0.8021
   98MOL    H1131245   6.991   2.727   3.839 -3.3170  0.7583 -0.3938
   98MOL    H1231246   7.089   3.026   3.814 -0.0891 -0.6256  0.1520
   98MOL    H1331247   7.145   2.879   3.728  1.2661 -1.5835  0.8584
   98MOL    H1431248   7.199   2.911   3.888 -0.0190  1.2411  1.8179
   98MOL    H1531249   6.689   3.072   4.202  0.0612  0.1600  0.0941
   98MOL    H1631250   6.845   3.070   4.135  0.6116 -0.9338 -0.2280
   98MOL    H1731251   6.678   2.833   4.169  0.0414  0.7310 -0.0177
   98MOL    C1831252   6.691   3.056   3.980  0.0631 -0.7519 -0.0099
   98MOL    O1931253   6.554   3.021   3.981 -0.1615  0.0489 -0.1149
   98MOL    C2031254   6.519   2.919   3.885  0.1339 -0.9366 -0.0128
   98MOL    C2131255   6.366   2.892   3.893  0.4552 -0.5734  0.0364
   98MOL    C2231256   6.336   2.771   3.796 -0.4292  0.2722  0.3746
   98MOL    C2331257   6.704   3.206   3.945  0.3925 -0.1309  0.4710
   98MOL    H2431258   6.744   2.995   3.908 -1.2163 -0.6031 -1.1066
   98MOL    H2531259   6.537   2.950   3.783 -0.2337 -1.1668 -0.1510
   98MOL    H2631260   6.570   2.825   3.906  1.5024  0.0562  1.1912
   98MOL    H2731261   6.302   2.972   3.855 -1.1463 -1.2809  1.1746
   98MOL    H2831262   6.325   2.878   3.994  3.9254 -1.0950  1.4349
   98MOL    H2931263   6.389   2.680   3.826  0.7895  1.1864  1.0534
   98MOL    H3031264   6.367   2.789   3.693 -1.9132 -4.2369 -0.9810
   98MOL    H3131265   6.228   2.760   3.798 -0.6185  1.2521 -2.3506
   98MOL    H3231266   6.662   3.260   4.030 -1.5232 -1.6677  0.5474
   98MOL    H3331267   6.804   3.249   3.944  0.4193 -0.2112 -0.0120
   98MOL    C3431268   6.615   3.267   3.827  0.4374  0.3519 -0.4479
   98MOL    O3531269   6.617   3.410   3.838 -0.4462  0.2444 -0.1221
   98MOL    C3631270   6.525   3.456   3.934  0.3386 -1.1278  0.4985
   98MOL    C3731271   6.553   3.611   3.956  0.9625 -0.2471  0.0503
   98MOL    C3831272   6.487   3.663   4.081  0.1349  0.6677  0.6900
   98MOL    C3931273   6.654   3.229   3.681  0.3041 -0.6415 -0.0621
   98MOL    H4031274   6.514   3.228   3.845  0.1129  1.0120 -0.8408
   98MOL    H4131275   6.422   3.452   3.899  0.1221 -1.0198  1.1155
   98MOL    H4231276   6.513   3.401   4.027 -5.0804 -0.4439  0.3809
   98MOL    H4331277   6.503   3.654   3.869 -1.6621  0.5095  1.8539
   98MOL    H4431278   6.661   3.616   3.959  1.0432 -1.7051  0.2211
   98MOL    H4531279   6.472   3.589   4.160 -1.9581 -1.1575 -1.3290
   98MOL    H4631280   6.389   3.707   4.060  0.0440  0.4604  0.6831
   98MOL    H4731281   6.548   3.740   4.127  0.2554  0.2870  1.1700
   98MOL    H4831282   6.744   3.284   3.653 -0.8512  2.1897  1.5390
   98MOL    H4931283   6.679   3.124   3.674 -2.6541 -1.2142 -3.6681
   98MOL    C5031284   6.544   3.268   3.583  0.3144 -0.0741  0.2361
   98MOL    O5131285   6.589   3.236   3.453  0.0586 -0.4239  0.2568
   98MOL    C5231286   6.591   3.349   3.370 -1.2676  0.2096 -0.2077
   98MOL    C5331287   6.615   3.298   3.228 -0.2681 -0.0497  0.8658
   98MOL    C5431288   6.752   3.233   3.199 -0.3391  0.1756  0.3009
   98MOL    C5531289   6.419   3.177   3.595  0.9465 -0.1092 -0.7949
   98MOL    H5631290   6.526   3.374   3.601  1.4225  0.4219 -1.4832
   98MOL    H5731291   6.497   3.404   3.377 -1.9455 -1.0541  0.7286
   98MOL    H5831292   6.663   3.427   3.396 -1.5877  0.9208 -1.3809
   98MOL    H5931293   6.604   3.377   3.154  0.5784 -2.0944 -1.5280
   98MOL    H6031294   6.530   3.234   3.206 -1.3373  1.7654 -0.4276
   98MOL    H6131295   6.764   3.142   3.258 -0.3945 -0.0573 -0.0418
   98MOL    H6231296   6.836   3.298   3.222 -0.3505  0.8232 -1.4358
   98MOL    H6331297   6.756   3.200   3.095 -0.3040  0.0690  0.3356
   98MOL    H6431298   6.458   3.076   3.580 -0.2793 -0.6119 -0.6079
   98MOL    H6531299   6.389   3.171   3.699 -0.9320  2.3061 -1.1451
   98MOL    C6631300   6.287   3.210   3.512  0.5264  0.0018  0.0219
   98MOL    O6731301   6.191   3.110   3.536  0.4055  0.4387 -0.1243
   98MOL    C6831302   6.109   3.080   3.422 -0.3966 -0.2089  0.0853
   98MOL    C6931303   6.173   2.989   3.327  0.0676  0.3448  0.1248
   98MOL    C7031304   6.141   2.841   3.357  0.1299  0.5349  0.6973
   98MOL    C7131305   6.233   3.355   3.538  0.1763  0.9484  0.7259
   98MOL    H7231306   6.315   3.205   3.407 -0.5855  0.1717 -0.2855
   98MOL    H7331307   6.016   3.038   3.460  0.5743 -0.4935  2.2582
   98MOL    H7431308   6.074   3.171   3.373  1.3183  0.5226  0.1814
   98MOL    H7531309   6.281   3.000   3.313  0.2026 -1.5693 -0.4325
   98MOL    H7631310   6.126   3.010   3.231  1.3205 -1.5769 -0.9313
   98MOL    H7731311   6.035   2.820   3.373  0.3544 -0.3943  0.9892
   98MOL    H7831312   6.198   2.804   3.443 -0.6963  1.0330  1.4720
   98MOL    H7931313   6.176   2.788   3.269  1.2863 -0.7176  1.8726
   98MOL    H8031314   6.310   3.419   3.494  1.8920 -1.8407 -0.5171
   98MOL    H8131315   6.153   3.363   3.464 -0.3852  1.8687  1.4204
   98MOL    C8231316   6.187   3.400   3.676  0.0293 -0.1711  0.2226
   98MOL    O8331317   6.166   3.543   3.683  0.2275 -0.0833  0.1384
   98MOL    C8431318   6.081   3.606   3.584  0.1707  0.1614 -0.0467
   98MOL    C8531319   5.993   3.719   3.645 -0.1780  0.3535  0.4090
   98MOL    C8631320   5.985   3.834   3.544  0.4427 -0.2316 -0.6026
   98MOL    C8731321   6.065   3.318   3.721 -0.2778 -0.3410  0.2774
   98MOL    H8831322   6.272   3.383   3.743  0.1898  2.2923  0.7067
   98MOL    H8931323   6.145   3.648   3.506  0.3693  0.9996  0.5545
   98MOL    H9031324   6.017   3.535   3.531  1.1296 -0.5453 -0.2765
   98MOL    H9131325   6.034   3.752   3.740 -1.4895  0.3922  0.9675
   98MOL    H9231326   5.889   3.692   3.658 -0.4318  0.6255 -0.9489
   98MOL    H9331327   5.894   3.893   3.553  0.3345 -0.7882  2.9961
   98MOL    H9431328   5.989   3.802   3.440 -1.4961 -0.5219 -0.6134
   98MOL    H9531329   6.067   3.899   3.575  1.5435 -1.6805 -0.3710
   98MOL    H9631330   5.983   3.348   3.656 -0.0557  1.4032  0.7630
   98MOL    H9731331   6.075   3.210   3.719  1.5794 -0.2081  1.2324
   98MOL    C9831332   6.015   3.354   3.858  0.5104 -0.2430  0.2402
   98MOL    O9931333   5.879   3.322   3.869  0.4844  0.1056 -0.2878
   98MOL   C10031334   5.790   3.432   3.857 -0.1146 -0.0705  0.9591
   98MOL   C10131335   5.639   3.385   3.859 -0.4410 -0.1615  0.3779
   98MOL   C10231336   5.604   3.313   3.989 -0.5261 -0.2402  0.3303
   98MOL   C10331337   6.100   3.301   3.979  0.3652  0.7219 -0.5717
   98MOL   H10431338   6.018   3.463   3.866  1.6254  0.0116 -2.8187
   98MOL   H10531339   5.814   3.496   3.942  2.3034  0.0904  0.1865
   98MOL   H10631340   5.806   3.482   3.762  2.3681 -1.5014  0.5639
   98MOL   H10731341   5.635   3.321   3.771  0.4951  1.7060 -1.0779
   98MOL   H10831342   5.567   3.461   3.830 -2.0277 -2.1926 -1.1732
   98MOL   H10931343   5.506   3.267   3.977 -1.5949  1.8969  0.6439
   98MOL   H11031344   5.597   3.383   4.073  1.1652  0.6852 -0.2770
   98MOL   H11131345   5.675   3.233   4.011  0.8171  0.2917 -1.9346
   98MOL   H11231346   6.089   3.192   3.986 -0.5813  0.8677  0.2943
   98MOL   H11331347   6.207   3.312   3.959  0.8886 -2.0982  0.4156
   98MOL   C11431348   6.066   3.365   4.119  0.3236  0.0331  0.1115
   98MOL   O11531349   6.037   3.259   4.209  0.6373  0.0771  0.7806
   98MOL   C11631350   5.910   3.202   4.192 -0.0994 -0.0914 -0.2891
   98MOL   C11731351   5.895   3.087   4.286 -0.2612 -0.5081  0.2429
   98MOL   C11831352   5.884   3.126   4.432  0.2245  0.3238 -0.8492
   98MOL   C11931353   6.184   3.442   4.184 -0.2575 -0.2616  0.3095
   98MOL   H12031354   5.975   3.424   4.127  0.2101 -0.3316  1.8273
   98MOL   H12131355   5.840   3.279   4.223  1.0803  1.6826 -1.9268
   98MOL   H12231356   5.880   3.174   4.091 -1.1842  0.4360 -0.1194
   98MOL   H12331357   5.969   3.008   4.273 -0.9286 -1.1419  0.3262
   98MOL   H12431358   5.801   3.038   4.262 -0.9704 -1.0746  3.8419
   98MOL   H12531359   5.979   3.169   4.464 -0.3555  0.3069  0.9387
   98MOL   H12631360   5.863   3.047   4.504 -1.9507  1.2218 -0.4716
   98MOL   H12731361   5.805   3.197   4.455  1.7002  1.2714  1.5291
   98MOL   H12831362   6.266   3.370   4.195 -0.4825 -0.4578  0.7089
   98MOL   H12931363   6.229   3.504   4.107  0.3060  0.2629  1.0552
   98MOL   C13031364   6.158   3.524   4.310  0.2972  1.0012 -0.6103
   98MOL   O13131365   6.270   3.529   4.400 -0.1961 -0.3352 -0.0602
   98MOL   C13231366   6.285   3.415   4.490  0.5277 -0.7851  0.5483
   98MOL   C13331367   6.389   3.434   4.598  0.2885  0.0647  0.4285
   98MOL   C13431368   6.377   3.327   4.706 -0.2879  0.1134 -0.2007
   98MOL   C13531369   6.123   3.667   4.275 -0.0200 -0.1572 -0.2628
   98MOL   H13631370   6.075   3.470   4.356  1.0535  1.5686  1.5141
   98MOL   H13731371   6.188   3.399   4.536  0.3348  1.4242  0.9723
   98MOL   H13831372   6.291   3.338   4.413  0.2331  1.1406 -1.4416
   98MOL   H13931373   6.376   3.533   4.641  0.7651  0.2458  0.1596
   98MOL   H14031374   6.491   3.440   4.559  0.8360  1.7226  1.9985
   98MOL   H14131375   6.395   3.225   4.672  1.7759 -0.1659  1.6140
   98MOL   H14231376   6.277   3.337   4.747 -0.1067 -0.1967  0.3279
   98MOL   H14331377   6.436   3.355   4.794 -0.0847 -0.9320  0.0111
   98MOL   H14431378   6.144   3.730   4.362 -0.5861 -1.2140  0.6548
   98MOL   H14531379   6.179   3.696   4.187  2.4744  0.9036  1.6277
   98MOL   C14631380   5.971   3.686   4.245 -0.0092  0.0345 -0.0405
   98MOL   O14731381   5.907   3.634   4.359 -0.0332 -0.0960 -0.2642
   98MOL   C14831382   5.764   3.616   4.354 -0.4663 -0.1213  0.8149
   98MOL   C14931383   5.716   3.503   4.444 -0.4173 -0.6103 -0.3532
   98MOL   C15031384   5.576   3.447   4.392 -0.0658  0.8877  0.0857
   98MOL   C15131385   5.931   3.831   4.231  0.2030 -0.4598  0.4885
   98MOL   H15231386   5.937   3.637   4.154 -3.4596  0.8275  0.7738
   98MOL   H15331387   5.715   3.708   4.385 -0.1522  0.5053 -0.5133
   98MOL   H15431388   5.737   3.585   4.253 -0.2575 -0.5027  0.8743
   98MOL   H15531389   5.699   3.552   4.540 -2.7961  0.2435 -1.1834
   98MOL   H15631390   5.781   3.416   4.455 -0.5625 -0.6846 -0.0927
   98MOL   H15731391   5.507   3.401   4.463 -0.4924  0.6060 -0.5069
   98MOL   H15831392   5.592   3.360   4.328 -1.9214  0.3705  0.3045
   98MOL   H15931393   5.519   3.525   4.343  2.6354  3.0487  0.1987
   98MOL   H16031394   5.839   3.853   4.286  0.5495  1.1280  0.4612
   98MOL   H16131395   6.006   3.894   4.279  0.9781 -0.0567 -1.2464
   98MOL   C16231396   5.936   3.886   4.082  0.1700 -0.6106 -0.4951
   98MOL   O16331397   5.811   3.853   4.020 -0.3623 -0.6552  0.5098
   98MOL   C16431398   5.695   3.933   4.040  0.0364 -0.1396  0.4234
   98MOL   C16531399   5.568   3.855   3.997  0.3097 -0.1958 -0.8346
   98MOL   C16631400   5.550   3.740   4.102 -0.3566 -0.0631  0.2981
   98MOL   C16731401   5.963   4.037   4.055 -0.6574  0.8421 -0.4015
   98MOL   H16831402   6.003   3.826   4.019 -0.2592  1.6984 -3.2622
   98MOL   H16931403   5.689   3.959   4.146  0.6536  0.1043  0.3962
   98MOL   H17031404   5.708   4.019   3.975 -0.9598 -0.0818  0.2822
   98MOL   H17131405   5.581   3.814   3.896 -2.5046  0.4845 -1.5097
   98MOL   H17231406   5.474   3.910   3.997 -0.2142 -1.0776 -0.5184
   98MOL   H17331407   5.626   3.664   4.084  0.8346  0.7960  1.5973
   98MOL   H17431408   5.451   3.694   4.099  0.1773 -1.1511 -2.5240
   98MOL   H17531409   5.565   3.763   4.207  0.9112 -0.9911  0.3224
   98MOL   H17631410   5.927   4.065   3.956 -1.4947  1.1494 -0.0109
   98MOL   H17731411   5.904   4.086   4.132  0.9158  1.9323  0.1293
   98MOL   C17831412   6.105   4.084   4.073  0.0795 -0.6531  0.6057
   98MOL   O17931413   6.166   4.026   3.957 -0.2322  0.0920 -0.3431
   98MOL   C18031414   6.294   3.967   3.977 -0.8767 -0.4630  0.3561
   98MOL   C18131415   6.337   3.909   3.843 -0.8389 -0.5245  0.3972
   98MOL   C18231416   6.341   4.017   3.731 -0.4607  0.5803 -0.3177
   98MOL   C18331417   6.125   4.232   4.080 -0.1362  0.3496 -1.0264
   98MOL   H18431418   6.155   4.033   4.155  2.3325  0.5290  0.0352
   98MOL   H18531419   6.367   4.035   4.021 -1.3355  0.5091 -0.3674
   98MOL   H18631420   6.269   3.897   4.057  0.3013 -1.0007  0.2609
   98MOL   H18731421   6.266   3.830   3.820  0.0650 -1.5424  1.0487
   98MOL   H18831422   6.436   3.864   3.856  0.5399  2.2831  0.0546
   98MOL   H18931423   6.251   4.078   3.737 -0.6387  0.2740  0.1836
   98MOL   H19031424   6.352   3.970   3.633 -0.2038  1.2099 -0.5897
   98MOL   H19131425   6.428   4.080   3.750 -0.7027  0.4011  1.4485
   98MOL   H19231426   6.159   4.275   3.986  2.1279  0.7327 -0.0620
   98MOL   H19331427   6.025   4.273   4.097 -1.1008 -1.3719 -2.3998
   98MOL   C19431428   6.214   4.279   4.203  0.6154 -0.4883  0.1716
   98MOL   O19531429   6.345   4.269   4.160 -1.2862 -0.1191 -0.1875
   98MOL   C19631430   6.430   4.237   4.273 -0.2992 -0.8403 -0.7427
   98MOL   C19731431   6.572   4.225   4.219  0.2428  0.1410  0.2017
   98MOL   C19831432   6.624   4.365   4.172 -0.5466  0.1993 -0.4969
   98MOL   C19931433   6.185   4.433   4.230 -0.3485  0.1959 -0.1580
   98MOL   H20031434   6.192   4.224   4.295 -0.1824  1.4169  1.1451
   98MOL   H20131435   6.430   4.309   4.355 -0.7183 -1.4763 -0.1806
   98MOL   H20231436   6.379   4.151   4.314 -1.3312 -1.2216 -2.7468
   98MOL   H20331437   6.565   4.158   4.134 -1.1972 -0.5532  0.8419
   98MOL   H20431438   6.643   4.192   4.295  1.2391  3.8933  1.0308
   98MOL   H20531439   6.721   4.356   4.123 -1.1815  2.1516 -2.2006
   98MOL   H20631440   6.636   4.437   4.253 -0.7490 -0.0093 -0.2824
   98MOL   H20731441   6.554   4.413   4.103 -0.7708 -2.1971 -1.9926
   98MOL   H20831442   6.254   4.465   4.308 -1.1013  1.9451 -0.1891
   98MOL   H20931443   6.214   4.492   4.144  1.1400  0.7270  0.6741
   98MOL   C21031444   6.050   4.475   4.292 -0.3185 -0.3987  0.1668
   98MOL   O21131445   6.012   4.393   4.402 -0.3806  0.4129  0.2252
   98MOL   C21231446   5.886   4.342   4.376 -0.1907  0.5407  0.4902
   98MOL   C21331447   5.842   4.250   4.489  0.5063 -0.9502 -0.2774
   98MOL   C21431448   5.935   4.131   4.476 -0.1591 -0.3651  0.2025
   98MOL   C21531449   6.047   4.615   4.341  0.4607 -0.9071 -0.1310
   98MOL   H21631450   5.977   4.474   4.212  0.5136  0.5942 -0.6284
   98MOL   H21731451   5.813   4.422   4.366 -2.2456 -1.4529 -1.0069
   98MOL   H21831452   5.886   4.280   4.286  2.5725 -0.0282  0.8587
   98MOL   H21931453   5.742   4.214   4.467 -0.3078  0.2455  1.4106
   98MOL   H22031454   5.842   4.294   4.589 -1.0280 -2.4368  0.3970
   98MOL   H22131455   5.964   4.099   4.376  1.0426  1.2300  0.0264
   98MOL   H22231456   5.893   4.047   4.531 -2.4581  1.4378  1.2782
   98MOL   H22331457   6.024   4.158   4.532 -0.0499 -1.6742  0.6777
   98MOL   H22431458   5.946   4.641   4.374  0.5830 -1.6213  0.8560
   98MOL   H22531459   6.111   4.625   4.429 -0.3739 -4.2343  0.9512
   98MOL   C22631460   6.088   4.716   4.235 -0.1720  0.1728  0.0437
   98MOL   O22731461   6.015   4.685   4.113 -0.1585  0.0233 -0.3420
   98MOL   C22831462   6.029   4.787   4.006 -0.7648  0.4212 -0.1256
   98MOL   C22931463   5.971   4.733   3.878  0.0718  0.5084 -0.0989
   98MOL   C23031464   6.029   4.596   3.846  0.2860  0.5464 -0.2137
   98MOL   C23131465   6.062   4.859   4.294  0.1892  0.0974  0.0011
   98MOL   H23231466   6.193   4.697   4.211 -0.1659  1.2933 -0.8535
   98MOL   H23331467   5.975   4.876   4.038  0.1030  0.3338  1.6149
   98MOL   H23431468   6.135   4.806   3.988 -0.0750 -2.5827  0.5472
   98MOL   H23531469   5.993   4.794   3.790  1.5181 -1.7889 -1.3516
   98MOL   H23631470   5.863   4.726   3.889  0.3121 -1.6025  1.1514
   98MOL   H23731471   6.018   4.523   3.927 -2.1656  1.1832  0.0567
   98MOL   H23831472   6.137   4.606   3.833  0.6298 -3.6441 -1.4808
   98MOL   H23931473   5.981   4.553   3.759  1.0125 -1.7409  0.4665
   98MOL   H24031474   6.081   4.922   4.208 -0.0849  1.4694  0.9399
   98MOL   H24131475   5.957   4.884   4.309 -1.2323 -3.8307 -2.4066
   98MOL   C24231476   6.162   4.893   4.408  0.5550  0.2996  0.0355
   98MOL   O24331477   6.298   4.896   4.359 -0.1370 -0.0365 -0.2663
   98MOL   C24431478   6.395   4.840   4.445 -0.0361  0.0468 -0.3920
   98MOL   C24531479   6.534   4.842   4.380 -0.2853  0.2686  0.6554
   98MOL   C24631480   6.522   4.787   4.234 -0.0673 -0.7088  0.0305
   98MOL   C24731481   6.130   5.031   4.469 -0.5763 -0.5520  0.2016
   98MOL   H24831482   6.161   4.822   4.491  0.4614 -0.6671 -0.7759
   98MOL   H24931483   6.408   4.886   4.543  1.5386  0.3411 -0.7251
   98MOL   H25031484   6.367   4.738   4.471  0.9673 -0.0249  0.4398
   98MOL   H25131485   6.599   4.780   4.442 -3.0373 -1.4502  1.9258
   98MOL   H25231486   6.578   4.942   4.375  1.4439 -0.5600 -2.2235
   98MOL   H25331487   6.463   4.853   4.170 -1.1444 -1.3180  0.3614
   98MOL   H25431488   6.485   4.684   4.241  0.8079 -0.9304  1.5962
   98MOL   H25531489   6.623   4.774   4.195  0.2803 -1.3280  1.1096
   98MOL   H25631490   6.221   5.078   4.506  0.3298 -1.2394 -1.1421
   98MOL   H25731491   6.099   5.093   4.384 -0.1075 -2.2002 -1.1932
   98MOL   C25831492   6.011   5.040   4.571 -0.2395  0.2135 -0.0594
   98MOL   O25931493   5.886   5.008   4.517 -0.2534 -0.3979 -0.0777
   98MOL   C26031494   5.816   5.121   4.461  1.4463  0.1157 -0.2208
   98MOL   C26131495   5.669   5.082   4.417 -0.8655 -0.3880 -0.0467
   98MOL   C26231496   5.670   4.999   4.300  0.0224  0.3779 -0.2452
   98MOL   C26331497   6.039   4.949   4.693 -0.2247  0.6212 -1.0667
   98MOL   H26431498   6.003   5.142   4.610  1.9339 -0.2294  1.6884
   98MOL   H26531499   5.807   5.194   4.542 -0.3307  0.8707 -1.0784
   98MOL   H26631500   5.869   5.160   4.374 -0.4073 -0.6302 -1.7087
   98MOL   H26731501   5.618   5.176   4.394 -2.1145 -1.9581 -4.2576
   98MOL   H26831502   5.625   5.042   4.508 -1.5032  1.2991  0.4139
   98MOL   H26931503   5.570   4.981   4.263 -0.1795  1.8733 -0.4387
   98MOL   H27031504   5.701   4.902   4.341 -0.2304 -0.3350 -1.7087
   98MOL   H27131505   5.734   5.038   4.222 -0.3443  3.8492  1.1113
   98MOL   H27231506   6.035   4.843   4.668 -2.4283  0.5199 -0.3735
   98MOL   H27331507   6.140   4.975   4.727 -0.7673  0.0928  1.0149
   98MOL   C27431508   5.950   4.978   4.820 -0.0874  0.1036  0.6791
   98MOL   O27531509   5.996   4.886   4.912  0.3288 -0.1640  0.1562
   98MOL   C27631510   5.899   4.805   4.974  0.7311 -0.4590  0.0654
   98MOL   C27731511   5.979   4.738   5.088  0.2069 -0.5631 -0.1099
   98MOL   C27831512   5.889   4.659   5.183 -0.2691 -0.8422 -0.5619
   98MOL   C27931513   5.963   5.118   4.880 -0.6311  0.0810 -0.7863
   98MOL   H28031514   5.845   4.954   4.804  0.3362 -2.0994  0.9987
   98MOL   H28131515   5.813   4.864   5.008  1.1244 -0.6824  1.4893
   98MOL   H28231516   5.862   4.738   4.896  0.3164  0.4163 -0.4939
   98MOL   H28331517   6.034   4.816   5.141  1.0892 -1.0620 -0.2818
   98MOL   H28431518   6.069   4.684   5.058  0.9838  0.6536 -0.0339
   98MOL   H28531519   5.822   4.721   5.243 -0.0996  0.3869 -1.6087
   98MOL   H28631520   5.957   4.604   5.247 -1.1395 -1.8539 -0.4804
   98MOL   H28731521   5.833   4.580   5.132  1.5439 -2.5155 -0.0149
   98MOL   H28831522   5.966   5.107   4.989 -2.5198 -3.1329 -0.9973
   98MOL   H28931523   6.058   5.164   4.852  1.0685 -0.3690  3.7625
   98MOL   C29031524   5.853   5.221   4.839  0.1408 -0.1032  0.5248
   98MOL   O29131525   5.728   5.174   4.897  0.5657 -0.3637  0.2516
   98MOL   C29231526   5.613   5.192   4.816 -0.2011 -0.1007 -0.4258
   98MOL   C29331527   5.499   5.134   4.888 -0.5128 -0.2679  0.0375
   98MOL   C29431528   5.504   4.981   4.893  0.2768 -0.4267  0.3627
   98MOL   C29531529   5.879   5.371   4.888  0.2642  0.2938 -0.0369
   98MOL   H29631530   5.860   5.224   4.730  2.5007 -1.4468  0.6217
   98MOL   H29731531   5.600   5.299   4.798  2.0669  0.1270 -0.9406
   98MOL   H29831532   5.640   5.148   4.720 -0.8663 -0.7245 -0.3279
   98MOL   H29931533   5.420   5.167   4.820  0.9102  3.9759  0.3277
   98MOL   H30031534   5.488   5.183   4.985 -0.2895 -0.2112  0.0337
   98MOL   H30131535   5.425   4.942   4.957 -0.2122 -0.3534 -0.2012
   98MOL   H30231536   5.595   4.952   4.947  1.6070  1.0936 -0.9911
   98MOL   H30331537   5.521   4.930   4.798  3.3977  1.1441  0.0071
   98MOL   H30431538   5.796   5.437   4.864 -0.6844 -0.7379  0.3783
   98MOL   H30531539   5.884   5.366   4.996  1.5832 -0.6450 -0.1187
   98MOL   C30631540   6.002   5.441   4.839 -0.6029 -0.1888 -0.2428
   98MOL   O30731541   5.993   5.455   4.696 -0.1731  0.0278  0.0680
   98MOL   C30831542   6.124   5.425   4.638 -0.1907 -0.5837  0.0210
   98MOL   C30931543   6.125   5.427   4.490  1.0335 -0.6212 -0.1842
   98MOL   C31031544   6.251   5.403   4.417 -0.3690 -0.1369 -0.1878
   98MOL   C31131545   6.010   5.584   4.892  0.0919 -0.9373  0.0763
   98MOL   H31231546   6.092   5.388   4.870 -1.0246 -0.9873 -0.3981
   98MOL   H31331547   6.199   5.501   4.661  1.0164 -0.9253 -2.6322
   98MOL   H31431548   6.166   5.330   4.672  2.8843  1.0886  1.1572
   98MOL   H31531549   6.083   5.525   4.465  1.4519 -0.1531  0.9371
   98MOL   H31631550   6.049   5.357   4.453  0.5812 -0.4462  0.4058
   98MOL   H31731551   6.236   5.390   4.310  0.1738  0.3567 -0.3312
   98MOL   H31831552   6.289   5.308   4.455  2.8423  1.4928  0.8882
   98MOL   H31931553   6.334   5.472   4.436 -0.7069  0.0398  0.6354
   98MOL   H32031554   5.935   5.655   4.857  0.7356  0.1270  0.8299
   98MOL   H32131555   6.005   5.577   5.001 -0.2119 -0.1534  0.1153
   98MOL   H32231556   6.108   5.625   4.869 -0.5432  1.3114  1.2560
   99MOL     C131557   0.066   7.224   2.268  0.0283 -0.4230  0.5614
   99MOL     O231558   0.098   7.140   2.161 -0.2085 -0.8210 -0.0455
   99MOL     C331559   0.232   7.091   2.174  0.2950  0.3576 -0.5430
   99MOL     C431560   0.262   6.987   2.065 -0.0603  0.0032  0.8270
   99MOL     C531561   0.410   6.943   2.058  0.1306 -0.1529  0.2532
   99MOL     C631562   7.762   7.297   2.230 -0.0497  0.2233  0.0739
   99MOL     H731563   0.133   7.308   2.287 -0.2438 -0.2591  0.7993
   99MOL     H831564   0.292   7.181   2.161 -0.2308  0.7234 -0.4155
   99MOL     H931565   0.243   7.047   2.273  0.6512  0.2558 -0.6266
   99MOL    H1031566   0.223   7.026   1.971  0.3525 -2.3252 -0.3372
   99MOL    H1131567   0.205   6.899   2.094 -1.1611  0.2150 -0.6452
   99MOL    H1231568   0.449   6.919   2.156 -0.4482  0.0779  0.5440
   99MOL    H1331569   0.469   7.016   2.002  1.5635 -1.5138 -0.0542
   99MOL    H1431570   0.433   6.854   2.000  4.2142  2.1914 -2.0123
   99MOL    H1531571   7.773   7.374   2.153 -0.2739 -1.3923 -1.6242
   99MOL    H1631572   7.709   7.214   2.184  1.9336 -1.5951  1.0047
   99MOL    H1731573   0.051   7.168   2.360  0.8258 -2.1181 -0.3298
   99MOL    C1831574   7.673   7.355   2.341 -0.2414  0.1033  0.0993
   99MOL    O1931575   7.666   7.262   2.446 -0.0687  0.6797  0.2322
   99MOL    C2031576   7.558   7.177   2.440  0.6390 -0.6554 -0.4930
   99MOL    C2131577   7.566   7.087   2.559  0.1876 -0.5405 -0.0141
   99MOL    C2231578   7.486   7.132   2.681 -0.4862 -0.7182 -0.0589
   99MOL    C2331579   7.717   7.491   2.388 -0.1248 -0.2718  0.4062
   99MOL    H2431580   7.575   7.377   2.300 -1.1059 -1.1656  1.4170
   99MOL    H2531581   7.465   7.234   2.443  0.2856 -1.2826  0.8542
   99MOL    H2631582   7.569   7.125   2.345 -0.2299 -2.3111  0.2942
   99MOL    H2731583   7.670   7.072   2.590 -0.1721 -0.1166  1.4296
   99MOL    H2831584   7.539   6.986   2.529  3.2639 -1.3301 -0.2902
   99MOL    H2931585   7.458   7.048   2.746 -3.6039  0.3464  0.0874
   99MOL    H3031586   7.389   7.168   2.645  1.1897  4.8642  0.5403
   99MOL    H3131587   7.542   7.210   2.732  0.6975 -1.7693  0.2760
   99MOL    H3231588   7.817   7.466   2.424 -0.1300  1.6808  1.8370
   99MOL    H3331589   7.709   7.562   2.306 -2.2801 -0.8976  0.0389
   99MOL    C3431590   7.637   7.549   2.504  0.1827 -0.2609  0.3217
   99MOL    O3531591   7.678   7.676   2.538  0.2461  0.4543 -0.6981
   99MOL    C3631592   7.790   7.672   2.629  0.5871 -0.6357  0.4774
   99MOL    C3731593   7.820   7.811   2.671  0.1699  0.3663 -0.7615
   99MOL    C3831594   0.040   0.065   2.548 -0.1762  0.8739 -0.0752
   99MOL    C3931595   7.485   7.563   2.478 -0.7020 -0.8628 -0.1930
   99MOL    H4031596   7.639   7.478   2.587  2.0390 -2.0419 -1.2016
   99MOL    H4131597   7.784   7.594   2.705  0.8403 -2.9674 -1.8055
   99MOL    H4231598   0.054   7.638   2.581 -0.3169 -1.4613 -0.6997
   99MOL    H4331599   0.076   7.801   2.739  0.7373  0.5160 -1.4309
   99MOL    H4431600   7.737   0.034   2.720  0.4639  0.8590 -0.7745
   99MOL    H4531601   0.035   0.172   2.572 -0.1052  1.3948 -2.2683
   99MOL    H4631602   7.807   0.050   2.459 -0.5653 -0.3829  0.3941
   99MOL    H4731603   0.148   0.050   2.537 -0.5110 -2.1327  0.4000
   99MOL    H4831604   7.470   7.647   2.409 -1.8812 -1.0451 -0.1737
   99MOL    H4931605   7.442   7.477   2.428  0.5273 -1.0556 -0.9388
   99MOL    C5031606   7.394   7.579   2.600 -0.2545 -0.5214  0.7701
   99MOL    O5131607   7.270   7.640   2.564 -0.0926  0.1840 -0.4481
   99MOL    C5231608   7.259   7.779   2.550  0.2030 -0.3162  0.2231
   99MOL    C5331609   7.275   0.021   2.690  0.1102  1.0402 -0.4894
   99MOL    C5431610   7.146   0.010   2.776 -0.3527 -0.5868  1.1282
   99MOL    C5531611   7.344   7.448   2.657 -0.2070 -0.0973  0.3025
   99MOL    H5631612   7.450   7.647   2.665  0.0191 -1.6328  1.7103
   99MOL    H5731613   7.330   7.804   2.472 -1.2946 -2.6515 -1.9344
   99MOL    H5831614   7.163   7.794   2.501  0.3590  1.9883  0.5398
   99MOL    H5931615   7.294   0.122   2.656  0.6979  0.9002 -0.5780
   99MOL    H6031616   7.370   7.826   2.739 -0.4460 -0.2321  0.0157
   99MOL    H6131617   7.165   0.047   2.877  0.0564 -0.4165  0.9894
   99MOL    H6231618   7.117   7.733   2.787  0.1605 -0.4946  3.5247
   99MOL    H6331619   7.062   0.051   2.720  0.7037 -0.4932 -0.4189
   99MOL    H6431620   7.292   7.408   2.570 -1.0958  1.9570 -0.1228
   99MOL    H6531621   7.429   7.383   2.680 -0.5439  0.1905  2.4099
   99MOL    C6631622   7.252   7.454   2.783 -0.5035  0.6680  0.3761
   99MOL    O6731623   7.191   7.327   2.816  0.3281  0.1621 -0.2117
   99MOL    C6831624   7.064   7.308   2.757  0.2616  0.2824  0.3304
   99MOL    C6931625   7.028   7.169   2.772 -0.4656 -0.4869 -0.5202
   99MOL    C7031626   7.136   7.068   2.731 -0.2459 -0.1669  0.8037
   99MOL    C7131627   7.329   7.518   2.907  0.0177  0.2243 -0.7249
   99MOL    H7231628   7.172   7.525   2.760 -0.2025  0.6678 -0.6856
   99MOL    H7331629   6.992   7.377   2.801 -0.8199  0.0283 -1.0063
   99MOL    H7431630   7.064   7.333   2.650 -0.4276  0.5968  0.4052
   99MOL    H7531631   6.938   7.150   2.713 -0.8408 -0.6927  0.1168
   99MOL    H7631632   7.010   7.143   2.876 -0.1305  1.2764 -0.0227
   99MOL    H7731633   7.080   6.975   2.733  1.5106 -1.3809 -2.3102
   99MOL    H7831634   7.215   7.071   2.805  0.9779  0.1595 -0.4837
   99MOL    H7931635   7.172   7.096   2.632 -0.6724  1.7453  1.1717
   99MOL    H8031636   7.360   7.615   2.869 -3.3518  1.4760 -0.5197
   99MOL    H8131637   7.247   7.543   2.975  0.3404 -0.6528 -0.0054
   99MOL    C8231638   7.431   7.420   2.982  0.1563  0.1328 -0.1291
   99MOL    O8331639   7.554   7.483   3.022 -0.3372  0.0125  0.3759
   99MOL    C8431640   7.650   7.507   2.920 -0.0329  0.2942 -0.6698
   99MOL    C8531641   7.784   7.527   2.994 -0.2352 -0.6955  0.7469
   99MOL    C8631642   7.826   7.394   3.055  0.8349 -0.2516  0.1928
   99MOL    C8731643   7.374   7.379   3.117 -0.2317  0.0895 -0.0143
   99MOL    H8831644   7.446   7.334   2.916 -0.7070  0.9706 -1.4349
   99MOL    H8931645   7.658   7.415   2.863  2.7847 -1.2437  2.0346
   99MOL    H9031646   7.613   7.588   2.858 -0.3671  0.1673 -0.6372
   99MOL    H9131647   7.764   7.605   3.067  3.3745  1.6924 -0.7101
   99MOL    H9231648   0.033   7.565   2.927 -1.8011 -0.3318 -0.8952
   99MOL    H9331649   7.740   7.344   3.101  1.1113  0.3005  1.3144
   99MOL    H9431650   0.070   7.414   3.134  0.0254  2.0790  0.3807
   99MOL    H9531651   0.039   7.335   2.973  1.6348  2.2351 -1.2487
   99MOL    H9631652   7.377   7.465   3.184  0.1890 -0.5099  0.7532
   99MOL    H9731653   7.268   7.352   3.111 -0.0680 -0.0643 -2.8541
   99MOL    C9831654   7.446   7.258   3.175 -0.1602  0.1492  0.2565
   99MOL    O9931655   7.421   7.252   3.319 -0.1594  0.0993  0.5347
   99MOL   C10031656   7.512   7.332   3.390  0.4555 -0.6933 -0.1036
   99MOL   C10131657   7.489   7.328   3.541 -0.0613  0.0682  0.1571
   99MOL   C10231658   7.352   7.396   3.578  0.0763 -0.2637 -0.2802
   99MOL   C10331659   7.386   7.128   3.109  0.2130  0.1041 -0.9003
   99MOL   H10431660   7.553   7.262   3.155 -0.5816 -0.9344 -2.3008
   99MOL   H10531661   7.613   7.295   3.374  0.7888 -0.2113  0.9015
   99MOL   H10631662   7.515   7.435   3.356 -0.6465 -0.9022 -0.8750
   99MOL   H10731663   7.567   7.384   3.592 -0.4750  0.5998  0.2107
   99MOL   H10831664   7.496   7.224   3.571 -4.0044 -0.4617 -0.4571
   99MOL   H10931665   7.326   7.477   3.509 -1.8003 -3.0596 -2.9696
   99MOL   H11031666   7.360   7.438   3.678 -2.0967  1.7312 -0.8672
   99MOL   H11131667   7.257   7.343   3.577 -0.2440  0.2945 -0.1820
   99MOL   H11231668   7.287   7.115   3.152  0.6113  0.4296  0.1385
   99MOL   H11331669   7.374   7.144   3.002 -0.2937  1.2499 -0.6702
   99MOL   C11431670   7.465   6.998   3.120  0.1027 -0.3026 -0.0638
   99MOL   O11531671   7.601   7.013   3.076 -0.2506 -0.0598 -0.0848
   99MOL   C11631672   7.658   6.897   3.007  0.5891  0.5711 -0.2447
   99MOL   C11731673   7.799   6.919   2.948 -0.0713 -0.3646 -0.3855
   99MOL   C11831674   7.810   7.047   2.858  0.3959  0.0660 -0.6079
   99MOL   C11931675   7.482   6.948   3.264  0.2267  0.1107  0.2781
   99MOL   H12031676   7.417   6.924   3.056 -1.0282 -0.4088  0.8807
   99MOL   H12131677   7.647   6.806   3.066 -3.8799 -0.2764 -2.1976
   99MOL   H12231678   7.596   6.868   2.923 -1.7546 -1.7426  2.1944
   99MOL   H12331679   7.826   6.824   2.900  0.5021 -0.6647  0.5279
   99MOL   H12431680   0.038   6.936   3.032  1.2458  2.1774 -1.9085
   99MOL   H12531681   0.086   7.080   2.861  0.0164  1.5749 -3.0285
   99MOL   H12631682   7.739   7.121   2.893 -1.8254 -1.9933 -0.6291
   99MOL   H12731683   7.789   7.028   2.753  2.4179 -0.9526 -0.8570
   99MOL   H12831684   7.530   6.851   3.259  0.9356  0.4690  0.0676
   99MOL   H12931685   7.542   7.017   3.324  2.0228 -0.3285 -0.9915
   99MOL   C13031686   7.343   6.924   3.344  1.1065 -0.2679 -0.4923
   99MOL   O13131687   7.259   6.826   3.286  0.2983  0.0494 -0.2795
   99MOL   C13231688   7.320   6.703   3.253 -0.5817 -0.0508 -0.5622
   99MOL   C13331689   7.208   6.624   3.184  0.1776  0.1794 -0.5673
   99MOL   C13431690   7.221   6.477   3.192 -0.2945  0.2587 -0.1833
   99MOL   C13531691   7.372   6.887   3.491  0.7753  0.6222 -0.1546
   99MOL   H13631692   7.290   7.019   3.344  1.8506  0.1589  0.9344
   99MOL   H13731693   7.401   6.710   3.180 -0.4377 -2.4066 -0.6507
   99MOL   H13831694   7.362   6.653   3.340 -0.3958  1.1934  0.0653
   99MOL   H13931695   7.204   6.645   3.077  1.1220 -0.6544 -0.7809
   99MOL   H14031696   7.113   6.654   3.228  0.1256  1.5932 -1.6187
   99MOL   H14131697   7.133   6.433   3.145 -0.2252 -0.8776  0.7184
   99MOL   H14231698   7.214   6.446   3.297  0.3878 -0.0136 -0.2126
   99MOL   H14331699   7.319   6.446   3.156  0.4453  0.4788  1.5698
   99MOL   H14431700   7.429   6.796   3.479 -0.7621 -0.5798  1.4251
   99MOL   H14531701   7.439   6.961   3.536  0.1828 -0.3766  2.4779
   99MOL   C14631702   7.249   6.866   3.577  0.1231 -0.2105 -0.0559
   99MOL   O14731703   7.312   6.827   3.702 -0.1081  0.1312 -0.8112
   99MOL   C14831704   7.244   6.718   3.770 -0.4830 -0.1895  0.3403
   99MOL   C14931705   7.291   6.745   3.916  0.5467  0.1365 -0.1435
   99MOL   C15031706   7.252   6.879   3.966 -0.3037 -1.1788 -0.2394
   99MOL   C15131707   7.175   7.003   3.605 -0.7351  1.2266 -0.0255
   99MOL   H15231708   7.183   6.789   3.537 -0.1961  0.0308 -0.0055
   99MOL   H15331709   7.136   6.722   3.755 -0.2650  0.8560 -1.1023
   99MOL   H15431710   7.288   6.624   3.738  0.7590  0.6667 -0.5191
   99MOL   H15531711   7.394   6.716   3.937  0.2538 -0.5648  0.3300
   99MOL   H15631712   7.240   6.665   3.970 -0.8361  0.4573 -0.9640
   99MOL   H15731713   7.331   6.950   3.943 -1.6559  0.5684  0.4055
   99MOL   H15831714   7.241   6.868   4.074 -1.4201 -2.0865 -0.4391
   99MOL   H15931715   7.159   6.924   3.930  0.4012  2.5935  2.3247
   99MOL   H16031716   7.153   7.005   3.712 -1.6380 -0.8025 -0.1559
   99MOL   H16131717   7.235   7.093   3.593 -0.2892  0.9425  0.0724
   99MOL   C16231718   7.044   7.023   3.521  0.1215 -0.1191  0.7307
   99MOL   O16331719   6.956   6.935   3.584 -0.5131 -0.1920  0.6701
   99MOL   C16431720   6.854   6.877   3.506  0.1798 -0.1961  0.3181
   99MOL   C16531721   6.908   6.758   3.422 -0.1979  0.3748 -0.0583
   99MOL   C16631722   6.801   6.672   3.354 -1.0458  0.5770  0.0556
   99MOL   C16731723   6.983   7.167   3.517  0.6823 -0.0023  0.4312
   99MOL   H16831724   7.052   6.999   3.415  0.5080  0.7727  0.5516
   99MOL   H16931725   6.772   6.848   3.572 -0.2856 -0.0102 -0.1755
   99MOL   H17031726   6.821   6.953   3.435  0.8708  0.2062  0.4237
   99MOL   H17131727   6.968   6.695   3.488 -0.6681 -0.5819 -0.5376
   99MOL   H17231728   6.976   6.796   3.346  0.6647 -2.4470 -0.7775
   99MOL   H17331729   6.853   6.589   3.307  2.3018  1.8320  1.3671
   99MOL   H17431730   6.738   6.724   3.281  0.1242  1.1282 -0.5827
   99MOL   H17531731   6.725   6.634   3.423 -0.3471  2.3676  1.8619
   99MOL   H17631732   7.056   7.227   3.464 -0.0564 -0.6543 -1.3588
   99MOL   H17731733   6.895   7.180   3.454  0.1288 -1.1698  0.9370
   99MOL   C17831734   6.963   7.243   3.651  0.3261 -0.7868 -0.3837
   99MOL   O17931735   6.971   7.378   3.617 -0.8328 -0.1826 -0.3114
   99MOL   C18031736   7.034   7.460   3.714 -0.0559  0.1464  0.2926
   99MOL   C18131737   7.043   7.593   3.660 -0.4834  0.0306  0.1952
   99MOL   C18231738   6.904   7.644   3.612  0.1275  0.0038 -0.1100
   99MOL   C18331739   6.832   7.209   3.729  0.0838  0.3876 -0.7882
   99MOL   H18431740   7.046   7.213   3.714  1.1924  0.6197 -0.8337
   99MOL   H18531741   6.968   7.453   3.801 -0.3841  1.3936  0.1537
   99MOL   H18631742   7.127   7.416   3.750 -0.0935  1.0018  1.4901
   99MOL   H18731743   7.117   7.596   3.579 -1.7957 -1.1867 -1.0789
   99MOL   H18831744   7.090   7.658   3.734  1.9113  0.5924 -1.7369
   99MOL   H18931745   6.893   7.643   3.503 -0.8369 -0.2387 -0.0159
   99MOL   H19031746   6.906   7.751   3.632 -0.7137  0.4508 -2.2318
   99MOL   H19131747   6.823   7.604   3.673  2.2578 -0.0610  2.7494
   99MOL   H19231748   6.838   7.102   3.748 -2.9914  0.3569  0.3983
   99MOL   H19331749   6.821   7.249   3.830 -0.6643  0.2396 -0.8042
   99MOL   C19431750   6.700   7.219   3.658  0.3617 -0.3495  0.3533
   99MOL   O19531751   6.591   7.184   3.749 -0.1640  0.7167  0.2396
   99MOL   C19631752   6.561   7.049   3.730  0.1692 -0.0166 -0.1487
   99MOL   C19731753   6.500   6.996   3.864  0.5304 -0.6311 -1.1391
   99MOL   C19831754   6.361   7.056   3.894  0.2882 -0.0795 -0.2737
   99MOL   C19931755   6.666   7.359   3.610  0.3165 -0.5945  0.7952
   99MOL   H20031756   6.700   7.161   3.566  3.2920 -0.9713  0.7160
   99MOL   H20131757   6.487   7.029   3.652  0.1192 -0.0210 -0.1000
   99MOL   H20231758   6.654   6.993   3.719  0.2949 -0.5247  3.1551
   99MOL   H20331759   6.567   7.002   3.950  2.5198  1.5190 -2.7501
   99MOL   H20431760   6.489   6.889   3.845  0.5078 -0.8600  0.1562
   99MOL   H20531761   6.302   7.051   3.802  2.2556  0.4336 -1.5854
   99MOL   H20631762   6.362   7.159   3.928 -2.2974 -0.5455  1.3479
   99MOL   H20731763   6.306   6.995   3.966  1.2803  0.3723  0.8691
   99MOL   H20831764   6.682   7.418   3.701 -0.2068  0.5378  0.1622
   99MOL   H20931765   6.754   7.385   3.550  2.2081 -2.6655  2.5756
   99MOL   C21031766   6.538   7.369   3.545  0.3727  0.5613  0.0705
   99MOL   O21131767   6.485   7.498   3.579 -0.0073 -0.4283 -0.1540
   99MOL   C21231768   6.401   7.497   3.688 -0.5112  0.1338 -0.0797
   99MOL   C21331769   6.373   7.645   3.728 -0.2902 -0.4943 -0.6324
   99MOL   C21431770   6.509   7.713   3.759 -0.2656  0.3457 -0.0735
   99MOL   C21531771   6.550   7.372   3.391 -0.2587 -0.4758 -0.2292
   99MOL   H21631772   6.475   7.284   3.572 -0.2359  0.0539 -2.7169
   99MOL   H21731773   6.308   7.445   3.662 -0.0379 -0.7166 -0.0833
   99MOL   H21831774   6.439   7.438   3.771  2.4073  0.3769 -1.1762
   99MOL   H21931775   6.311   7.627   3.815  0.9290 -3.7030 -0.3573
   99MOL   H22031776   6.323   7.706   3.653  1.9530  1.9305 -0.2328
   99MOL   H22131777   6.567   7.712   3.667 -1.3935  1.2626 -0.8095
   99MOL   H22231778   6.579   7.652   3.816 -0.9814 -0.0814  0.3575
   99MOL   H22331779   6.500   7.815   3.795  2.5956  0.7102 -0.2744
   99MOL   H22431780   6.451   7.397   3.352 -1.0610 -2.1342  0.6837
   99MOL   H22531781   6.615   7.454   3.362 -0.4331  0.5475  2.1289
   99MOL   C22631782   6.596   7.242   3.314  0.4722  0.1517  0.0787
   99MOL   O22731783   6.489   7.149   3.317 -0.1075  0.2119  0.3238
   99MOL   C22831784   6.517   7.007   3.323 -0.0654 -0.0586  0.0117
   99MOL   C22931785   6.384   6.927   3.356 -0.1046 -0.6904 -0.3789
   99MOL   C23031786   6.388   6.786   3.298  0.1005  0.3187 -0.8120
   99MOL   C23131787   6.610   7.263   3.161  0.5092  0.5203 -0.2231
   99MOL   H23231788   6.680   7.196   3.367  0.8864 -0.3053 -0.9764
   99MOL   H23331789   6.556   6.985   3.223  0.9714  0.1196  0.3710
   99MOL   H23431790   6.597   6.993   3.396 -0.1255 -1.5157 -0.1872
   99MOL   H23531791   6.298   6.977   3.310 -1.4443 -2.2981  0.3303
   99MOL   H23631792   6.373   6.920   3.464 -3.3313  3.1623 -0.3235
   99MOL   H23731793   6.464   6.722   3.342 -1.0045 -0.4346  0.0393
   99MOL   H23831794   6.414   6.789   3.192  1.0181 -0.2572 -0.6097
   99MOL   H23931795   6.300   6.725   3.320  0.8950 -0.8589 -0.8209
   99MOL   H24031796   6.650   7.174   3.112 -2.0267 -0.0243 -1.3610
   99MOL   H24131797   6.508   7.278   3.124 -0.0492  1.4187  1.6371
   99MOL   C24231798   6.702   7.376   3.105 -0.0239 -0.4641 -0.2765
   99MOL   O24331799   6.828   7.360   3.180  0.4647  0.2601  0.0225
   99MOL   C24431800   6.897   7.486   3.201 -0.2373 -0.2222 -0.1707
   99MOL   C24531801   7.045   7.459   3.203  0.5888  0.6233 -0.5168
   99MOL   C24631802   7.122   7.588   3.247  0.3077  0.1175 -0.2268
   99MOL   C24731803   6.734   7.362   2.956  0.0598 -0.2806  0.8373
   99MOL   H24831804   6.650   7.469   3.128  0.3386 -0.0346 -1.1625
   99MOL   H24931805   6.864   7.554   3.122  1.5272  0.2124 -0.5412
   99MOL   H25031806   6.864   7.520   3.299  0.7154 -0.1810  0.1420
   99MOL   H25131807   7.077   7.425   3.104  1.7947  0.2783 -0.0110
   99MOL   H25231808   7.066   7.382   3.277  0.7628  2.7142  1.6667
   99MOL   H25331809   7.079   7.630   3.338  1.2360  1.5777 -0.4413
   99MOL   H25431810   7.113   7.655   3.161  1.0474 -0.3229 -0.6494
   99MOL   H25531811   7.227   7.570   3.267 -0.2134 -0.3960  2.1866
   99MOL   H25631812   6.836   7.392   2.935 -0.5178  0.9528 -0.3323
   99MOL   H25731813   6.737   7.257   2.927  1.4962  0.0072 -0.0817
   99MOL   C25831814   6.644   7.451   2.856  0.2315 -0.3532  0.7204
   99MOL   O25931815   6.710   7.496   2.741  0.0160 -0.2023  0.3565
   99MOL   C26031816   6.770   7.624   2.757  0.0736  0.3101 -0.4395
   99MOL   C26131817   6.869   7.642   2.640  0.0926  0.6132  0.4832
   99MOL   C26231818   6.816   7.630   2.500  0.3387  0.6941  0.7784
   99MOL   C26331819   6.519   7.368   2.814 -0.3465  0.1240  0.6258
   99MOL   H26431820   6.596   7.531   2.911  0.7418  1.0496 -0.8431
   99MOL   H26531821   6.705   7.711   2.756  1.6181  1.5347  1.5370
   99MOL   H26631822   6.824   7.631   2.852 -2.8216  4.1126  1.0763
   99MOL   H26731823   6.944   7.564   2.652  1.9848  2.2164 -0.6102
   99MOL   H26831824   6.915   7.740   2.649  0.6146  0.3053  1.3128
   99MOL   H26931825   6.887   7.632   2.417  0.2089 -2.0208  0.5504
   99MOL   H27031826   6.752   7.717   2.480 -0.6323 -0.1817  0.0083
   99MOL   H27131827   6.758   7.541   2.477  1.1220  0.6725 -1.2073
   99MOL   H27231828   6.550   7.273   2.770  2.7186  0.2013  2.3963
   99MOL   H27331829   6.462   7.334   2.900 -1.4057  0.3596  0.0165
   99MOL   C27431830   6.412   7.439   2.719  0.4623 -0.1037 -0.3475
   99MOL   O27531831   6.312   7.334   2.692 -0.1645 -0.7227  0.3228
   99MOL   C27631832   6.335   7.262   2.570 -0.4608  0.0299  0.8048
   99MOL   C27731833   6.302   7.339   2.441  0.1175 -0.1617 -0.9865
   99MOL   C27831834   6.308   7.245   2.327  0.3683  0.7879  0.0694
   99MOL   C27931835   6.332   7.550   2.794  0.5855  0.4135  0.5071
   99MOL   H28031836   6.457   7.487   2.632  0.5369 -1.5145 -1.1151
   99MOL   H28131837   6.437   7.224   2.567 -0.5531 -0.0630 -2.4548
   99MOL   H28231838   6.265   7.178   2.575 -1.3954  0.8463  1.9192
   99MOL   H28331839   6.378   7.415   2.421 -0.1479  0.4033  0.0975
   99MOL   H28431840   6.208   7.394   2.452  1.1024  0.9331  2.4027
   99MOL   H28531841   6.217   7.185   2.324  0.2904  0.7475  2.2716
   99MOL   H28631842   6.392   7.178   2.345 -0.3298 -0.4646 -1.2317
   99MOL   H28731843   6.311   7.302   2.234  0.6397 -0.9433 -0.9982
   99MOL   H28831844   6.267   7.503   2.868 -0.8300  1.4430 -0.0592
   99MOL   H28931845   6.404   7.611   2.850  1.0567  0.4913 -0.1702
   99MOL   C29031846   6.251   7.645   2.705  0.1185 -0.1132 -0.6521
   99MOL   O29131847   6.115   7.661   2.744 -0.5114  1.0392 -0.0616
   99MOL   C29231848   6.032   7.539   2.732  0.6869  0.9273 -0.2462
   99MOL   C29331849   5.885   7.557   2.762  0.2406 -0.2024  0.8829
   99MOL   C29431850   5.865   7.581   2.907 -0.0580 -0.2819  0.4327
   99MOL   C29531851   6.306   7.790   2.692  1.0361  0.0167 -0.2980
   99MOL   H29631852   6.240   7.606   2.603  0.1276  0.4914 -0.8841
   99MOL   H29731853   6.040   7.475   2.644 -0.3666 -1.4747  1.3649
   99MOL   H29831854   6.063   7.467   2.808 -0.1148 -0.8338 -1.5669
   99MOL   H29931855   5.842   7.461   2.733 -2.9615  1.3231  0.4586
   99MOL   H30031856   5.840   7.635   2.701  1.9625  0.1670  0.0673
   99MOL   H30131857   5.911   7.503   2.968  2.2526  0.3141 -0.4707
   99MOL   H30231858   5.760   7.602   2.927  0.4505  2.6234  0.4024
   99MOL   H30331859   5.919   7.671   2.938 -2.5650  0.7476  1.9527
   99MOL   H30431860   6.220   0.018   2.655 -0.8578 -3.3165 -1.2267
   99MOL   H30531861   6.330   0.004   2.790  1.5268 -0.7750 -0.0756
   99MOL   C30631862   6.420   7.814   2.598 -0.1466  0.0384 -0.1457
   99MOL   O30731863   6.364   0.027   2.470 -0.2829 -0.1604  0.0302
   99MOL   C30831864   6.381   7.756   2.363 -0.0596  0.5969  0.7705
   99MOL   C30931865   6.327   7.807   2.227 -0.2577  0.1164 -0.3650
   99MOL   C31031866   6.372   7.732   2.104  0.7763 -0.0958 -0.4317
   99MOL   C31131867   6.505   0.102   2.637  0.0467 -0.0510 -0.7826
   99MOL   H31231868   6.477   7.721   2.597 -1.0718 -0.6544  3.8840
   99MOL   H31331869   6.483   7.723   2.344 -0.0908  1.7300 -1.6721
   99MOL   H31431870   6.322   7.672   2.397  0.9284 -0.9071 -1.1379
   99MOL   H31531871   6.364   0.081   2.218  0.6749 -0.2970 -1.3082
   99MOL   H31631872   6.219   7.818   2.239 -0.1470  2.7341 -1.4570
   99MOL   H31731873   6.304   7.759   2.023  1.3737 -1.6917 -1.4594
   99MOL   H31831874   6.373   7.623   2.108 -0.2217 -0.1072  6.0573
   99MOL   H31931875   6.472   7.770   2.086  1.3297 -1.6934 -0.7684
   99MOL   H32031876   6.538   0.088   2.740  1.8993 -0.4346 -1.4174
   99MOL   H32131877   6.591   0.119   2.573 -0.4805  0.6916 -1.3064
   99MOL   H32231878   6.450   0.196   2.629  0.0872  0.0709  0.2904
  100MOL     C131879   0.417   4.212   3.884  0.0806  0.5152  0.7419
  100MOL     O231880   0.280   4.189   3.865  0.2144 -0.1181  0.6015
  100MOL     C331881   0.203   4.309   3.833  0.3000 -0.3842  0.1150
  100MOL     C431882   0.058   4.302   3.875 -0.5005 -0.6153 -0.9262
  100MOL     C531883   0.023   4.319   4.018 -0.3352 -0.0892 -0.3094
  100MOL     C631884   0.487   4.249   3.759 -0.1225  0.0223 -0.1930
  100MOL     H731885   0.465   4.124   3.925  0.1566  0.1355 -0.1631
  100MOL     H831886   0.249   4.396   3.880 -1.6877  0.1804  1.0723
  100MOL     H931887   0.197   4.329   3.726 -1.8182 -1.8144 -0.0613
  100MOL    H1031888   0.007   4.212   3.841  1.2634 -1.6656 -0.8379
  100MOL    H1131889   0.006   4.376   3.813 -0.5057  0.3476  0.2244
  100MOL    H1231890   0.058   4.228   4.069  1.6793  1.4851  1.2076
  100MOL    H1331891   7.743   4.322   4.036 -0.5380  0.0526 -1.5230
  100MOL    H1431892   0.070   4.396   4.079 -1.1285 -0.5677  0.9453
  100MOL    H1531893   0.482   4.156   3.703 -1.5161 -0.2177  0.3034
  100MOL    H1631894   0.426   4.322   3.706 -0.6315 -0.6209 -0.4912
  100MOL    H1731895   0.440   4.290   3.957  0.4771  1.8076 -0.7153
  100MOL    C1831896   0.631   4.292   3.777 -0.2975  0.5528 -0.0424
  100MOL    O1931897   0.649   4.406   3.855  0.3576  0.0982  0.0342
  100MOL    C2031898   0.579   4.524   3.820  0.1861 -0.6258 -0.0878
  100MOL    C2131899   0.605   4.632   3.927 -1.0931 -0.3868 -0.5178
  100MOL    C2231900   0.577   4.571   4.071  0.1878  0.0876  0.9260
  100MOL    C2331901   0.735   4.181   3.818 -0.3604 -0.1084 -0.2517
  100MOL    H2431902   0.662   4.321   3.677 -2.8622 -1.1425 -1.3657
  100MOL    H2531903   0.631   4.540   3.725  1.4386 -1.3518  0.4665
  100MOL    H2631904   0.474   4.508   3.794  0.0393  0.3338 -0.0718
  100MOL    H2731905   0.533   4.713   3.913 -0.0794  0.8551  1.2614
  100MOL    H2831906   0.703   4.679   3.922 -0.2275 -1.9868  0.9175
  100MOL    H2931907   0.488   4.509   4.077 -0.4388  0.9060  0.1149
  100MOL    H3031908   0.577   4.644   4.153  0.2352  2.2395 -0.9493
  100MOL    H3131909   0.656   4.497   4.089  0.5520  0.0444 -0.8154
  100MOL    H3231910   0.707   4.163   3.921 -1.3323  1.9354 -0.1221
  100MOL    H3331911   0.704   4.092   3.763 -1.8415  0.0082  0.3666
  100MOL    C3431912   0.891   4.210   3.797 -0.5062 -0.0988 -0.0140
  100MOL    O3531913   0.981   4.111   3.849  0.6403 -0.1554  0.1569
  100MOL    C3631914   0.982   4.113   3.994 -0.7641  0.2096 -1.0632
  100MOL    C3731915   1.077   4.005   4.050  0.3376  0.7001  0.1885
  100MOL    C3831916   1.043   3.864   4.004  1.0600 -0.1422 -0.3760
  100MOL    C3931917   0.938   4.239   3.653  0.3288 -0.5932  0.1443
  100MOL    H4031918   0.908   4.304   3.851 -0.4820 -0.5332  0.7493
  100MOL    H4131919   1.013   4.212   4.027 -1.5964  0.3739 -0.7708
  100MOL    H4231920   0.887   4.091   4.043  0.2511  1.3143  1.5073
  100MOL    H4331921   1.064   4.002   4.158 -0.4895  0.3554  0.0778
  100MOL    H4431922   1.182   4.019   4.023  0.3913  0.3476  0.2169
  100MOL    H4531923   0.958   3.833   4.064  1.2754  1.0858  0.5741
  100MOL    H4631924   1.120   3.789   4.020  0.0122 -1.0322  0.5182
  100MOL    H4731925   1.030   3.863   3.896 -1.5389  0.7064 -0.1065
  100MOL    H4831926   0.890   4.330   3.618  0.8443 -1.2589 -2.3763
  100MOL    H4931927   1.046   4.249   3.662  0.0791  2.3341  0.3210
  100MOL    C5031928   0.937   4.114   3.555 -0.7142  0.2495 -0.2839
  100MOL    O5131929   0.801   4.092   3.522  0.2325 -0.2808 -0.4070
  100MOL    C5231930   0.788   3.951   3.502  0.6667 -0.0692 -0.2204
  100MOL    C5331931   0.687   3.937   3.386  0.2006 -0.6109 -0.5398
  100MOL    C5431932   0.629   3.798   3.382 -0.1733  0.0256 -0.1083
  100MOL    C5531933   1.015   4.157   3.425  0.1084 -0.8002 -0.2249
  100MOL    H5631934   0.996   4.033   3.599  2.2520  0.5965 -3.3687
  100MOL    H5731935   0.880   3.896   3.480  0.3559 -1.3178  1.4605
  100MOL    H5831936   0.745   3.902   3.589  0.7422 -1.7098 -1.0834
  100MOL    H5931937   0.732   3.983   3.298  0.3699 -0.8317 -0.5677
  100MOL    H6031938   0.606   4.003   3.418  1.4489  1.1164 -0.8586
  100MOL    H6131939   0.571   3.789   3.474 -0.4853 -2.1949 -0.5162
  100MOL    H6231940   0.700   3.716   3.375 -0.6171 -0.1894 -2.1446
  100MOL    H6331941   0.553   3.789   3.305 -0.9367  0.0845  0.6301
  100MOL    H6431942   1.003   4.062   3.373  3.5282 -0.0535 -2.5164
  100MOL    H6531943   0.963   4.230   3.363 -0.4659 -0.3761  0.7526
  100MOL    C6631944   1.162   4.192   3.438  0.3923  0.6022 -0.2744
  100MOL    O6731945   1.229   4.090   3.516 -0.5077  0.1007  0.5848
  100MOL    C6831946   1.325   4.144   3.603  0.4931 -0.2165 -0.4805
  100MOL    C6931947   1.410   4.028   3.642 -0.2756  0.5518 -0.3279
  100MOL    C7031948   1.340   3.930   3.728  0.2679  0.3920  0.3967
  100MOL    C7131949   1.223   4.212   3.295 -0.4263  0.5627 -0.9615
  100MOL    H7231950   1.170   4.285   3.494  0.4928 -0.0813  0.8721
  100MOL    H7331951   1.403   4.204   3.554  0.5450 -0.8929 -1.2450
  100MOL    H7431952   1.282   4.186   3.693  0.1171  0.2070 -0.8564
  100MOL    H7531953   1.482   4.068   3.714 -0.5014  1.9848 -0.8982
  100MOL    H7631954   1.476   3.984   3.567 -0.5507  1.3209 -1.0243
  100MOL    H7731955   1.308   3.985   3.817  1.2563  2.0790 -0.2688
  100MOL    H7831956   1.399   3.851   3.775 -1.2226 -1.1992 -0.3902
  100MOL    H7931957   1.251   3.889   3.682  1.1868  1.9507 -2.9515
  100MOL    H8031958   1.328   4.241   3.307 -0.1671 -0.3710 -0.9412
  100MOL    H8131959   1.215   4.121   3.236 -3.1593 -0.3870  0.8140
  100MOL    C8231960   1.154   4.327   3.209  0.2504  0.0586  0.2528
  100MOL    O8331961   1.163   4.443   3.286  0.4201 -0.8429  0.2308
  100MOL    C8431962   1.036   4.501   3.313 -0.0824 -0.0316  0.0695
  100MOL    C8531963   1.053   4.640   3.374  0.3617  0.5845 -0.2598
  100MOL    C8631964   0.918   4.700   3.432  0.5248  0.1016  0.5025
  100MOL    C8731965   1.225   4.338   3.077  0.2472  0.4227 -0.0877
  100MOL    H8831966   1.049   4.300   3.197  0.4240 -1.6365  2.2730
  100MOL    H8931967   0.975   4.514   3.224 -0.2179  0.0347  0.1741
  100MOL    H9031968   0.995   4.431   3.386 -1.3151 -0.5784 -1.1354
  100MOL    H9131969   1.082   4.703   3.291  1.5443 -2.1331 -1.9812
  100MOL    H9231970   1.138   4.638   3.442 -0.4757  3.7793  0.9783
  100MOL    H9331971   0.872   4.650   3.517  0.0288 -0.7956 -0.2910
  100MOL    H9431972   0.855   4.715   3.344  1.5463 -2.4967 -0.7079
  100MOL    H9531973   0.952   4.788   3.486 -1.3686  1.1122  0.1042
  100MOL    H9631974   1.325   4.374   3.104  0.7235 -0.0498 -1.2193
  100MOL    H9731975   1.232   4.242   3.027 -3.2871 -0.3558  0.7473
  100MOL    C9831976   1.173   4.453   2.988 -0.4387 -0.1816  0.6237
  100MOL    O9931977   1.279   4.462   2.894  0.3838 -0.6213 -0.8461
  100MOL   C10031978   1.288   4.580   2.822  0.4224  0.7766  0.4881
  100MOL   C10131979   1.397   4.579   2.712 -0.0556  0.4374 -0.1200
  100MOL   C10231980   1.454   4.715   2.668  0.0782  0.4441  0.2106
  100MOL   C10331981   1.030   4.443   2.920  0.2149  1.0392 -0.5808
  100MOL   H10431982   1.176   4.547   3.043  1.9245  0.9349 -1.3173
  100MOL   H10531983   1.196   4.619   2.778  0.2417 -1.6202 -1.3869
  100MOL   H10631984   1.317   4.649   2.901 -0.2540  1.7528 -0.1095
  100MOL   H10731985   1.360   4.525   2.625  0.8081 -0.5843  0.1327
  100MOL   H10831986   1.479   4.510   2.734 -0.4900  0.3050  1.1281
  100MOL   H10931987   1.529   4.767   2.728 -1.0038  0.0543  1.9456
  100MOL   H11031988   1.369   4.780   2.647  0.2929  1.0123  1.0951
  100MOL   H11131989   1.504   4.704   2.571  2.1511  1.7762  1.0923
  100MOL   H11231990   0.940   4.449   2.981 -0.3995  0.6177 -1.4270
  100MOL   H11331991   1.007   4.532   2.861  1.5803  1.2622 -0.7823
  100MOL   C11431992   0.998   4.331   2.827  0.5371  0.3838  0.3921
  100MOL   O11531993   0.970   4.227   2.919  0.0861 -0.2366  0.1125
  100MOL   C11631994   0.993   4.097   2.868  0.1474  0.7813 -0.0268
  100MOL   C11731995   0.946   4.005   2.976  1.0033  0.7415 -0.3535
  100MOL   C11831996   0.793   4.004   2.997  0.1259  0.0161  0.0420
  100MOL   C11931997   0.878   4.350   2.741  0.4181 -0.1638 -0.3053
  100MOL   H12031998   1.078   4.297   2.761 -0.3751 -1.9081  0.4225
  100MOL   H12131999   0.949   4.077   2.770 -0.3773 -0.6470  0.4950
  100MOL   H12232000   1.102   4.093   2.859 -0.0066 -2.0051 -1.1884
  100MOL   H12332001   0.994   4.034   3.069 -0.5369  2.7712 -0.1648
  100MOL   H12432002   0.976   3.900   2.968 -0.2556  0.2924  0.6706
  100MOL   H12532003   0.727   3.990   2.911  0.0025  0.8536 -0.0036
  100MOL   H12632004   0.758   4.099   3.036  0.5209  0.7947 -1.4565
  100MOL   H12732005   0.762   3.936   3.076  0.6336  0.2036  0.4039
  100MOL   H12832006   0.842   4.250   2.721  1.7325 -0.8947  0.9067
  100MOL   H12932007   0.801   4.407   2.793  1.3295 -1.0554  2.0657
  100MOL   C13032008   0.917   4.402   2.600 -0.0568  0.2928  0.5598
  100MOL   O13132009   0.992   4.308   2.522  0.4287 -0.2891  0.0027
  100MOL   C13232010   1.098   4.363   2.444 -0.1476 -0.1298  0.1429
  100MOL   C13332011   1.189   4.253   2.397  0.4975 -1.2305  0.8417
  100MOL   C13432012   1.239   4.163   2.511 -0.2724  0.1091 -0.1795
  100MOL   C13532013   0.807   4.478   2.509 -0.6337  0.4896 -0.3500
  100MOL   H13632014   0.989   4.478   2.632  1.8323 -1.1219 -0.2756
  100MOL   H13732015   1.066   4.429   2.364  0.5007  0.0278  0.0061
  100MOL   H13832016   1.152   4.440   2.501  0.9612 -0.3091 -0.6422
  100MOL   H13932017   1.270   4.296   2.338 -0.9860  0.2804 -0.1317
  100MOL   H14032018   1.128   4.202   2.323  0.6368 -0.7587  0.4010
  100MOL   H14132019   1.299   4.083   2.467 -0.8698  0.5938 -1.8795
  100MOL   H14232020   1.159   4.120   2.572 -1.0445  0.5842 -0.8566
  100MOL   H14332021   1.315   4.217   2.568 -1.1428  0.2438  0.8646
  100MOL   H14432022   0.774   4.564   2.567  0.5252  1.7802 -1.5952
  100MOL   H14532023   0.854   4.510   2.416 -0.8045  0.3922 -0.4693
  100MOL   C14632024   0.684   4.390   2.463  0.6226 -0.1282  0.0238
  100MOL   O14732025   0.601   4.364   2.574  0.5169  0.4300 -0.1926
  100MOL   C14832026   0.541   4.238   2.565  0.3136 -0.0389 -0.0209
  100MOL   C14932027   0.466   4.211   2.693 -0.0922  0.1780 -0.0206
  100MOL   C15032028   0.551   4.223   2.823  0.3391  0.1841  0.1715
  100MOL   C15132029   0.598   4.463   2.354 -0.2560  0.1264  0.6047
  100MOL   H15232030   0.715   4.299   2.412  1.5760  2.0541 -3.5117
  100MOL   H15332031   0.467   4.248   2.486 -0.4191  1.0960  0.7971
  100MOL   H15432032   0.607   4.152   2.558 -0.2982 -0.6393  1.4664
  100MOL   H15532033   0.426   4.110   2.687 -1.4584  0.8219 -3.0725
  100MOL   H15632034   0.379   4.277   2.703 -0.9510 -0.9507  0.1092
  100MOL   H15732035   0.503   4.179   2.911 -0.4165  1.3064  0.3281
  100MOL   H15832036   0.559   4.331   2.840  0.4236 -0.0250  1.5624
  100MOL   H15932037   0.653   4.188   2.809  1.1041  1.1825  2.8879
  100MOL   H16032038   0.500   4.415   2.355  0.0872 -0.5804  1.3337
  100MOL   H16132039   0.572   4.563   2.390 -1.6051 -0.6410  1.8311
  100MOL   C16232040   0.649   4.466   2.207  0.0114 -0.2187 -0.7182
  100MOL   O16332041   0.749   4.572   2.209  0.7881 -0.0573  0.0268
  100MOL   C16432042   0.747   4.640   2.080  0.1535 -0.6107 -0.2206
  100MOL   C16532043   0.787   4.786   2.091  0.8533  0.6383  0.0219
  100MOL   C16632044   0.812   4.855   1.957 -0.1152 -0.2365  0.0119
  100MOL   C16732045   0.728   4.344   2.148  0.4983 -0.0291  0.0640
  100MOL   H16832046   0.558   4.491   2.152 -0.9638  1.8312  1.7488
  100MOL   H16932047   0.808   4.584   2.009  0.8231  0.0290 -0.1550
  100MOL   H17032048   0.642   4.637   2.049 -0.4296 -1.2436  1.7514
  100MOL   H17132049   0.885   4.794   2.138  0.6069  2.4331  0.2393
  100MOL   H17232050   0.713   4.837   2.151 -0.7982 -1.7733  0.1205
  100MOL   H17332051   0.726   4.868   1.891 -0.1760  3.2058  0.6749
  100MOL   H17432052   0.884   4.800   1.896 -1.2058 -0.8585 -0.7266
  100MOL   H17532053   0.853   4.956   1.960  0.0563 -0.3353  1.0025
  100MOL   H17632054   0.755   4.361   2.044  1.3975 -1.0580  0.1218
  100MOL   H17732055   0.817   4.331   2.210  0.8692  0.9179 -0.2625
  100MOL   C17832056   0.653   4.213   2.147  0.5967  0.2362 -0.5859
  100MOL   O17932057   0.540   4.239   2.063  0.2084  0.4736 -0.0693
  100MOL   C18032058   0.430   4.151   2.075  0.5935 -0.2298  0.6708
  100MOL   C18132059   0.328   4.190   1.965 -0.3466  0.5018  0.5694
  100MOL   C18232060   0.281   4.332   1.964  0.0062 -0.0384 -0.0259
  100MOL   C18332061   0.727   4.100   2.071  0.1373 -0.2742 -0.1731
  100MOL   H18432062   0.605   4.185   2.241 -1.3604 -0.0484 -1.6412
  100MOL   H18532063   0.454   4.045   2.064 -0.0168 -0.2237 -0.8590
  100MOL   H18632064   0.377   4.170   2.168 -1.8699 -0.0412 -0.7236
  100MOL   H18732065   0.241   4.124   1.970 -1.2331  1.4963 -1.2006
  100MOL   H18832066   0.365   4.161   1.867 -2.6214 -1.8881  0.3441
  100MOL   H18932067   0.218   4.343   1.876  0.9352  3.2031 -0.3643
  100MOL   H19032068   0.356   4.410   1.950 -0.8292  0.5978 -1.0233
  100MOL   H19132069   0.231   4.346   2.060  0.8111  1.9953  0.1345
  100MOL   H19232070   0.661   4.022   2.033 -1.4164  0.4931  0.8856
  100MOL   H19332071   0.784   4.150   1.992  0.3172  0.3645  0.3638
  100MOL   C19432072   0.828   4.036   2.167 -0.2681 -0.0878  0.2571
  100MOL   O19532073   0.754   3.979   2.266 -0.1907 -0.0441 -0.0877
  100MOL   C19632074   0.810   3.967   2.392  0.0389  0.0190 -0.4767
  100MOL   C19732075   0.726   3.873   2.486 -0.2485  0.1457 -0.9207
  100MOL   C19832076   0.759   3.900   2.634  0.2197 -0.6480 -0.2515
  100MOL   C19932077   0.906   3.923   2.104  0.0289  0.4227  0.1023
  100MOL   H20032078   0.898   4.109   2.208  0.3248 -0.4509 -0.0903
  100MOL   H20132079   0.918   3.950   2.387  0.0887  1.0716 -4.5460
  100MOL   H20232080   0.805   4.070   2.428  0.8698 -0.3700  0.8070
  100MOL   H20332081   0.736   3.766   2.469 -1.5515  0.2917 -2.8282
  100MOL   H20432082   0.620   3.897   2.472 -0.7817 -1.5822 -0.0500
  100MOL   H20532083   0.866   3.892   2.654  0.3923  0.5771 -0.6834
  100MOL   H20632084   0.696   3.837   2.697 -1.8218  1.0858 -0.5029
  100MOL   H20732085   0.733   4.002   2.661 -1.0677 -0.9452 -0.3452
  100MOL   H20832086   0.945   3.855   2.179  1.2046  1.8998  0.8550
  100MOL   H20932087   0.839   3.856   2.050  1.5496  0.4538 -1.9069
  100MOL   C21032088   1.017   3.956   1.998 -0.5408  0.6734 -0.5670
  100MOL   O21132089   1.118   4.038   2.063 -0.6573  0.0936 -0.4237
  100MOL   C21232090   1.216   4.108   1.980  0.0523 -0.0381  0.6276
  100MOL   C21332091   1.317   4.189   2.067  0.3517  0.3351  0.2753
  100MOL   C21432092   1.406   4.108   2.163  0.1123 -0.4292 -1.2635
  100MOL   C21532093   1.072   3.825   1.932  0.7952 -0.1515  0.1889
  100MOL   H21632094   0.988   4.017   1.912 -0.9503 -1.9757 -2.3392
  100MOL   H21732095   1.275   4.038   1.919  1.4122  1.8125 -0.2222
  100MOL   H21832096   1.158   4.171   1.912  3.5636  2.3979 -0.2196
  100MOL   H21932097   1.272   4.271   2.123 -1.1913  0.6234 -1.3347
  100MOL   H22032098   1.391   4.239   2.005 -1.0111 -0.5229 -2.1258
  100MOL   H22132099   1.456   4.027   2.111 -0.0408  0.2193 -2.4218
  100MOL   H22232100   1.338   4.059   2.233  2.2038  1.5347  2.2675
  100MOL   H22332101   1.474   4.170   2.221  0.3289 -0.8365 -1.0758
  100MOL   H22432102   1.178   3.815   1.952  1.0929  1.0325 -0.7802
  100MOL   H22532103   1.017   3.743   1.979  0.6919 -0.0120  0.3127
  100MOL   C22632104   1.052   3.825   1.789 -0.2063 -1.0235 -0.1549
  100MOL   O22732105   1.148   3.915   1.740  0.5449 -0.4392 -0.0804
  100MOL   C22832106   1.116   3.985   1.621 -0.2659  0.2390 -0.6415
  100MOL   C22932107   1.213   4.103   1.599  0.1484  0.2353  0.3035
  100MOL   C23032108   1.206   4.159   1.458  0.3273  0.2291  0.7342
  100MOL   C23132109   1.074   3.685   1.711 -0.3348  0.1912 -0.1527
  100MOL   H23232110   0.952   3.864   1.769 -1.1128 -3.3018 -0.1870
  100MOL   H23332111   1.123   3.917   1.536 -1.7218 -0.4439 -0.2294
  100MOL   H23432112   1.013   4.019   1.619 -0.5640 -0.5962  0.2105
  100MOL   H23532113   1.314   4.065   1.611 -0.2370 -0.7392  0.4803
  100MOL   H23632114   1.191   4.175   1.678 -1.4042  0.2214 -0.1055
  100MOL   H23732115   1.290   4.228   1.455  1.0147 -0.6392 -0.4868
  100MOL   H23832116   1.105   4.199   1.446  0.5807  0.4458 -0.8143
  100MOL   H23932117   1.222   4.087   1.378 -0.9842  0.5165  0.1957
  100MOL   H24032118   1.064   3.695   1.603 -0.5604 -2.7795 -0.4353
  100MOL   H24132119   1.179   3.660   1.727 -0.5032 -0.1572  0.4427
  100MOL   C24232120   0.986   3.575   1.762 -0.1222 -0.4472 -0.1755
  100MOL   O24332121   0.849   3.628   1.743 -0.2715 -0.4385 -0.2024
  100MOL   C24432122   0.748   3.572   1.830 -0.1111  0.1365 -0.2184
  100MOL   C24532123   0.633   3.668   1.815  0.5538  0.0389  0.3743
  100MOL   C24632124   0.557   3.641   1.682  0.0086  0.4417  0.4749
  100MOL   C24732125   1.009   3.438   1.701  0.6816  0.5219  0.0485
  100MOL   H24832126   1.006   3.556   1.867  0.4726  1.5193  0.0895
  100MOL   H24932127   0.728   3.471   1.793 -1.4005 -0.3801  1.7839
  100MOL   H25032128   0.775   3.574   1.935  0.2577 -1.5169 -0.2664
  100MOL   H25132129   0.664   3.771   1.833  1.7093 -0.2454  0.1001
  100MOL   H25232130   0.559   3.643   1.891  1.0089  0.7529  1.0518
  100MOL   H25332131   0.466   3.701   1.680  1.1658  2.2204  0.5963
  100MOL   H25432132   0.526   3.536   1.676  0.2207  0.4074 -0.0279
  100MOL   H25532133   0.610   3.672   1.593  0.8650  3.6486  2.0411
  100MOL   H25632134   0.915   3.385   1.713 -0.5036  2.6395  0.4435
  100MOL   H25732135   1.015   3.445   1.592  0.2455  0.0473 -0.0110
  100MOL   C25832136   1.139   3.369   1.746  0.5855 -0.0421 -0.2683
  100MOL   O25932137   1.138   3.365   1.888  0.2234  0.5939  0.0520
  100MOL   C26032138   1.264   3.351   1.950  0.2255  0.1410  0.6258
  100MOL   C26132139   1.239   3.365   2.109 -0.2214 -0.5311  0.3307
  100MOL   C26232140   1.174   3.497   2.142 -0.0128 -1.0158  0.1354
  100MOL   C26332141   1.144   3.232   1.674 -0.0358  0.0924  0.2985
  100MOL   H26432142   1.224   3.431   1.719  0.9374 -0.4752 -0.1569
  100MOL   H26532143   1.315   3.256   1.938 -1.4670 -0.8381  1.0159
  100MOL   H26632144   1.329   3.429   1.911 -2.1800  1.7252 -0.3845
  100MOL   H26732145   1.331   3.374   2.166  0.4194  0.2065 -0.7955
  100MOL   H26832146   1.188   3.282   2.158  0.0806 -1.2402 -0.5425
  100MOL   H26932147   1.068   3.487   2.117  0.5757 -2.5510 -1.8311
  100MOL   H27032148   1.223   3.593   2.121 -0.0672 -0.7415  1.2380
  100MOL   H27132149   1.165   3.495   2.251  0.2595 -1.9808  0.1370
  100MOL   H27232150   1.189   3.158   1.740  0.9150  0.4947  0.1048
  100MOL   H27332151   1.046   3.184   1.676  0.8471 -1.7006  0.9184
  100MOL   C27432152   1.202   3.241   1.535  0.7931  0.1639  0.1719
  100MOL   O27532153   1.342   3.263   1.556  0.1570  0.4489  0.5304
  100MOL   C27632154   1.397   3.365   1.470  0.3417 -0.2275 -0.0754
  100MOL   C27732155   1.540   3.386   1.524 -0.5669  0.3304  0.6021
  100MOL   C27832156   1.536   3.423   1.670  0.2252  0.1332  0.6909
  100MOL   C27932157   1.197   3.106   1.462  0.3895 -0.6366  0.2611
  100MOL   H28032158   1.147   3.311   1.473 -1.2384 -1.0739  0.5124
  100MOL   H28132159   1.390   3.336   1.365  0.7473 -1.7962  0.3076
  100MOL   H28232160   1.334   3.452   1.484  0.3613 -0.5247  1.9267
  100MOL   H28332161   1.594   3.458   1.463  0.8812 -0.8853  0.3924
  100MOL   H28432162   1.613   3.305   1.518 -2.4931 -1.5320  1.6456
  100MOL   H28532163   1.631   3.465   1.702 -0.8755  0.6346  3.3895
  100MOL   H28632164   1.524   3.332   1.729 -0.4972 -0.5688 -0.5022
  100MOL   H28732165   1.462   3.500   1.688 -0.6962 -0.3602 -0.8211
  100MOL   H28832166   1.258   3.119   1.372  1.0122 -2.0857  0.4570
  100MOL   H28932167   1.251   3.036   1.526  1.3444  0.0771  0.2429
  100MOL   C29032168   1.051   3.045   1.435 -0.5146 -0.5414  0.0361
  100MOL   O29132169   0.966   3.141   1.370  0.1262 -0.2652 -0.2174
  100MOL   C29232170   0.827   3.148   1.398  0.0847  0.1581  0.3036
  100MOL   C29332171   0.761   3.281   1.345  0.2484 -0.0407  0.3347
  100MOL   C29432172   0.617   3.309   1.399  0.0208  0.2648  0.5029
  100MOL   C29532173   1.055   2.922   1.344 -0.6332  0.3371 -0.4920
  100MOL   H29632174   1.011   3.014   1.531 -2.2388  0.8307 -0.2160
  100MOL   H29732175   0.783   3.057   1.357 -0.5828  0.7177 -0.2275
  100MOL   H29832176   0.821   3.151   1.507 -2.1441  2.5640  0.1481
  100MOL   H29932177   0.759   3.298   1.237  3.2365 -1.1212  0.0740
  100MOL   H30032178   0.820   3.365   1.381  0.6829  0.7299 -2.0528
  100MOL   H30132179   0.553   3.223   1.377 -1.2673  0.1645  4.2641
  100MOL   H30232180   0.575   3.402   1.362  0.9464  0.5449  0.1342
  100MOL   H30332181   0.616   3.316   1.508  1.6304  0.0018  0.5511
  100MOL   H30432182   0.953   2.890   1.322  0.0760 -2.5072  0.2263
  100MOL   H30532183   1.104   2.944   1.249 -0.0181 -0.5727 -0.3840
  100MOL   C30632184   1.140   2.803   1.393  0.9437 -0.1499 -0.4199
  100MOL   O30732185   1.071   2.742   1.501 -0.2295  0.6845 -0.3604
  100MOL   C30832186   1.144   2.690   1.607  0.6856 -1.1092  0.1782
  100MOL   C30932187   1.035   2.627   1.687  0.3386  0.1208  0.4663
  100MOL   C31032188   1.066   2.587   1.831  0.1781 -0.2515 -0.4846
  100MOL   C31132189   1.155   2.702   1.282  0.3759  0.5400  0.3231
  100MOL   H31232190   1.241   2.839   1.415  0.2816  0.8394  1.1026
  100MOL   H31332191   1.223   2.621   1.579 -0.2686 -1.7939 -0.8698
  100MOL   H31432192   1.183   2.781   1.653  0.8478 -0.9523 -0.2651
  100MOL   H31532193   1.026   2.531   1.636 -0.1341  1.0951 -1.3088
  100MOL   H31632194   0.949   2.695   1.692  0.3074 -0.0246  2.2413
  100MOL   H31732195   1.165   2.542   1.833 -0.0790 -0.8237 -0.3347
  100MOL   H31832196   1.004   2.504   1.865  0.0362 -0.4074 -1.1189
  100MOL   H31932197   1.052   2.676   1.892 -0.6995 -2.0466  2.0143
  100MOL   H32032198   1.068   2.638   1.267  0.8656 -0.4832  1.8011
  100MOL   H32132199   1.168   2.749   1.184 -2.4967 -0.3065 -0.5313
  100MOL   H32232200   1.236   2.635   1.309  0.2921  0.5381  0.5649
  101MOL     C132201   7.108   6.952   0.332 -0.3916  1.0761  0.4251
  101MOL     O232202   7.176   6.993   0.456  0.0624  0.3362 -0.2368
  101MOL     C332203   7.312   6.991   0.447 -0.3582  0.1719  0.5056
  101MOL     C432204   7.382   7.012   0.588  0.4126  0.1932  0.3646
  101MOL     C532205   7.332   6.920   0.706 -0.2621 -0.3719  0.0677
  101MOL     C632206   6.965   7.004   0.327 -0.8224  0.1018 -0.2819
  101MOL     H732207   7.115   6.844   0.321 -0.4175  1.0367  0.7787
  101MOL     H832208   7.337   6.893   0.407  0.0158  0.1391  0.8105
  101MOL     H932209   7.350   7.059   0.371  0.7113  1.0932  1.8302
  101MOL    H1032210   7.368   7.114   0.623  1.4767  0.3133  0.4506
  101MOL    H1132211   7.487   6.990   0.568  0.2976  0.7450 -0.8329
  101MOL    H1232212   7.337   6.824   0.654 -0.3988 -0.4754  0.2475
  101MOL    H1332213   7.229   6.935   0.738 -0.8350  0.7189 -2.1422
  101MOL    H1432214   7.400   6.917   0.791 -1.3799  1.2759  1.0341
  101MOL    H1532215   6.911   6.958   0.410  1.2497  1.8580  2.1272
  101MOL    H1632216   6.961   7.110   0.355 -1.1257 -0.2561  1.0345
  101MOL    H1732217   7.158   6.991   0.243 -0.6759  0.1795 -0.1357
  101MOL    C1832218   6.895   6.990   0.194 -0.2949 -0.2990  0.3813
  101MOL    O1932219   6.983   7.047   0.102  0.2782  0.0923  0.3514
  101MOL    C2032220   6.975   7.186   0.088 -0.4429  0.1259  0.2920
  101MOL    C2132221   7.092   7.231   0.011 -0.2836 -0.5530 -0.5026
  101MOL    C2232222   7.094   7.363   7.775  0.4097  0.3570 -0.1639
  101MOL    C2332223   6.882   6.846   0.145  0.2280  0.3879 -0.0513
  101MOL    H2432224   6.795   7.033   0.199 -0.2974 -0.5338  3.0796
  101MOL    H2532225   6.887   7.198   0.024 -0.3137 -1.4754 -0.2128
  101MOL    H2632226   6.964   7.255   0.172 -1.8088  1.2445 -0.7592
  101MOL    H2732227   7.107   7.151   7.766  2.2410 -0.2359 -0.4049
  101MOL    H2832228   7.179   7.228   0.077 -0.6187  0.5651 -0.0037
  101MOL    H2932229   7.079   7.442   0.020 -2.0278 -0.8937  0.7199
  101MOL    H3032230   7.004   7.364   7.714  0.2434 -2.3338 -0.0374
  101MOL    H3132231   7.179   7.379   7.708 -0.2053  0.2903 -0.9661
  101MOL    H3232232   6.839   6.855   0.045 -1.3470 -2.2890  0.3347
  101MOL    H3332233   6.978   6.794   0.140  0.5014  0.2067  4.6695
  101MOL    C3432234   6.789   6.762   0.232  0.1776 -0.5379 -0.0828
  101MOL    O3532235   6.669   6.845   0.255 -0.5555 -0.0495 -0.2905
  101MOL    C3632236   6.603   6.809   0.378  0.1214  0.4405 -0.3764
  101MOL    C3732237   6.481   6.909   0.392  0.4750  0.4386  0.5429
  101MOL    C3832238   6.537   7.051   0.394  0.0475 -0.6800 -0.0405
  101MOL    C3932239   6.751   6.629   0.168  1.2547 -0.4455 -0.2084
  101MOL    H4032240   6.848   6.747   0.323  0.7075  0.6273 -0.2272
  101MOL    H4132241   6.565   6.707   0.389  0.1413  0.7245  3.0625
  101MOL    H4232242   6.652   6.831   0.473  0.6277  0.7961 -0.7210
  101MOL    H4332243   6.429   6.888   0.486 -0.6217 -0.1956 -0.1937
  101MOL    H4432244   6.408   6.899   0.312  0.6907 -0.1942  0.4206
  101MOL    H4532245   6.454   7.121   0.401 -0.9552 -1.6613 -1.6362
  101MOL    H4632246   6.587   7.065   0.298 -1.6032 -0.5190 -0.8941
  101MOL    H4732247   6.604   7.062   0.479 -0.3136 -0.4851  0.2209
  101MOL    H4832248   6.665   6.586   0.218  0.6700  0.4361 -0.4509
  101MOL    H4932249   6.708   6.649   0.070 -2.6265 -3.7923  0.6988
  101MOL    C5032250   6.872   6.532   0.159 -0.2444  0.2301  0.4879
  101MOL    O5132251   6.933   6.524   0.294 -0.1036 -0.0926 -0.3688
  101MOL    C5232252   7.076   6.547   0.299 -0.6239 -0.8195  0.2276
  101MOL    C5332253   7.126   6.555   0.443  0.0032 -0.4373 -0.3763
  101MOL    C5432254   7.278   6.554   0.456 -0.4816 -0.1036  0.2213
  101MOL    C5532255   6.849   6.387   0.102 -0.2838 -0.1594 -0.3537
  101MOL    H5632256   6.932   6.574   0.079 -2.4340 -0.3991 -1.5411
  101MOL    H5732257   7.124   6.461   0.252 -1.2487 -0.7861 -0.4835
  101MOL    H5832258   7.100   6.636   0.241  2.3687 -0.4541  1.9668
  101MOL    H5932259   7.092   6.475   0.508 -0.0150  0.3771  0.6282
  101MOL    H6032260   7.093   6.642   0.500 -0.4472 -0.3853 -0.7181
  101MOL    H6132261   7.316   6.635   0.395 -2.3904  2.9731  2.9409
  101MOL    H6232262   7.319   6.459   0.423 -3.5818 -1.4345  0.0160
  101MOL    H6332263   7.308   6.578   0.558  0.6338 -0.2887 -0.0558
  101MOL    H6432264   6.948   6.340   0.107 -0.9737 -1.6734 -0.5426
  101MOL    H6532265   6.788   6.314   0.155  1.6038 -1.1989  0.4706
  101MOL    C6632266   6.803   6.402   7.784 -0.9179 -0.1561  0.8063
  101MOL    O6732267   6.890   6.476   7.697 -0.0718 -0.2792 -0.8793
  101MOL    C6832268   6.831   6.565   7.605  0.7084  0.3772 -0.2710
  101MOL    C6932269   6.946   6.622   7.517  0.4616 -0.2268  0.0896
  101MOL    C7032270   6.895   6.689   7.386 -0.1798 -0.5166 -0.1581
  101MOL    C7132271   6.790   6.267   7.726  1.2272 -0.7049  0.1879
  101MOL    H7232272   6.706   6.451   7.781 -0.1868  1.2736  0.2046
  101MOL    H7332273   6.748   6.526   7.547  0.1127 -0.3328  1.0439
  101MOL    H7432274   6.792   6.646   7.667  1.5822  1.3942 -1.0289
  101MOL    H7532275   7.019   6.551   7.478 -0.2113 -0.5869 -0.5329
  101MOL    H7632276   6.995   6.690   7.587 -2.6778  1.4894  0.7060
  101MOL    H7732277   6.984   6.721   7.332 -0.8476  0.6933 -0.5551
  101MOL    H7832278   6.832   6.772   7.419  0.3331 -0.3228  0.3463
  101MOL    H7932279   6.839   6.619   7.325  0.4506  0.2922 -1.6907
  101MOL    H8032280   6.889   6.228   7.703  2.2396  2.7145 -1.5173
  101MOL    H8132281   6.758   6.184   7.789 -0.2004 -0.1751  0.1847
  101MOL    C8232282   6.695   6.258   7.601 -0.2654 -0.0435  0.0515
  101MOL    O8332283   6.760   6.194   7.494 -0.5135 -0.6217  0.1745
  101MOL    C8432284   6.823   6.279   7.394 -0.4895  0.1340 -0.6963
  101MOL    C8532285   6.903   6.202   7.292  0.3582 -0.2317  0.1454
  101MOL    C8632286   7.017   6.110   7.335 -0.0163  0.0246 -0.7981
  101MOL    C8732287   6.569   6.172   7.625 -0.0898 -0.6719 -0.0513
  101MOL    H8832288   6.660   6.354   7.564  1.8140 -0.2748 -2.6666
  101MOL    H8932289   6.744   6.331   7.341 -0.9233  1.3693  1.1178
  101MOL    H9032290   6.891   6.348   7.444  0.8375 -2.1106  0.7240
  101MOL    H9132291   6.929   6.275   7.217  0.1750  0.0934  0.3979
  101MOL    H9232292   6.836   6.135   7.238  0.6558  0.4276 -1.0430
  101MOL    H9332293   6.997   6.017   7.388 -1.3213  2.3157  2.9621
  101MOL    H9432294   7.100   6.159   7.385 -0.1155 -0.4277 -0.1779
  101MOL    H9532295   7.066   6.063   7.250 -0.1323 -0.7110 -0.4628
  101MOL    H9632296   6.494   6.183   7.546 -2.2787 -0.2250  2.0268
  101MOL    H9732297   6.600   6.068   7.634 -0.0451 -0.8627 -2.1766
  101MOL    C9832298   6.491   6.199   7.754  0.4911 -0.4302 -0.6728
  101MOL    O9932299   6.424   6.325   7.738 -0.6631  0.3671 -0.2921
  101MOL   C10032300   6.402   6.401   0.030 -0.2686 -0.0322  0.6618
  101MOL   C10132301   6.385   6.550   7.815  0.3149 -0.2517  0.2143
  101MOL   C10232302   6.382   6.649   0.110  0.2700  1.1734  0.6032
  101MOL   C10332303   6.381   6.094   7.784  0.1134  0.0974 -0.1978
  101MOL   H10432304   6.560   6.212   0.010 -1.9613  1.6217  1.1342
  101MOL   H10532305   6.320   6.360   0.088 -1.2169  2.2604  0.9989
  101MOL   H10632306   6.488   6.393   0.097 -1.0297 -0.2368  1.6348
  101MOL   H10732307   6.301   6.568   7.748  1.1596 -0.2307 -0.8535
  101MOL   H10832308   6.465   6.569   7.744  0.4098 -1.8797 -0.1339
  101MOL   H10932309   6.291   6.708   0.101 -0.7934 -0.4041  0.9756
  101MOL   H11032310   6.473   6.709   0.102  0.7559  0.2623 -1.1568
  101MOL   H11132311   6.391   6.590   0.201  1.5363 -0.6024 -0.6484
  101MOL   H11232312   6.321   6.133   0.038  0.8566  1.8346 -0.4562
  101MOL   H11332313   6.309   6.086   7.702  1.2557 -0.4940 -1.1536
  101MOL   C11432314   6.431   5.950   7.808 -0.1771 -0.5244  0.1705
  101MOL   O11532315   6.490   5.947   0.111  0.0449  0.3119 -0.4040
  101MOL   C11632316   6.595   5.851   0.126  0.7577 -0.5185  0.9405
  101MOL   C11732317   6.660   5.864   0.260 -0.8157  0.3828 -0.7169
  101MOL   C11832318   6.579   5.811   0.379  0.1875 -0.0403  0.3852
  101MOL   C11932319   6.328   5.832   7.794 -0.6768 -0.3228 -0.7359
  101MOL   H12032320   6.508   5.922   7.736 -0.0180 -0.6121  0.3743
  101MOL   H12132321   6.564   5.748   0.112  0.2656 -0.0824 -1.4412
  101MOL   H12232322   6.666   5.876   0.048 -0.8327 -0.2661 -0.4722
  101MOL   H12332323   6.674   5.970   0.281 -0.7936  0.3399 -0.5105
  101MOL   H12432324   6.764   5.829   0.262 -0.5481  1.1393 -1.3718
  101MOL   H12532325   6.580   5.702   0.374 -1.9166 -0.0897  0.6864
  101MOL   H12632326   6.477   5.849   0.373  0.0723 -0.3551  0.3379
  101MOL   H12732327   6.630   5.856   0.464 -1.9997  1.0713  1.1497
  101MOL   H12832328   6.373   5.734   7.811  0.2916 -0.0091 -1.4401
  101MOL   H12932329   6.248   5.847   0.038  0.0867 -0.2349  0.1153
  101MOL   C13032330   6.255   5.814   7.646  0.7512 -0.5535 -0.7512
  101MOL   O13132331   6.370   5.792   7.559 -0.1252  0.0897  0.3847
  101MOL   C13232332   6.382   5.887   7.458  0.1145  0.1568 -0.7456
  101MOL   C13332333   6.504   5.859   7.367 -0.7894  0.1711  0.0365
  101MOL   C13432334   6.640   5.859   7.432  0.1614  0.0549  0.3028
  101MOL   C13532335   6.177   5.683   7.633 -0.5867 -0.6274 -0.6715
  101MOL   H13632336   6.190   5.901   7.631  0.3114 -0.7150  0.1420
  101MOL   H13732337   6.295   5.875   7.394 -0.8174 -0.2828  0.5714
  101MOL   H13832338   6.393   5.987   7.501 -0.1305  0.1155 -0.5809
  101MOL   H13932339   6.511   5.932   7.287 -1.0636 -1.7727 -1.8016
  101MOL   H14032340   6.485   5.764   7.316 -0.1688 -0.1156  0.3358
  101MOL   H14132341   6.643   5.863   7.541  2.0883 -0.8434  0.2886
  101MOL   H14232342   6.707   5.940   7.402 -0.2583  0.5345  0.6571
  101MOL   H14332343   6.697   5.770   7.406 -0.2185  0.2309 -1.1916
  101MOL   H14432344   6.160   5.676   7.526  0.3369 -1.0189 -0.7972
  101MOL   H14532345   6.241   5.597   7.656  0.4262  0.5376  1.0035
  101MOL   C14632346   6.050   5.665   7.713 -0.2753 -0.3136  0.3759
  101MOL   O14732347   6.087   5.670   0.025  0.0837 -0.4113  0.5668
  101MOL   C14832348   6.112   5.552   0.095 -0.0518 -0.2641  0.2825
  101MOL   C14932349   6.218   5.576   0.200 -0.2707 -0.3924  0.4351
  101MOL   C15032350   6.173   5.686   0.302 -0.1589  0.2838 -0.6852
  101MOL   C15132351   5.943   5.771   7.683 -0.0054  0.6033 -0.4288
  101MOL   H15232352   6.009   5.566   7.695  0.8982 -0.7918  0.3264
  101MOL   H15332353   6.019   5.521   0.144 -0.3107  0.1072  0.0283
  101MOL   H15432354   6.154   5.478   0.027  1.1313  1.2092 -0.5986
  101MOL   H15532355   6.312   5.606   0.154 -0.5127  1.7144  1.2591
  101MOL   H15632356   6.232   5.484   0.257 -3.7217 -0.7673  0.8295
  101MOL   H15732357   6.079   5.658   0.350  1.6296  0.1499  2.8799
  101MOL   H15832358   6.166   5.787   0.262 -0.1855  1.5140  2.3727
  101MOL   H15932359   6.241   5.700   0.386 -2.8946 -2.4207  2.0993
  101MOL   H16032360   5.952   5.851   7.756 -0.6815 -0.1326  0.4721
  101MOL   H16132361   5.964   5.815   7.585 -1.2590 -1.5885 -1.7471
  101MOL   C16232362   5.796   5.707   7.700 -0.1822 -0.4434  0.6268
  101MOL   O16332363   5.703   5.814   7.718 -0.4611  0.2759  0.3502
  101MOL   C16432364   5.658   5.816   0.024 -0.5445 -0.1482 -0.4155
  101MOL   C16532365   5.555   5.930   0.034 -0.0541  0.1186 -0.1780
  101MOL   C16632366   5.421   5.899   7.799  0.0486  0.0015  0.6261
  101MOL   C16732367   5.742   5.655   7.562  0.0202  0.2161 -0.1933
  101MOL   H16832368   5.795   5.626   7.772  0.3558 -0.9267  0.1016
  101MOL   H16932369   5.622   5.725   0.072 -1.3757  0.0411 -0.6650
  101MOL   H17032370   5.749   5.850   0.072  0.0586  1.5106 -2.6407
  101MOL   H17132371   5.599   6.015   7.808 -0.7148  0.6780  0.1605
  101MOL   H17232372   5.539   5.970   0.134  0.8649  3.7690 -1.4003
  101MOL   H17332373   5.452   5.868   7.699  2.6915  0.9626  1.0892
  101MOL   H17432374   5.353   5.984   7.793  3.6717  3.0903  0.8343
  101MOL   H17532375   5.380   5.817   0.030 -0.4358 -0.4583 -0.3340
  101MOL   H17632376   5.633   5.657   7.555 -0.0127  0.3123  0.3576
  101MOL   H17732377   5.779   5.722   7.485 -0.2195 -0.5093 -0.9550
  101MOL   C17832378   5.806   5.518   7.520 -0.0107  0.7145  0.2973
  101MOL   O17932379   5.767   5.435   7.623 -0.1194 -0.0389  0.6005
  101MOL   C18032380   5.831   5.310   7.641  0.2166  0.0900 -0.1422
  101MOL   C18132381   5.784   5.236   7.764 -0.3179 -0.2353 -0.0363
  101MOL   C18232382   5.638   5.206   7.754  0.0003  0.2103 -0.1375
  101MOL   C18332383   5.768   5.466   7.383 -0.0750 -0.5983  0.2138
  101MOL   H18432384   5.912   5.542   7.513  0.0609  0.9742  2.0119
  101MOL   H18532385   5.803   5.260   7.549  0.7377  2.1967 -1.4931
  101MOL   H18632386   5.939   5.324   7.633  0.0390  0.2074 -2.9636
  101MOL   H18732387   5.789   5.292   0.030 -0.5200 -1.2102  0.5593
  101MOL   H18832388   5.851   5.153   7.786  0.7904  0.7436  0.3713
  101MOL   H18932389   5.617   5.156   7.660 -0.4700  0.1082  0.0215
  101MOL   H19032390   5.578   5.296   7.769  1.0261  0.5666  2.2012
  101MOL   H19132391   5.601   5.137   0.002 -0.2280 -0.4913 -0.8791
  101MOL   H19232392   5.823   5.378   7.350 -0.2881 -0.3175 -0.8885
  101MOL   H19332393   5.662   5.442   7.389 -0.6630  1.4824 -1.3968
  101MOL   C19432394   5.770   5.569   7.266 -0.7183 -0.6578  0.4812
  101MOL   O19532395   5.909   5.600   7.239  0.0968  0.0375  0.1288
  101MOL   C19632396   5.933   5.727   7.178  0.3128  0.3100 -0.2372
  101MOL   C19732397   6.002   5.827   7.270  0.1602  0.5228 -0.4207
  101MOL   C19832398   6.043   5.949   7.196  0.7329 -0.5194 -0.0408
  101MOL   C19932399   5.700   5.516   7.139 -0.5395 -0.3609 -0.5428
  101MOL   H20032400   5.709   5.655   7.295  0.2102 -0.1440  0.9369
  101MOL   H20132401   5.992   5.715   7.087  0.2614 -2.1088  0.0255
  101MOL   H20232402   5.840   5.767   7.139  1.2553 -0.1587 -3.0772
  101MOL   H20332403   6.088   5.784   7.321 -0.4207  0.7944  0.8137
  101MOL   H20432404   5.933   5.858   7.349  0.1944  0.6679 -0.4477
  101MOL   H20532405   5.953   6.004   7.167  1.4353  0.2121 -0.8898
  101MOL   H20632406   6.090   5.908   7.106 -0.7583 -0.7206 -0.7420
  101MOL   H20732407   6.112   6.007   7.256  0.4781  1.3495 -1.4998
  101MOL   H20832408   5.606   5.472   7.173 -0.1740 -1.9519 -1.5200
  101MOL   H20932409   5.681   5.598   7.070 -1.5311 -0.4877 -0.4357
  101MOL   C21032410   5.772   5.409   7.062 -0.1043 -0.7228  0.1778
  101MOL   O21132411   5.719   5.288   7.104 -0.5917  0.6394  0.4747
  101MOL   C21232412   5.815   5.187   7.136 -0.1728 -0.4708 -0.2899
  101MOL   C21332413   5.781   5.047   7.079 -0.0635  0.1661  0.0879
  101MOL   C21432414   5.772   5.019   6.924 -0.8310 -0.0816 -0.1909
  101MOL   C21532415   5.762   5.417   6.905 -0.0475  0.6847 -0.5056
  101MOL   H21632416   5.875   5.419   7.097 -0.6565  0.0089  1.6161
  101MOL   H21732417   5.908   5.210   7.085 -0.4551 -1.3152 -1.1972
  101MOL   H21832418   5.820   5.176   7.244 -1.8207  1.1783 -0.0132
  101MOL   H21932419   5.687   5.021   7.127 -0.3019  0.1122 -0.4072
  101MOL   H22032420   5.851   4.974   7.121  2.0790  1.4591 -1.1158
  101MOL   H22132421   5.735   4.917   6.917  0.2315 -0.5161  0.4130
  101MOL   H22232422   5.867   5.037   6.874  0.4415 -1.5692  1.6203
  101MOL   H22332423   5.698   5.084   6.877 -0.5276  1.2998  1.1928
  101MOL   H22432424   5.774   5.316   6.865 -0.3854  0.1601  0.6746
  101MOL   H22532425   5.662   5.453   6.882 -0.5850 -1.2889 -1.3793
  101MOL   C22632426   5.859   5.509   6.827 -0.2466  1.1505 -0.0657
  101MOL   O22732427   5.838   5.649   6.856 -0.0252 -0.6908 -0.1552
  101MOL   C22832428   5.778   5.725   6.749 -0.5807  0.2503 -0.5339
  101MOL   C22932429   5.738   5.860   6.791 -0.2218 -0.0010 -0.1554
  101MOL   C23032430   5.849   5.937   6.855  0.1304  0.3203  0.3720
  101MOL   C23132431   6.010   5.486   6.857  0.4592 -0.3152 -0.1482
  101MOL   H23232432   5.846   5.492   6.720 -1.4664  1.9372 -0.0514
  101MOL   H23332433   5.853   5.741   6.672  1.3715  1.1363  1.4798
  101MOL   H23432434   5.691   5.671   6.711 -1.7961  0.4230  1.8942
  101MOL   H23532435   5.659   5.864   6.867 -0.5713  0.6409 -0.5400
  101MOL   H23632436   5.707   5.923   6.708 -0.3444 -0.7551 -0.6823
  101MOL   H23732437   5.822   6.039   6.884  0.2156  0.4847 -0.1262
  101MOL   H23832438   5.932   5.945   6.785  0.0401 -0.8196  0.1257
  101MOL   H23932439   5.901   5.885   6.935  0.8467 -0.2233 -0.4409
  101MOL   H24032440   6.061   5.569   6.808  0.0089  0.3897  0.5525
  101MOL   H24132441   6.035   5.496   6.963 -3.5557  1.1405  0.7560
  101MOL   C24232442   6.062   5.356   6.794  0.5160 -0.3718  0.1442
  101MOL   O24332443   6.068   5.372   6.654  0.1229 -0.1221 -0.3927
  101MOL   C24432444   6.038   5.261   6.568 -0.8508  0.3063 -0.4760
  101MOL   C24532445   6.055   5.316   6.428 -0.8842  0.3267  0.3164
  101MOL   C24632446   5.963   5.437   6.388 -0.3464 -0.5403  0.7166
  101MOL   C24732447   6.198   5.319   6.855 -0.1858  0.6748 -0.4979
  101MOL   H24832448   5.993   5.276   6.820  1.2447 -0.0694  3.1807
  101MOL   H24932449   6.107   5.179   6.586  0.5727  1.8384  1.2811
  101MOL   H25032450   5.934   5.236   6.592 -0.1342 -2.8911 -0.5994
  101MOL   H25132451   6.054   5.230   6.361  1.3321  2.3917 -2.5265
  101MOL   H25232452   6.159   5.348   6.417 -0.5430 -1.3435 -1.6852
  101MOL   H25332453   6.009   5.495   6.308 -1.8626  0.9601  0.8896
  101MOL   H25432454   5.944   5.506   6.470 -0.2548  0.2896  0.0522
  101MOL   H25532455   5.864   5.406   6.353 -1.1152  3.4244 -0.9362
  101MOL   H25632456   6.200   5.309   6.964  0.0756  1.6607 -0.4079
  101MOL   H25732457   6.235   5.223   6.819 -1.1457 -0.2164  0.8541
  101MOL   C25832458   6.320   5.414   6.819 -0.1756 -0.4342  0.2365
  101MOL   O25932459   6.300   5.535   6.885  0.1585  0.1088 -0.7940
  101MOL   C26032460   6.326   5.652   6.811 -0.2957 -0.0906  0.2707
  101MOL   C26132461   6.281   5.777   6.885  0.0677 -0.1867  0.2734
  101MOL   C26232462   6.350   5.817   7.013 -0.7635  0.0701  0.0528
  101MOL   C26332463   6.455   5.351   6.848  0.0470  0.3195 -0.7053
  101MOL   H26432464   6.310   5.427   6.711 -0.8405  1.5221  0.5081
  101MOL   H26532465   6.434   5.645   6.798 -0.4886 -3.8033  0.3457
  101MOL   H26632466   6.278   5.646   6.713 -1.3745  0.3090  0.7718
  101MOL   H26732467   6.181   5.749   6.920  0.4324 -1.0413  0.6557
  101MOL   H26832468   6.266   5.849   6.804  1.1511 -0.6145 -0.3188
  101MOL   H26932469   6.453   5.849   6.999 -1.1354  1.6698  0.8295
  101MOL   H27032470   6.335   5.729   7.077  0.3161  0.3474  0.7019
  101MOL   H27132471   6.296   5.897   7.063 -1.9611  0.8044 -2.3807
  101MOL   H27232472   6.453   5.253   6.800 -0.0296 -0.1457  0.2334
  101MOL   H27332473   6.538   5.401   6.798 -1.2489  0.0711 -3.1680
  101MOL   C27432474   6.493   5.334   7.001  0.3236 -0.4624 -0.2500
  101MOL   O27532475   6.537   5.203   7.035 -0.0359  0.0811  0.1152
  101MOL   C27632476   6.440   5.118   7.083  0.0103 -0.0439  0.1612
  101MOL   C27732477   6.502   4.978   7.092 -0.6472 -0.6817 -0.3129
  101MOL   C27832478   6.640   4.978   7.153 -0.2597  0.5618 -0.1834
  101MOL   C27932479   6.604   5.435   7.035  0.6542  0.9830  0.4701
  101MOL   H28032480   6.400   5.340   7.058  0.3718 -0.6714 -0.1512
  101MOL   H28132481   6.422   5.147   7.187  0.7262  1.7321 -0.1816
  101MOL   H28232482   6.355   5.122   7.016  0.2966 -1.3871 -0.2871
  101MOL   H28332483   6.515   4.938   6.991 -0.7017 -0.5667 -0.3658
  101MOL   H28432484   6.436   4.905   7.139 -1.9740 -0.0730 -1.1970
  101MOL   H28532485   6.686   4.881   7.134 -2.8771 -0.8204  0.2650
  101MOL   H28632486   6.643   4.990   7.261  0.3658  0.1820 -0.1594
  101MOL   H28732487   6.699   5.055   7.102 -0.0693 -2.0261 -4.1059
  101MOL   H28832488   6.676   5.431   6.954 -0.5400  1.1718 -0.6050
  101MOL   H28932489   6.550   5.529   7.041  1.1784  1.3095  0.1210
  101MOL   C29032490   6.687   5.421   7.158 -0.0950 -0.1662  0.1830
  101MOL   O29132491   6.774   5.538   7.168  0.5603  1.0560 -0.1116
  101MOL   C29232492   6.899   5.532   7.101  0.7109  0.2072 -0.0392
  101MOL   C29332493   6.980   5.659   7.142 -0.6710 -0.4605 -0.1103
  101MOL   C29432494   6.895   5.789   7.124  0.5302 -0.0330 -0.3237
  101MOL   C29532495   6.602   5.420   7.292 -0.1781  0.2762 -0.0683
  101MOL   H29632496   6.755   5.336   7.153  2.0190  1.4404  1.1848
  101MOL   H29732497   6.942   5.435   7.126 -3.4047 -1.4782  0.9135
  101MOL   H29832498   6.880   5.527   6.993  0.5793  1.3074 -0.0696
  101MOL   H29932499   7.067   5.665   7.076 -1.8887  0.2587 -1.7067
  101MOL   H30032500   7.008   5.655   7.247 -0.5922  1.8458 -0.0051
  101MOL   H30132501   6.828   5.791   7.210 -1.2503 -1.6881 -1.6341
  101MOL   H30232502   6.840   5.783   7.031  0.1412 -0.8040 -0.0494
  101MOL   H30332503   6.952   5.882   7.123  0.2676  0.2415  2.8080
  101MOL   H30432504   6.556   5.519   7.289 -1.9490 -0.5416 -0.4630
  101MOL   H30532505   6.523   5.350   7.265 -1.3576  1.5178  0.0903
  101MOL   C30632506   6.691   5.376   7.415 -0.0424 -0.2738  0.2718
  101MOL   O30732507   6.622   5.390   7.537 -0.1775 -0.3367  0.2678
  101MOL   C30832508   6.603   5.525   7.575 -0.3472 -0.4931 -0.3170
  101MOL   C30932509   6.573   5.523   7.728  0.0238 -0.2819  0.2222
  101MOL   C31032510   6.689   5.467   7.810  0.0330 -0.2389 -0.0705
  101MOL   C31132511   6.739   5.230   7.430 -0.0005 -0.3560 -0.2411
  101MOL   H31232512   6.778   5.442   7.418 -1.0826  1.1050  1.1686
  101MOL   H31332513   6.692   5.588   7.573 -0.2392 -0.6111  0.5129
  101MOL   H31432514   6.520   5.557   7.513 -1.3874 -2.1779  0.1411
  101MOL   H31532515   6.493   5.453   7.750 -0.9174  1.0246  1.0787
  101MOL   H31632516   6.552   5.623   7.768 -0.5755 -0.4705  0.3832
  101MOL   H31732517   6.785   5.514   7.789 -0.0560  0.8117  1.7548
  101MOL   H31832518   6.701   5.362   7.783 -0.8630 -0.1550 -0.7959
  101MOL   H31932519   6.674   5.474   0.090 -1.4296 -1.9866 -0.1380
  101MOL   H32032520   6.807   5.203   7.349 -0.5226 -2.7748  0.0825
  101MOL   H32132521   6.780   5.210   7.528 -0.0285  2.0613  0.2804
  101MOL   H32232522   6.654   5.162   7.420  0.7941 -1.3780 -0.0951
  102MOL     C132523   2.774   5.343   3.166 -0.3608  0.3286 -0.1548
  102MOL     O232524   2.691   5.237   3.202  0.1647  0.3433 -0.3775
  102MOL     C332525   2.726   5.168   3.318 -0.1282 -0.4967 -0.0463
  102MOL     C432526   2.690   5.238   3.454  0.2164  0.0516 -0.4954
  102MOL     C532527   2.538   5.220   3.487 -0.3972  1.0368 -0.1963
  102MOL     C632528   2.789   5.355   3.012  0.5489  0.1921  0.7306
  102MOL     H732529   2.876   5.328   3.201 -0.0738  2.3589 -0.0505
  102MOL     H832530   2.694   5.064   3.310  0.0691 -0.7789  2.6466
  102MOL     H932531   2.833   5.147   3.319  0.3435  1.7596 -0.9407
  102MOL    H1032532   2.716   5.344   3.459 -0.0477  0.0775  0.3527
  102MOL    H1132533   2.749   5.190   3.532 -0.3442 -0.5314 -0.4284
  102MOL    H1232534   2.478   5.273   3.414  0.8317  0.0436 -1.9617
  102MOL    H1332535   2.505   5.249   3.587 -3.1829 -1.3616 -0.3738
  102MOL    H1432536   2.506   5.117   3.495  3.9020 -0.5190 -1.4540
  102MOL    H1532537   2.846   5.445   2.991 -0.3175  0.0817 -2.3141
  102MOL    H1632538   2.851   5.271   2.981 -0.2693 -0.2305  0.2114
  102MOL    H1732539   2.736   5.438   3.205  1.1380  1.1212 -0.5920
  102MOL    C1832540   2.653   5.364   2.936 -0.0914 -0.4377  0.0926
  102MOL    O1932541   2.610   5.496   2.968 -0.1517  0.2473 -0.4024
  102MOL    C2032542   2.474   5.514   3.001  0.0299  0.3909 -0.8871
  102MOL    C2132543   2.443   5.657   2.993  0.0171  0.3523 -0.5140
  102MOL    C2232544   2.446   5.724   2.851 -0.1029 -0.0273  0.2976
  102MOL    C2332545   2.686   5.367   2.782 -1.2083 -0.1686  0.0473
  102MOL    H2432546   2.592   5.283   2.974  0.2889  0.1541  2.0084
  102MOL    H2532547   2.402   5.466   2.935 -0.1392 -0.3088 -0.2060
  102MOL    H2632548   2.455   5.470   3.099  0.1451  0.0954 -0.9963
  102MOL    H2732549   2.505   5.713   3.064 -0.6204 -0.2589  0.5327
  102MOL    H2832550   2.345   5.665   3.039 -0.7514 -0.7583 -1.9332
  102MOL    H2932551   2.543   5.756   2.813  1.3014 -3.2482  1.0635
  102MOL    H3032552   2.377   5.809   2.851  0.3727  0.3818  2.5136
  102MOL    H3132553   2.406   5.656   2.776 -0.4292  1.5945 -1.0564
  102MOL    H3232554   2.741   5.460   2.769 -1.9988  0.6331  2.1488
  102MOL    H3332555   2.750   5.280   2.765 -1.5136 -0.0388 -1.7723
  102MOL    C3432556   2.564   5.370   2.686  0.3065 -0.4525  0.4805
  102MOL    O3532557   2.604   5.424   2.559 -0.2164  0.4979 -0.0076
  102MOL    C3632558   2.605   5.567   2.554  0.7605  0.4191  0.4272
  102MOL    C3732559   2.714   5.598   2.458  0.2979 -0.6309 -0.9465
  102MOL    C3832560   2.857   5.550   2.496 -0.2167  0.1760 -0.3833
  102MOL    C3932561   2.542   5.219   2.653  0.5085 -0.2557 -0.0917
  102MOL    H4032562   2.473   5.415   2.727  0.4935 -1.0502  1.5746
  102MOL    H4132563   2.511   5.603   2.513  0.8931  1.4743  1.0332
  102MOL    H4232564   2.608   5.621   2.648 -1.5087 -2.4739  2.2616
  102MOL    H4332565   2.717   5.707   2.458  2.8096 -0.6840 -0.6467
  102MOL    H4432566   2.688   5.574   2.355  0.6089 -1.8045 -0.7491
  102MOL    H4532567   2.862   5.552   2.605  1.0179 -0.3898 -0.4187
  102MOL    H4632568   2.919   5.634   2.465 -1.3859  0.6887 -1.3701
  102MOL    H4732569   2.886   5.454   2.454 -0.7604 -0.6614  1.1180
  102MOL    H4832570   2.629   5.177   2.602  1.9929 -1.4288  3.3244
  102MOL    H4932571   2.539   5.162   2.745 -2.2688 -1.9821 -1.1821
  102MOL    C5032572   2.406   5.189   2.581  0.3321  0.0105 -0.5458
  102MOL    O5132573   2.429   5.056   2.524 -0.9137 -0.1045  0.0326
  102MOL    C5232574   2.487   5.046   2.399  0.2475  0.0750 -0.2323
  102MOL    C5332575   2.496   4.895   2.365 -0.1208  0.0540  0.3096
  102MOL    C5432576   2.361   4.827   2.345  0.4075  0.8059  0.5576
  102MOL    C5532577   2.287   5.185   2.674  0.1524  0.2671 -0.5813
  102MOL    H5632578   2.382   5.262   2.504 -0.2130  1.3382  0.8686
  102MOL    H5732579   2.429   5.095   2.321  1.2329  0.2290 -0.8731
  102MOL    H5832580   2.587   5.087   2.388 -0.3956  1.3561 -1.5573
  102MOL    H5932581   2.545   4.829   2.436  0.0732  0.5196  0.6078
  102MOL    H6032582   2.542   4.875   2.267  1.2285  0.7106  0.7894
  102MOL    H6132583   2.307   4.876   2.264 -2.8457 -1.6783  1.1224
  102MOL    H6232584   2.299   4.827   2.435  0.8552 -0.1515  0.8639
  102MOL    H6332585   2.382   4.727   2.309 -0.3480 -0.0927  2.5146
  102MOL    H6432586   2.309   5.117   2.757 -2.9913  1.2505  1.1475
  102MOL    H6532587   2.274   5.285   2.717 -1.1576 -0.0160 -0.2845
  102MOL    C6632588   2.149   5.150   2.606 -0.0220 -0.2315  0.2071
  102MOL    O6732589   2.057   5.124   2.710  0.0657 -0.3972 -0.4677
  102MOL    C6832590   2.055   4.984   2.744 -0.3696  0.0018 -0.9566
  102MOL    C6932591   1.966   4.958   2.871 -0.1367 -1.0029 -0.2119
  102MOL    C7032592   1.974   4.810   2.911  0.8678  0.1981 -0.2786
  102MOL    C7132593   2.091   5.259   2.526  0.2451  0.6427  0.3572
  102MOL    H7232594   2.164   5.064   2.540  0.3431 -0.3769  0.4771
  102MOL    H7332595   2.012   4.933   2.658 -1.6597  0.8412 -0.8112
  102MOL    H7432596   2.154   4.944   2.766 -0.2541 -0.1735 -1.7938
  102MOL    H7532597   1.869   5.008   2.861  0.2245 -0.2597 -0.0619
  102MOL    H7632598   2.013   5.020   2.947  0.6919 -0.7897 -0.8875
  102MOL    H7732599   1.919   4.774   2.998 -0.3520 -0.2063 -1.1919
  102MOL    H7832600   2.075   4.771   2.921 -0.0355 -2.0005  0.5151
  102MOL    H7932601   1.936   4.748   2.829 -2.9235 -0.1010  1.5879
  102MOL    H8032602   1.983   5.245   2.515  0.5587 -2.4165  0.5778
  102MOL    H8132603   2.100   5.349   2.587  0.3408  1.4327 -0.8186
  102MOL    C8232604   2.156   5.272   2.389 -0.8600 -0.5983  0.0523
  102MOL    O8332605   2.043   5.278   2.305 -0.1950  0.2175  0.1143
  102MOL    C8432606   2.031   5.175   2.209  0.5606 -0.1115  0.2569
  102MOL    C8532607   1.908   5.190   2.110  0.1020  0.2878 -0.0670
  102MOL    C8632608   1.924   5.314   2.021 -0.6039  0.2057  0.2958
  102MOL    C8732609   2.220   5.411   2.381  0.2605 -0.5362 -0.2222
  102MOL    H8832610   2.223   5.191   2.363 -0.1551  0.6803 -2.1997
  102MOL    H8932611   2.125   5.185   2.154  0.4310 -1.1895 -0.1635
  102MOL    H9032612   2.042   5.080   2.261 -0.1681  0.4692  1.5078
  102MOL    H9132613   1.825   5.212   2.177 -0.1246 -0.2038 -0.1823
  102MOL    H9232614   1.887   5.100   2.052 -0.2945 -0.9501  1.9367
  102MOL    H9332615   1.973   5.301   1.925  0.2185  5.7891 -0.2071
  102MOL    H9432616   1.966   5.399   2.076 -0.3067  1.6617 -2.1194
  102MOL    H9532617   1.827   5.351   1.989 -0.8731 -0.5390  0.2315
  102MOL    H9632618   2.146   5.487   2.407  0.3751 -1.1477  1.9842
  102MOL    H9732619   2.289   5.425   2.465 -0.4334  0.7412  0.1506
  102MOL    C9832620   2.305   5.441   2.259 -0.3157 -0.0961  0.7525
  102MOL    O9932621   2.359   5.568   2.287  0.2244 -0.3609  0.4472
  102MOL   C10032622   2.272   5.683   2.273 -0.5294  0.1178 -0.1462
  102MOL   C10132623   2.351   5.801   2.328  0.1587 -0.2812  0.6954
  102MOL   C10232624   2.273   5.926   2.292 -0.6536 -0.7935  0.3388
  102MOL   C10332625   2.424   5.355   2.232 -0.1134 -0.5658  0.1500
  102MOL   H10432626   2.242   5.442   2.171  0.1732 -0.7051  0.3878
  102MOL   H10532627   2.253   5.703   2.167  0.7096 -0.5627 -0.5076
  102MOL   H10632628   2.180   5.677   2.330 -1.8920  1.2889 -2.1684
  102MOL   H10732629   2.452   5.799   2.289 -0.2465  1.7049 -0.5370
  102MOL   H10832630   2.357   5.801   2.437  1.0081  1.1994  0.6710
  102MOL   H10932631   2.210   5.924   2.203  1.3792 -0.8162 -1.1278
  102MOL   H11032632   2.341   6.008   2.273 -0.1216 -1.4336 -0.5651
  102MOL   H11132633   2.213   5.952   2.379  0.0952 -2.4158  1.3568
  102MOL   H11232634   2.474   5.331   2.325  0.9686 -0.6983 -0.4503
  102MOL   H11332635   2.384   5.264   2.188  0.6204 -0.6315 -0.3873
  102MOL   C11432636   2.525   5.410   2.130 -0.1107  1.1891 -0.3524
  102MOL   O11532637   2.624   5.306   2.112 -0.1261 -0.4151  0.2715
  102MOL   C11632638   2.735   5.323   2.196 -0.7910 -0.2763 -0.3154
  102MOL   C11732639   2.851   5.232   2.153 -0.1748  0.2513 -0.2124
  102MOL   C11832640   2.971   5.266   2.241 -0.3133  0.6276 -0.2248
  102MOL   C11932641   2.455   5.433   1.994 -0.3364  0.4988  0.0404
  102MOL   H12032642   2.582   5.498   2.160 -1.3236  1.7869  0.2408
  102MOL   H12132643   2.776   5.424   2.196  0.1588 -0.6487 -0.6518
  102MOL   H12232644   2.720   5.297   2.301 -0.3025  3.8488  0.8416
  102MOL   H12332645   2.882   5.246   2.050 -1.0567  3.2285 -0.1178
  102MOL   H12432646   2.820   5.128   2.165  0.3928  0.1923  0.8490
  102MOL   H12532647   3.005   5.369   2.243  1.0644  0.1770  1.2403
  102MOL   H12632648   3.057   5.209   2.206 -0.2201  1.1091 -0.7756
  102MOL   H12732649   2.952   5.240   2.345  1.9303  0.1186  0.0837
  102MOL   H12832650   2.401   5.346   1.956 -0.8208  1.0512 -0.5449
  102MOL   H12932651   2.376   5.503   2.017 -1.2379 -0.9774  1.5308
  102MOL   C13032652   2.537   5.502   1.891  0.0253  0.4762 -0.4589
  102MOL   O13132653   2.468   5.499   1.764  0.5072 -0.0666 -0.2812
  102MOL   C13232654   2.472   5.370   1.706  0.3678 -0.2362 -0.5265
  102MOL   C13332655   2.337   5.335   1.637  0.8629  0.0510  0.2140
  102MOL   C13432656   2.240   5.280   1.745  0.3768  0.4553  0.8633
  102MOL   C13532657   2.573   5.649   1.913  0.8160  0.4371 -0.0465
  102MOL   H13632658   2.633   5.450   1.887 -0.4186 -0.3712  0.0333
  102MOL   H13732659   2.552   5.396   1.637  0.4315  1.3034  0.1039
  102MOL   H13832660   2.514   5.286   1.763  2.4570  0.4296 -1.0363
  102MOL   H13932661   2.337   5.260   1.558 -1.1234  0.5083 -0.2252
  102MOL   H14032662   2.293   5.422   1.588  0.6475 -0.2961 -0.2055
  102MOL   H14132663   2.288   5.206   1.809 -0.4338 -0.4465  0.4358
  102MOL   H14232664   2.155   5.225   1.704  1.1975 -1.7700  2.0857
  102MOL   H14332665   2.208   5.366   1.804  1.6935 -0.9767  3.7694
  102MOL   H14432666   2.485   5.710   1.893  0.9862  0.4046 -0.8927
  102MOL   H14532667   2.593   5.670   2.018  0.2839  0.1992  0.1067
  102MOL   C14632668   2.679   5.715   1.828 -0.4722 -0.3500  1.1852
  102MOL   O14732669   2.697   5.843   1.883 -0.3837 -0.2031 -0.6821
  102MOL   C14832670   2.610   5.939   1.840 -0.6002  0.3500  0.0329
  102MOL   C14932671   2.617   6.048   1.950 -0.8145 -0.6931  0.0427
  102MOL   C15032672   2.549   6.026   2.088 -0.3630  0.3457 -0.5308
  102MOL   C15132673   2.817   5.644   1.837 -0.8872 -0.1320  0.3113
  102MOL   H15232674   2.646   5.721   1.724  2.3432  0.4787  0.3099
  102MOL   H15332675   2.648   5.975   1.745 -0.0130 -0.5331 -0.0835
  102MOL   H15432676   2.512   5.909   1.804 -0.4266 -1.2149  0.7986
  102MOL   H15532677   2.577   6.137   1.901  0.4085 -0.2819 -0.2236
  102MOL   H15632678   2.720   6.076   1.970 -1.1975  0.2872  0.6535
  102MOL   H15732679   2.442   6.007   2.074 -0.8709  1.8944  1.0010
  102MOL   H15832680   2.550   6.107   2.162  0.4113  0.6767 -0.8999
  102MOL   H15932681   2.593   5.949   2.151 -2.1757  0.2550  0.6733
  102MOL   H16032682   2.837   5.643   1.944  1.8882 -0.4932 -0.1727
  102MOL   H16132683   2.809   5.540   1.804  1.2862 -0.0080 -0.6482
  102MOL   C16232684   2.939   5.705   1.763 -0.3643 -0.0818  0.1240
  102MOL   O16332685   3.053   5.620   1.775 -0.0063  0.6476  0.3367
  102MOL   C16432686   3.113   5.617   1.901  0.0318  0.0342  0.1153
  102MOL   C16532687   3.249   5.542   1.895  0.9312  0.4595 -0.2634
  102MOL   C16632688   3.295   5.500   2.044 -0.8049  0.0759  0.9281
  102MOL   C16732689   2.917   5.724   1.605  0.1874 -0.0243 -0.3038
  102MOL   H16832690   2.958   5.801   1.810 -0.8516  0.8618 -1.5776
  102MOL   H16932691   3.131   5.716   1.944  0.3253 -1.0503  2.5571
  102MOL   H17032692   3.040   5.572   1.967  0.0812 -0.1919  0.0160
  102MOL   H17132693   3.330   5.592   1.842  2.2662 -0.8862  0.4540
  102MOL   H17232694   3.235   5.447   1.844  0.2268 -0.3404  1.3711
  102MOL   H17332695   3.288   5.584   2.112  0.2064 -0.8152  2.1622
  102MOL   H17432696   3.400   5.473   2.038 -1.2635 -1.4502 -0.9970
  102MOL   H17532697   3.237   5.416   2.084 -1.7963 -0.7977 -2.1561
  102MOL   H17632698   3.012   5.701   1.556  0.5258  1.2943 -0.2926
  102MOL   H17732699   2.842   5.650   1.577 -0.2150  0.2121  0.1490
  102MOL   C17832700   2.874   5.870   1.560 -0.3060  0.4169 -0.2160
  102MOL   O17932701   2.966   5.967   1.608  0.2841  0.0122  0.5608
  102MOL   C18032702   2.904   6.077   1.672 -0.4379  0.1273 -0.3078
  102MOL   C18132703   3.002   6.191   1.667 -0.0085 -0.0567  0.1863
  102MOL   C18232704   3.029   6.224   1.519 -0.0828 -0.1691 -0.2993
  102MOL   C18332705   2.871   5.889   1.409  0.1928  0.5408 -0.2409
  102MOL   H18432706   2.774   5.877   1.602 -0.8614 -1.0634 -1.2299
  102MOL   H18532707   2.807   6.112   1.638 -0.6547  0.7568  0.9561
  102MOL   H18632708   2.889   6.045   1.775 -1.1402 -1.2470 -0.8211
  102MOL   H18732709   3.094   6.183   1.726 -0.1506 -0.1592  0.3943
  102MOL   H18832710   2.958   6.278   1.715  0.0394  1.3732 -2.2928
  102MOL   H18932711   3.104   6.301   1.502 -1.2386  0.7316 -1.4034
  102MOL   H19032712   2.937   6.262   1.473  1.7142  1.3784 -2.7044
  102MOL   H19132713   3.055   6.135   1.463  1.6079 -0.0416  0.2674
  102MOL   H19232714   2.823   5.986   1.398  0.2942  0.5578 -0.5325
  102MOL   H19332715   2.964   5.918   1.361  1.2190  0.7638  1.8242
  102MOL   C19432716   2.794   5.782   1.328 -0.3864  0.6343  0.1985
  102MOL   O19532717   2.666   5.790   1.384  0.1841 -0.9570  0.4721
  102MOL   C19632718   2.590   5.674   1.386  0.5641 -0.5795 -0.2364
  102MOL   C19732719   2.461   5.712   1.462 -0.2699  0.7354  0.5667
  102MOL   C19832720   2.373   5.823   1.385 -0.7291  0.1202  0.5634
  102MOL   C19932721   2.793   5.826   1.180 -0.0828  0.0654 -0.4224
  102MOL   H20032722   2.843   5.685   1.333 -0.5548  0.6040  1.2227
  102MOL   H20132723   2.560   5.646   1.285 -1.0735  1.4630 -0.3383
  102MOL   H20232724   2.647   5.592   1.429  2.4067  0.7388 -0.0820
  102MOL   H20332725   2.478   5.759   1.559 -3.7028  0.4165  1.3905
  102MOL   H20432726   2.398   5.624   1.479  0.7322 -0.5287 -1.9922
  102MOL   H20532727   2.357   5.787   1.284 -2.9754  2.2387  0.1241
  102MOL   H20632728   2.429   5.916   1.383  0.6574 -0.7274 -1.1670
  102MOL   H20732729   2.278   5.854   1.428 -0.6018  0.5131  0.5607
  102MOL   H20832730   2.712   5.775   1.129  1.3565 -0.0083 -2.7023
  102MOL   H20932731   2.777   5.934   1.185 -3.5221 -0.4394  0.2110
  102MOL   C21032732   2.921   5.790   1.101 -0.2759  0.4509  0.5491
  102MOL   O21132733   2.919   5.643   1.089  0.3283 -0.6097 -0.1545
  102MOL   C21232734   3.041   5.576   1.102  0.5757  0.0478 -0.1049
  102MOL   C21332735   3.028   5.423   1.132  0.2458  0.3546 -0.3873
  102MOL   C21432736   3.159   5.351   1.129  0.7301  0.5818  0.1992
  102MOL   C21532737   2.940   5.866   0.969 -0.5393 -0.0150 -0.0716
  102MOL   H21632738   3.004   5.818   1.166 -0.9248 -0.9534  2.0324
  102MOL   H21732739   3.099   5.590   1.012 -1.2823  0.4437 -1.2663
  102MOL   H21832740   3.106   5.624   1.176  1.5837  1.6545 -1.9991
  102MOL   H21932741   2.962   5.389   1.052  1.8281 -1.1599 -1.0966
  102MOL   H22032742   2.972   5.413   1.224  0.4621  3.0888  0.0890
  102MOL   H22132743   3.219   5.384   1.044  0.9628 -2.0797 -0.6916
  102MOL   H22232744   3.158   5.244   1.110 -1.3766  0.7247 -0.6678
  102MOL   H22332745   3.213   5.372   1.221  0.1892 -0.1725  0.6925
  102MOL   H22432746   3.026   5.829   0.913  0.2833  2.6811 -0.6834
  102MOL   H22532747   2.846   5.836   0.923 -1.5761 -1.8435  3.0279
  102MOL   C22632748   2.943   6.023   0.994 -0.5734  0.1502 -1.0257
  102MOL   O22732749   3.052   6.046   1.087  0.2638 -0.1907  0.2395
  102MOL   C22832750   3.085   6.181   1.117  0.0087 -0.8924 -0.4465
  102MOL   C22932751   3.199   6.238   1.026  0.1062  0.2104 -0.5871
  102MOL   C23032752   3.327   6.153   1.037 -1.4491 -0.1767  0.2827
  102MOL   C23132753   2.962   6.092   0.852  0.4289  0.2799  0.0195
  102MOL   H23232754   2.861   6.075   1.044 -0.4395 -1.2089  0.6319
  102MOL   H23332755   2.992   6.238   1.119  0.0978 -0.7764  0.4347
  102MOL   H23432756   3.113   6.190   1.222  1.6090 -2.3755 -0.7300
  102MOL   H23532757   3.222   6.340   1.058 -2.6912  0.5319  0.5557
  102MOL   H23632758   3.175   6.250   0.921  0.1253 -1.3480 -0.7804
  102MOL   H23732759   3.351   6.133   1.142 -0.5864  2.6190  0.6641
  102MOL   H23832760   3.409   6.214   1.002 -2.4729  1.4886  0.7241
  102MOL   H23932761   3.317   6.061   0.979 -0.1767  1.0472 -1.9302
  102MOL   H24032762   2.973   6.200   0.863 -0.5215  0.2246  1.6252
  102MOL   H24132763   3.054   6.052   0.809  0.4479  1.2984 -0.9243
  102MOL   C24232764   2.853   6.065   0.744  0.3953  0.0216 -0.4905
  102MOL   O24332765   2.730   6.120   0.790 -0.2005  0.6917 -0.0731
  102MOL   C24432766   2.615   6.050   0.757 -0.0309  0.2159  0.3271
  102MOL   C24532767   2.598   5.911   0.814  0.5760  0.3408  0.4430
  102MOL   C24632768   2.452   5.877   0.826  0.4604 -0.1149 -0.2350
  102MOL   C24732769   2.878   6.139   0.611  0.0975 -0.1056 -0.0450
  102MOL   H24832770   2.838   5.957   0.737  0.3306 -0.0627  0.7318
  102MOL   H24932771   2.536   6.116   0.793 -0.3816  0.7471 -1.3671
  102MOL   H25032772   2.590   6.050   0.651 -0.8876 -1.0795  0.5113
  102MOL   H25132773   2.651   5.905   0.909  0.3545 -1.6348  0.4639
  102MOL   H25232774   2.646   5.844   0.743  1.0410  1.6007 -0.4357
  102MOL   H25332775   2.420   5.782   0.870 -1.9807  1.3463  1.2375
  102MOL   H25432776   2.402   5.872   0.729  0.9363  2.0346 -0.6052
  102MOL   H25532777   2.400   5.951   0.887  0.7640 -0.0464 -0.0595
  102MOL   H25632778   2.793   6.120   0.544  0.3553  0.8763 -0.6680
  102MOL   H25732779   2.883   6.244   0.639  3.0063  0.3866 -2.2038
  102MOL   C25832780   2.998   6.096   0.530  0.3605  0.6277 -0.1037
  102MOL   O25932781   2.979   5.956   0.514  0.7926 -0.2210  0.1914
  102MOL   C26032782   3.095   5.873   0.505 -0.0995 -0.2834 -0.3729
  102MOL   C26132783   3.041   5.731   0.507 -0.3784 -0.2057  0.0004
  102MOL   C26232784   2.971   5.688   0.376  0.0458  0.4439  0.1976
  102MOL   C26332785   3.001   6.164   0.394 -0.3288 -0.6887 -0.1792
  102MOL   H26432786   3.090   6.123   0.582 -0.8176 -0.0370  2.4283
  102MOL   H26532787   3.153   5.891   0.414 -2.6621 -0.5019 -2.1189
  102MOL   H26632788   3.156   5.884   0.594 -1.0410 -0.0286  0.2527
  102MOL   H26732789   2.958   5.742   0.576  2.7821 -0.5473  4.0446
  102MOL   H26832790   3.119   5.663   0.540  1.0946  1.1498 -0.6029
  102MOL   H26932791   2.896   5.766   0.364  0.4650  0.7127 -0.7608
  102MOL   H27032792   2.925   5.591   0.391  0.6200 -0.2426 -2.1442
  102MOL   H27132793   3.034   5.675   0.287 -0.7921 -0.0958 -0.3204
  102MOL   H27232794   3.046   6.102   0.317 -0.2622 -0.3399 -0.4242
  102MOL   H27332795   2.898   6.179   0.362 -0.4182 -1.3332 -0.1982
  102MOL   C27432796   3.083   6.296   0.403 -0.1207  0.8801 -0.7656
  102MOL   O27532797   3.220   6.260   0.376  0.0137  0.1527  0.3205
  102MOL   C27632798   3.318   6.340   0.439 -0.2937 -0.3534  0.3124
  102MOL   C27732799   3.456   6.273   0.419 -0.0274 -0.0276  0.3911
  102MOL   C27832800   3.488   6.149   0.504  0.4494  0.2308 -0.3877
  102MOL   C27932801   3.050   6.411   0.306  0.2466 -0.7149 -0.0569
  102MOL   H28032802   3.077   6.326   0.507 -0.4707  2.2989 -1.1831
  102MOL   H28132803   3.318   6.442   0.401  1.9817 -0.9675 -1.4507
  102MOL   H28232804   3.301   6.348   0.546  0.5808 -0.1122  0.4403
  102MOL   H28332805   3.535   6.342   0.449  1.7965 -1.4323 -1.0884
  102MOL   H28432806   3.466   6.256   0.312 -1.5267 -1.3924  0.4475
  102MOL   H28532807   3.498   6.170   0.610  1.6819  1.6594 -0.7727
  102MOL   H28632808   3.584   6.107   0.475 -1.4868 -2.3690 -3.4186
  102MOL   H28732809   3.411   6.076   0.479  1.4911 -0.5744 -1.2853
  102MOL   H28832810   2.948   6.443   0.328 -0.3515 -1.2586 -1.9378
  102MOL   H28932811   3.112   6.498   0.327 -0.7895  0.3127 -1.1610
  102MOL   C29032812   3.037   6.384   0.152 -0.5704  0.6921 -0.0110
  102MOL   O29132813   2.950   6.479   0.101  0.1114  0.2109 -0.1946
  102MOL   C29232814   2.817   6.428   0.083 -0.4880 -0.0659 -0.1680
  102MOL   C29332815   2.715   6.537   0.052  0.2533 -0.0728  0.1964
  102MOL   C29432816   2.568   6.473   0.036 -0.3823 -0.2945 -0.6774
  102MOL   C29532817   3.174   6.410   0.079 -0.2861  0.2597  0.4511
  102MOL   H29632818   3.008   6.280   0.136  2.6676 -0.6768  2.3740
  102MOL   H29732819   2.816   6.357   0.001  1.6070 -2.2340  1.6004
  102MOL   H29832820   2.793   6.373   0.174  1.1167  0.6252  0.7092
  102MOL   H29932821   2.726   6.604   7.795  3.0148  2.1786  2.2243
  102MOL   H30032822   2.704   6.606   0.136 -0.2187  0.5988 -0.4108
  102MOL   H30132823   2.587   6.375   7.820  2.9431  0.0304 -0.1231
  102MOL   H30232824   2.513   6.535   7.793 -0.8634 -2.0970 -1.9359
  102MOL   H30332825   2.514   6.466   0.130 -1.3040 -0.2565 -1.1963
  102MOL   H30432826   3.164   6.516   0.056 -1.2358  0.1468  0.3140
  102MOL   H30532827   3.247   6.412   0.160 -1.0459  1.4858  1.1128
  102MOL   C30632828   3.196   6.312   7.794 -0.3605 -0.8798  0.8990
  102MOL   O30732829   3.315   6.343   7.719 -0.4785  0.9936  0.4299
  102MOL   C30832830   3.292   6.443   7.620  0.3641  0.5134 -1.0577
  102MOL   C30932831   3.422   6.475   7.549  0.0862 -0.4281  0.4459
  102MOL   C31032832   3.399   6.572   7.434  0.6346 -0.3200  0.2067
  102MOL   C31132833   3.215   6.173   0.024  0.8442  0.0695  0.1968
  102MOL   H31232834   3.113   6.304   7.723 -1.5911 -1.3072  2.3429
  102MOL   H31332835   3.216   6.411   7.549  0.1705 -2.3577  0.3737
  102MOL   H31432836   3.265   6.540   7.662 -1.8614 -0.1832 -0.8306
  102MOL   H31532837   3.466   6.388   7.501 -0.0805 -0.1002 -0.3223
  102MOL   H31632838   3.496   6.520   7.616 -1.6327  3.4700 -0.1221
  102MOL   H31732839   3.492   6.575   7.377 -0.8935 -2.0246 -2.4491
  102MOL   H31832840   3.381   6.676   7.462 -1.3907 -0.3588 -0.8740
  102MOL   H31932841   3.312   6.540   7.378  0.7601 -2.3915  1.1236
  102MOL   H32032842   3.300   6.177   0.092  0.2945  0.1559  0.8716
  102MOL   H32132843   3.130   6.127   0.073  0.4815  1.1823  0.6285
  102MOL   H32232844   3.233   6.092   7.781  2.4477  1.6909 -1.3206
  103MOL     C132845   5.562   4.210   1.664 -0.3563  0.6837 -0.0774
  103MOL     O232846   5.616   4.254   1.535  0.6578 -0.0290  0.3949
  103MOL     C332847   5.560   4.379   1.495 -0.3910 -0.5441 -0.7963
  103MOL     C432848   5.532   4.384   1.343  0.3046  0.0134 -0.1454
  103MOL     C532849   5.429   4.271   1.308 -0.2663 -0.1709 -0.3493
  103MOL     C632850   5.437   4.127   1.640 -0.2501 -0.9625 -0.0865
  103MOL     H732851   5.547   4.286   1.741 -0.2037  2.6299 -1.9136
  103MOL     H832852   5.461   4.400   1.535 -1.1394 -0.1506 -2.7949
  103MOL     H932853   5.622   4.464   1.526  1.3039 -2.8510  2.4113
  103MOL    H1032854   5.620   4.347   1.290 -0.7206 -1.8966 -0.5660
  103MOL    H1132855   5.510   4.475   1.288  1.1602 -0.9920 -2.2428
  103MOL    H1232856   5.408   4.276   1.201  1.4849  2.2498 -0.6034
  103MOL    H1332857   5.341   4.300   1.364 -1.0267  0.1130 -1.6557
  103MOL    H1432858   5.466   4.172   1.336  3.1313  1.5565  1.4576
  103MOL    H1532859   5.388   4.156   1.548  0.5255  1.6017  0.2491
  103MOL    H1632860   5.462   4.021   1.643 -0.2077 -0.9398  0.5565
  103MOL    H1732861   5.639   4.140   1.695 -0.0183  0.6142 -1.0701
  103MOL    C1832862   5.340   4.141   1.756  0.0104  0.2775 -0.0649
  103MOL    O1932863   5.283   4.274   1.737 -0.6743 -0.6950 -0.3886
  103MOL    C2032864   5.230   4.342   1.857 -0.0606  0.2387  0.4555
  103MOL    C2132865   5.185   4.481   1.810  0.8962 -0.5118  0.0046
  103MOL    C2232866   5.096   4.554   1.920 -0.9578  0.7560  0.9230
  103MOL    C2332867   5.220   4.039   1.760 -0.6862 -0.0329  0.1513
  103MOL    H2432868   5.392   4.135   1.852 -1.1970  0.4773  0.6019
  103MOL    H2532869   5.144   4.292   1.902  0.3480  0.2095  1.2058
  103MOL    H2632870   5.302   4.360   1.936 -0.0263 -0.6951  0.6439
  103MOL    H2732871   5.132   4.482   1.715 -0.0016 -0.0333  0.5046
  103MOL    H2832872   5.271   4.541   1.779 -0.1247  0.6057 -0.7066
  103MOL    H2932873   4.998   4.507   1.935 -0.7138  0.2090  0.8184
  103MOL    H3032874   5.090   4.662   1.904  2.0206  0.6198 -1.3796
  103MOL    H3132875   5.134   4.559   2.022  1.3595  1.2597  0.0548
  103MOL    H3232876   5.147   4.069   1.836 -0.8484 -0.1886  0.0562
  103MOL    H3332877   5.179   4.046   1.660  0.8778 -0.2653 -0.5257
  103MOL    C3432878   5.263   3.890   1.802 -0.1762 -0.8515 -0.0657
  103MOL    O3532879   5.296   3.895   1.943  0.1612  0.1890 -0.1357
  103MOL    C3632880   5.372   3.788   1.990 -0.2383 -0.0746  0.6369
  103MOL    C3732881   5.436   3.838   2.121 -0.4641 -0.2688 -0.6336
  103MOL    C3832882   5.539   3.731   2.175 -0.8739 -0.9039  0.3437
  103MOL    C3932883   5.136   3.800   1.801 -0.1151 -0.1469  0.2152
  103MOL    H4032884   5.344   3.848   1.742 -1.0412 -1.5819 -0.7378
  103MOL    H4132885   5.317   3.694   1.999  1.1248 -0.8158  1.3718
  103MOL    H4232886   5.449   3.766   1.917 -2.1453 -2.2407 -0.7978
  103MOL    H4332887   5.354   3.851   2.191  1.7326  0.6994  1.8504
  103MOL    H4432888   5.486   3.933   2.104  1.0527 -1.0138 -0.4711
  103MOL    H4532889   5.483   3.640   2.191 -2.1587 -0.4512 -1.3979
  103MOL    H4632890   5.596   3.772   2.259  1.4846 -1.0689 -1.1082
  103MOL    H4732891   5.612   3.707   2.097  0.7211 -1.4327  1.9690
  103MOL    H4832892   5.173   3.710   1.849 -0.6940 -0.1615  0.6317
  103MOL    H4932893   5.061   3.833   1.872 -0.5442 -0.1957 -0.2126
  103MOL    C5032894   5.070   3.777   1.664  0.3791 -0.3861 -0.1605
  103MOL    O5132895   5.148   3.702   1.580  0.1683 -0.0220 -0.4212
  103MOL    C5232896   5.221   3.775   1.487 -0.5124 -0.0536 -0.0898
  103MOL    C5332897   5.317   3.678   1.411 -0.9956 -0.0421  0.2787
  103MOL    C5432898   5.256   3.615   1.286  0.1037 -0.3532  0.2311
  103MOL    C5532899   4.944   3.688   1.681  0.2906 -0.0711  0.2781
  103MOL    H5632900   5.033   3.870   1.621 -0.7803 -0.0878  1.4135
  103MOL    H5732901   5.164   3.839   1.419 -1.2712 -0.4592  0.1595
  103MOL    H5832902   5.282   3.851   1.537  2.6395 -1.3304 -1.9629
  103MOL    H5932903   5.371   3.610   1.477 -0.5693 -1.1412 -1.1821
  103MOL    H6032904   5.390   3.748   1.370 -0.0265 -0.8363  0.6263
  103MOL    H6132905   5.205   3.698   1.239  0.5541 -1.8151 -2.9423
  103MOL    H6232906   5.182   3.537   1.304  0.7401 -0.8710  0.6393
  103MOL    H6332907   5.334   3.584   1.216  1.0790  1.5800  0.4170
  103MOL    H6432908   4.991   3.596   1.717  2.2940  1.1893  0.9934
  103MOL    H6532909   4.890   3.725   1.768 -0.8864 -2.6329  0.6619
  103MOL    C6632910   4.855   3.661   1.557 -0.8712 -0.0045 -0.2716
  103MOL    O6732911   4.802   3.532   1.579 -0.2320  0.0015 -0.7344
  103MOL    C6832912   4.789   3.445   1.474 -1.2045 -0.6895 -0.1280
  103MOL    C6932913   4.685   3.344   1.517 -0.1769  0.3850 -1.0545
  103MOL    C7032914   4.542   3.398   1.520 -0.9136 -0.2654 -0.2082
  103MOL    C7132915   4.738   3.748   1.529 -0.5022 -0.1389 -0.7312
  103MOL    H7232916   4.912   3.656   1.464  0.2528  4.7586  0.0321
  103MOL    H7332917   4.755   3.500   1.386 -2.6156  1.7761  1.8982
  103MOL    H7432918   4.883   3.400   1.441 -1.7641 -2.4809  0.6303
  103MOL    H7532919   4.703   3.289   1.609  0.3405 -2.1050 -2.5873
  103MOL    H7632920   4.690   3.257   1.451 -0.6646  1.3106 -2.3346
  103MOL    H7732921   4.516   3.437   1.422  1.3088  0.9849 -0.3277
  103MOL    H7832922   4.537   3.469   1.602  0.1447 -1.7951  1.2302
  103MOL    H7932923   4.471   3.319   1.546  1.1560 -2.4247 -0.9121
  103MOL    H8032924   4.674   3.717   1.447  0.2365  0.2540 -1.4626
  103MOL    H8132925   4.671   3.740   1.614 -0.5313  0.3491 -0.7083
  103MOL    C8232926   4.760   3.899   1.506  0.5445  0.3000 -0.4398
  103MOL    O8332927   4.803   3.967   1.631  0.4475  0.1083  0.3078
  103MOL    C8432928   4.757   4.098   1.648  0.1381 -0.5346  0.4626
  103MOL    C8532929   4.820   4.170   1.766 -0.3971 -0.4466  1.0601
  103MOL    C8632930   4.816   4.090   1.893  0.1850  0.1590 -0.2520
  103MOL    C8732931   4.856   3.943   1.391  0.5429 -0.0996 -0.0545
  103MOL    H8832932   4.663   3.943   1.481  0.1255 -0.5197 -0.2512
  103MOL    H8932933   4.789   4.150   1.558 -0.9056 -1.0176 -0.2067
  103MOL    H9032934   4.648   4.101   1.661  0.0403 -0.2214 -0.3592
  103MOL    H9132935   4.760   4.260   1.783  0.7406  0.1131  2.2514
  103MOL    H9232936   4.926   4.183   1.743 -0.5846 -2.0031 -0.7557
  103MOL    H9332937   4.839   3.986   1.868  0.0729  0.0454  0.1139
  103MOL    H9432938   4.711   4.092   1.921 -0.5998 -1.7220 -2.9568
  103MOL    H9532939   4.882   4.119   1.976 -1.3597  0.6696  0.8257
  103MOL    H9632940   4.929   4.013   1.431 -1.4366  1.7784  0.3744
  103MOL    H9732941   4.917   3.856   1.367  1.3755  0.5380 -0.2776
  103MOL    C9832942   4.788   3.995   1.264 -0.2471  0.2248  0.9457
  103MOL    O9932943   4.707   4.111   1.299  0.2938 -0.5315  0.3060
  103MOL   C10032944   4.593   4.123   1.222  0.1607  0.6448  0.1393
  103MOL   C10132945   4.535   4.260   1.261 -0.2674 -0.9799 -0.3527
  103MOL   C10232946   4.455   4.260   1.386 -0.2752 -0.4985  0.4788
  103MOL   C10332947   4.886   4.037   1.152  0.2479  0.3074 -0.2968
  103MOL   H10432948   4.721   3.919   1.225  0.4543 -0.5133  1.1623
  103MOL   H10532949   4.620   4.128   1.116  0.6462 -0.6976  0.1834
  103MOL   H10632950   4.524   4.039   1.225  1.4069 -0.3880  0.4657
  103MOL   H10732951   4.470   4.300   1.183  0.4766  0.9389 -0.0247
  103MOL   H10832952   4.618   4.329   1.276 -0.8056 -0.4881  0.4158
  103MOL   H10932953   4.496   4.207   1.472 -1.8098  0.3130  1.7324
  103MOL   H11032954   4.355   4.220   1.366  0.4022 -1.4629 -1.0782
  103MOL   H11132955   4.454   4.363   1.421  1.9632  0.0287 -0.9516
  103MOL   H11232956   4.829   4.094   1.079  2.4261  0.4658 -1.9443
  103MOL   H11332957   4.951   4.110   1.201  1.4341 -1.3060  0.5809
  103MOL   C11432958   4.972   3.933   1.085 -0.2655 -0.2146 -0.6145
  103MOL   O11532959   4.887   3.829   1.064 -0.3516  0.1588 -0.2521
  103MOL   C11632960   4.941   3.700   1.077  0.5901  0.3406 -0.6215
  103MOL   C11732961   4.834   3.597   1.042  0.5127 -0.0668  0.0598
  103MOL   C11832962   4.792   3.619   0.895 -0.0512  0.2314 -0.5767
  103MOL   C11932963   5.016   3.983   0.943 -0.3235 -0.4300 -0.2705
  103MOL   H12032964   5.057   3.906   1.147  0.1607 -1.0536 -1.5428
  103MOL   H12132965   5.023   3.679   1.008  0.6296 -1.8823  0.0765
  103MOL   H12232966   4.970   3.689   1.182  1.2958  0.2782 -0.8171
  103MOL   H12332967   4.753   3.620   1.111 -0.1211 -3.5260  0.5375
  103MOL   H12432968   4.866   3.493   1.051  1.8712  0.3349 -0.0028
  103MOL   H12532969   4.723   3.703   0.895 -0.8585 -0.4174  0.2982
  103MOL   H12632970   4.743   3.535   0.844  0.2483  0.4449 -1.2200
  103MOL   H12732971   4.875   3.651   0.832  0.4387 -1.8737 -1.0685
  103MOL   H12832972   5.048   3.896   0.886 -1.0493 -0.7663 -0.1723
  103MOL   H12932973   4.934   4.012   0.877  1.1356  1.3170 -1.3711
  103MOL   C13032974   5.111   4.107   0.931  0.8178  0.5219  0.0416
  103MOL   O13132975   5.051   4.221   0.993  0.2423  0.2608 -0.1556
  103MOL   C13232976   4.955   4.291   0.913  0.5819  0.2674 -0.0203
  103MOL   C13332977   4.919   4.422   0.978 -0.0972  0.7733  0.4916
  103MOL   C13432978   4.867   4.404   1.124 -0.2180 -0.0518  0.5817
  103MOL   C13532979   5.251   4.086   0.998 -0.9721  0.1054  0.5007
  103MOL   H13632980   5.124   4.123   0.824  1.6824 -2.3613 -0.3411
  103MOL   H13732981   4.993   4.315   0.814  1.0371  0.4027  0.1824
  103MOL   H13832982   4.868   4.227   0.903  0.2062  0.9500 -1.1345
  103MOL   H13932983   4.838   4.470   0.922 -1.2415 -2.5390 -0.8029
  103MOL   H14032984   4.994   4.500   0.964 -0.3658  0.5428 -2.5943
  103MOL   H14132985   4.938   4.353   1.189  3.2495  3.5787 -0.1945
  103MOL   H14232986   4.776   4.344   1.128  0.5271 -1.1914  0.4957
  103MOL   H14332987   4.849   4.503   1.167  1.0078  0.3610  0.1533
  103MOL   H14432988   5.292   4.187   0.998  3.5345 -1.6105  1.7469
  103MOL   H14532989   5.233   4.059   1.101 -1.7351 -0.9227  0.1064
  103MOL   C14632990   5.353   3.987   0.932  0.1607  0.2630 -0.1965
  103MOL   O14732991   5.299   3.857   0.910 -0.3306 -0.1867  0.1615
  103MOL   C14832992   5.391   3.751   0.928 -0.6243  0.4936 -0.0972
  103MOL   C14932993   5.315   3.621   0.915  0.4311 -0.2646 -0.0014
  103MOL   C15032994   5.412   3.506   0.901 -0.8184  0.5879  0.2520
  103MOL   C15132995   5.412   4.048   0.798 -0.3192 -1.1215 -0.6387
  103MOL   H15232996   5.441   3.987   0.995 -0.3424 -2.4887  0.5832
  103MOL   H15332997   5.473   3.760   0.857 -1.0640 -0.0887 -0.6929
  103MOL   H15432998   5.429   3.744   1.030  0.6839 -1.2742 -0.6847
  103MOL   H15532999   5.254   3.613   0.824  0.5486 -1.4100  0.0152
  103MOL   H15633000   5.247   3.613   1.000  3.0083  0.6403  2.2121
  103MOL   H15733001   5.361   3.411   0.886  0.4402 -0.0718  0.0810
  103MOL   H15833002   5.482   3.490   0.984 -0.3272 -0.4858 -0.3621
  103MOL   H15933003   5.469   3.520   0.809 -1.9706 -0.2874 -0.5988
  103MOL   H16033004   5.473   3.974   0.745  2.8236  1.7554 -1.2262
  103MOL   H16133005   5.330   4.072   0.730  1.8600  1.1963 -2.5279
  103MOL   C16233006   5.505   4.177   0.822  1.0692 -0.2182  0.0690
  103MOL   O16333007   5.630   4.142   0.884 -0.1619 -0.5728 -0.5321
  103MOL   C16433008   5.696   4.249   0.958  0.0233  0.2396  0.8028
  103MOL   C16533009   5.828   4.193   1.018  0.6877  0.3421  0.8838
  103MOL   C16633010   5.795   4.088   1.132  0.3495  0.0870 -0.4618
  103MOL   C16733011   5.529   4.246   0.691 -0.0988 -0.6049  0.0414
  103MOL   H16833012   5.455   4.238   0.898 -0.8325 -0.3799 -1.0369
  103MOL   H16933013   5.720   4.324   0.883 -0.9050 -0.6300 -0.3908
  103MOL   H17033014   5.627   4.302   1.023 -0.7560  2.0092 -1.3929
  103MOL   H17133015   5.892   4.272   1.057  0.7259 -0.2803  2.1065
  103MOL   H17233016   5.884   4.139   0.942  1.4966  1.6309  0.5503
  103MOL   H17333017   5.866   4.005   1.139  0.8886  0.2988 -2.9331
  103MOL   H17433018   5.703   4.038   1.104  0.5422 -0.3731 -0.2727
  103MOL   H17533019   5.781   4.144   1.224  1.8260  0.8997 -0.7077
  103MOL   H17633020   5.602   4.327   0.701 -0.8354 -0.0755  1.2787
  103MOL   H17733021   5.577   4.185   0.614  2.6625  0.6483  0.6948
  103MOL   C17833022   5.400   4.305   0.626  0.1279 -0.0591  0.1599
  103MOL   O17933023   5.390   4.438   0.690  0.3844  0.4137  0.2554
  103MOL   C18033024   5.261   4.465   0.737 -0.0101 -0.0694  0.7112
  103MOL   C18133025   5.238   4.605   0.785 -0.4982 -0.4282  0.3347
  103MOL   C18233026   5.312   4.634   0.911  0.1440 -0.4308 -0.5697
  103MOL   C18333027   5.415   4.336   0.473  0.2683 -0.3367 -0.2992
  103MOL   H18433028   5.310   4.248   0.650  0.9187 -1.0545  0.8324
  103MOL   H18533029   5.191   4.452   0.654  0.2310 -0.6869  0.6039
  103MOL   H18633030   5.238   4.393   0.815  1.0410  1.4443  2.4542
  103MOL   H18733031   5.132   4.630   0.790 -0.5725 -0.1598 -1.9457
  103MOL   H18833032   5.283   4.666   0.707  1.3710 -3.5820 -1.1457
  103MOL   H18933033   5.314   4.735   0.953 -1.1409 -0.3408 -0.7078
  103MOL   H19033034   5.418   4.626   0.890  0.9207 -0.0916  2.8407
  103MOL   H19133035   5.283   4.579   1.001  0.2810 -0.0378 -0.2821
  103MOL   H19233036   5.351   4.420   0.444  1.1668  0.0160 -1.2844
  103MOL   H19333037   5.513   4.375   0.448 -0.0153  1.5444  1.3945
  103MOL   C19433038   5.399   4.208   0.392  0.2725  0.7966 -0.2267
  103MOL   O19533039   5.262   4.177   0.405  0.7850 -0.1406 -0.2893
  103MOL   C19633040   5.235   4.039   0.390  0.1628  0.4950 -0.3477
  103MOL   C19733041   5.077   4.027   0.396 -0.3766 -0.2719  0.3441
  103MOL   C19833042   5.009   4.096   0.515 -0.1326 -0.3339 -0.0513
  103MOL   C19933043   5.421   4.232   0.243  0.0028 -0.1290  0.2440
  103MOL   H20033044   5.468   4.130   0.426  0.9295 -0.0619 -3.3357
  103MOL   H20133045   5.265   3.992   0.297 -1.6946 -0.0602 -0.6980
  103MOL   H20233046   5.262   3.975   0.474  0.1021  1.7638  0.6576
  103MOL   H20333047   5.055   3.920   0.398 -0.7734 -0.2226 -1.0556
  103MOL   H20433048   5.048   4.058   0.296  1.6545  2.2976  0.4947
  103MOL   H20533049   4.905   4.065   0.506 -0.0645 -0.2892 -0.9903
  103MOL   H20633050   5.024   4.204   0.510 -1.1132 -0.2560 -1.3784
  103MOL   H20733051   5.051   4.066   0.611  3.8192  0.7191 -1.3234
  103MOL   H20833052   5.371   4.156   0.183  0.7780 -0.9968  0.6859
  103MOL   H20933053   5.367   4.323   0.219  2.1404  0.7245 -1.6222
  103MOL   C21033054   5.564   4.243   0.185 -0.2787  0.0448  0.5529
  103MOL   O21133055   5.617   4.111   0.153 -0.3993 -0.2416  0.1767
  103MOL   C21233056   5.758   4.100   0.183  0.1940 -0.1744 -0.4742
  103MOL   C21333057   5.810   3.975   0.107 -1.2686 -0.0790 -0.2040
  103MOL   C21433058   5.815   3.987   7.784 -0.0927  0.1596  1.0639
  103MOL   C21533059   5.571   4.328   0.057  0.4174  0.1552  0.6208
  103MOL   H21633060   5.626   4.291   0.261 -1.0847  0.6076  0.8561
  103MOL   H21733061   5.807   4.190   0.146  0.8840 -0.1296  0.5467
  103MOL   H21833062   5.765   4.098   0.292 -0.1560  1.7099 -0.4004
  103MOL   H21933063   5.739   3.898   0.136 -0.0238 -1.2527 -0.2784
  103MOL   H22033064   5.911   3.948   0.136 -1.1591  0.3005 -0.2279
  103MOL   H22133065   5.890   4.052   7.738 -1.9858  0.4141 -1.7650
  103MOL   H22233066   5.720   4.028   7.749 -0.9224 -0.3839  2.6448
  103MOL   H22333067   5.827   3.887   7.742 -0.3339  0.0374  1.2914
  103MOL   H22433068   5.674   4.323   0.021  0.3354 -0.0040  0.4027
  103MOL   H22533069   5.524   4.284   7.796  0.6774  0.4399  0.3402
  103MOL   C22633070   5.550   4.477   0.074 -0.1931 -0.2206 -0.3393
  103MOL   O22733071   5.667   4.528   0.139  0.0583  0.5078 -0.0968
  103MOL   C22833072   5.665   4.665   0.193  0.2773 -0.0320 -0.2153
  103MOL   C22933073   5.775   4.755   0.128  0.0248  0.0992  0.3506
  103MOL   C23033074   5.773   4.904   0.161  0.2782 -0.2215  0.0817
  103MOL   C23133075   5.544   4.549   7.765 -0.6571 -0.0530 -0.0689
  103MOL   H23233076   5.459   4.489   0.132 -0.9318 -0.7201 -1.3742
  103MOL   H23333077   5.564   4.703   0.202  1.3797  2.6052  1.7390
  103MOL   H23433078   5.708   4.657   0.293  1.8161 -4.2078 -1.1191
  103MOL   H23533079   5.765   4.744   0.020  0.4413 -0.3655  0.3558
  103MOL   H23633080   5.871   4.711   0.156 -0.2456  0.5316  1.9470
  103MOL   H23733081   5.860   4.951   0.115 -0.0046 -1.3745 -1.7208
  103MOL   H23833082   5.781   4.911   0.269 -3.5960  1.3844  0.3391
  103MOL   H23933083   5.682   4.944   0.115  0.2896 -1.2949 -0.9216
  103MOL   H24033084   5.556   4.656   7.778 -0.3295 -0.1449  0.4151
  103MOL   H24133085   5.631   4.515   7.708 -0.0568 -1.2497  1.5217
  103MOL   C24233086   5.414   4.537   7.692  0.2880 -0.4714  0.3429
  103MOL   O24333087   5.320   4.636   7.748  0.4257 -0.2539  0.1029
  103MOL   C24433088   5.195   4.588   7.802  0.0245  0.0690  1.3191
  103MOL   C24533089   5.127   4.721   0.012 -0.7167  0.0379 -0.2527
  103MOL   C24633090   5.211   4.804   0.108 -0.3620 -0.4177 -0.1701
  103MOL   C24733091   5.425   4.586   7.542 -0.0233  0.5717 -0.6672
  103MOL   H24833092   5.382   4.433   7.688 -1.0810  0.0339 -2.9099
  103MOL   H24933093   5.150   4.517   7.733  0.9171  0.3148  0.4716
  103MOL   H25033094   5.221   4.535   0.065  0.1902 -1.2457  0.5102
  103MOL   H25133095   5.030   4.695   0.054  0.0500 -0.3451  1.3526
  103MOL   H25233096   5.103   4.777   7.750  1.9722  0.3896 -0.8030
  103MOL   H25333097   5.153   4.895   0.122 -0.5774 -0.1472 -2.6885
  103MOL   H25433098   5.312   4.830   0.075 -0.2859  1.5776  1.5616
  103MOL   H25533099   5.226   4.749   0.201  3.1012 -0.3162 -0.6087
  103MOL   H25633100   5.320   4.584   7.513 -0.2933 -2.3246  0.3145
  103MOL   H25733101   5.448   4.693   7.541 -1.0824  0.8211  0.6510
  103MOL   C25833102   5.526   4.528   7.440 -0.1559 -0.2248  0.5097
  103MOL   O25933103   5.509   4.388   7.432  0.0799  0.3611  0.7759
  103MOL   C26033104   5.631   4.319   7.397  0.4079  0.4123  0.3000
  103MOL   C26133105   5.600   4.168   7.386 -0.3057  0.7987  0.1809
  103MOL   C26233106   5.548   4.104   7.519 -0.3457 -0.0527 -0.2889
  103MOL   C26333107   5.503   4.580   7.295 -0.1894 -0.3793 -0.5424
  103MOL   H26433108   5.626   4.557   7.473  0.7871 -1.1442 -1.5152
  103MOL   H26533109   5.673   4.345   7.300 -1.5249  1.4212 -0.3082
  103MOL   H26633110   5.707   4.332   7.474 -3.3193 -0.9555  4.4377
  103MOL   H26733111   5.687   4.118   7.343 -0.4463 -0.2650  1.1075
  103MOL   H26833112   5.528   4.142   7.308  0.4904 -1.7180  0.2499
  103MOL   H26933113   5.439   4.103   7.521 -0.3229 -0.7323  1.1992
  103MOL   H27033114   5.589   4.164   7.600 -1.4290  1.0531 -0.5515
  103MOL   H27133115   5.578   4.000   7.536  1.7333  0.8297  1.7562
  103MOL   H27233116   5.582   4.541   7.231  0.0814 -0.1641 -0.3461
  103MOL   H27333117   5.406   4.546   7.261  0.0334 -0.8648 -0.7020
  103MOL   C27433118   5.521   4.734   7.281  0.5827  0.5103  0.0724
  103MOL   O27533119   5.643   4.787   7.335 -0.3231  0.3707 -0.2644
  103MOL   C27633120   5.634   4.919   7.388  0.0089  0.2360  0.2168
  103MOL   C27733121   5.761   4.963   7.458  0.8006 -0.3203  0.2760
  103MOL   C27833122   5.798   4.893   7.592 -0.0985 -0.0181 -0.0755
  103MOL   C27933123   5.495   4.779   7.135 -0.1040  0.3791  0.0774
  103MOL   H28033124   5.441   4.781   7.339  2.0115  1.0051  1.6822
  103MOL   H28133125   5.591   4.983   7.312 -0.5318 -0.1789  0.1676
  103MOL   H28233126   5.550   4.916   7.458 -0.7139 -0.3832 -0.6650
  103MOL   H28333127   5.761   5.071   7.475  0.5625 -0.5988  2.1363
  103MOL   H28433128   5.833   4.936   7.381  2.0765 -0.8320  1.6188
  103MOL   H28533129   5.871   4.956   7.643  1.1860  0.6095 -2.5617
  103MOL   H28633130   5.846   4.796   7.582  0.5421 -0.2278  4.4243
  103MOL   H28733131   5.712   4.885   7.658  0.1065  0.2131  0.2222
  103MOL   H28833132   5.513   4.885   7.119  1.1090  0.0889 -0.5941
  103MOL   H28933133   5.588   4.740   7.092 -0.3080  0.9032 -0.8677
  103MOL   C29033134   5.375   4.733   7.054  0.2244  0.1807  0.5930
  103MOL   O29133135   5.257   4.795   7.100 -0.8197  0.2894 -0.8152
  103MOL   C29233136   5.183   4.720   7.190  0.3298 -0.7507 -0.6737
  103MOL   C29333137   5.062   4.804   7.219  0.0938  0.0208  0.3548
  103MOL   C29433138   4.959   4.744   7.311  0.1540  0.8455 -0.5530
  103MOL   C29533139   5.391   4.761   6.909 -0.3012  0.1644 -0.5782
  103MOL   H29633140   5.367   4.624   7.063  0.0931  0.1250 -0.1674
  103MOL   H29733141   5.160   4.624   7.145 -0.9696 -0.5238 -0.4926
  103MOL   H29833142   5.241   4.703   7.280  0.9341  0.4836 -0.8124
  103MOL   H29933143   5.013   4.841   7.128  1.3242  1.2329  0.1815
  103MOL   H30033144   5.094   4.896   7.268 -0.1615 -0.1479  0.8343
  103MOL   H30133145   4.924   4.649   7.272 -1.6344  0.2001  2.4185
  103MOL   H30233146   4.872   4.809   7.298  0.7775  1.3256 -2.5128
  103MOL   H30333147   4.971   4.743   7.420  0.9988 -0.0748 -0.6519
  103MOL   H30433148   5.411   4.868   6.903 -0.0321  0.3312  2.4384
  103MOL   H30533149   5.492   4.730   6.881  0.7253  3.4934 -0.7987
  103MOL   C30633150   5.275   4.704   6.813 -0.0836 -0.3781  0.1703
  103MOL   O30733151   5.281   4.753   6.674  0.3526  0.0891  0.1984
  103MOL   C30833152   5.278   4.894   6.657 -0.0762  0.4073 -0.6556
  103MOL   C30933153   5.244   4.922   6.506 -0.1314 -0.3222  0.2426
  103MOL   C31033154   5.101   4.879   6.473 -0.0621 -0.1169  0.0306
  103MOL   C31133155   5.271   4.556   6.802  0.2276  0.8605 -0.1086
  103MOL   H31233156   5.181   4.745   6.849  1.2934  1.8037  1.3960
  103MOL   H31333157   5.217   4.943   6.732 -1.2717  0.6421 -1.7484
  103MOL   H31433158   5.383   4.917   6.672  0.3875 -1.4950 -0.7783
  103MOL   H31533159   5.309   4.880   6.430 -0.1974 -1.0424  0.5843
  103MOL   H31633160   5.257   5.029   6.492 -0.3517  0.0543  2.5825
  103MOL   H31733161   5.094   4.770   6.482  0.6626 -0.0213  1.8120
  103MOL   H31833162   5.067   4.896   6.371 -0.9210  1.0116  0.4941
  103MOL   H31933163   5.031   4.914   6.549  1.5468  1.7035  0.6968
  103MOL   H32033164   5.187   4.526   6.740 -0.6522  0.2501  1.3360
  103MOL   H32133165   5.364   4.520   6.757 -0.9725 -1.6369 -0.6394
  103MOL   H32233166   5.262   4.507   6.899  1.0071 -0.3787 -0.6492
  104MOL     C133167   4.669   6.561   5.993  1.0859 -0.1794  0.3875
  104MOL     O233168   4.678   6.465   6.099 -0.6293 -0.6306 -0.3171
  104MOL     C333169   4.575   6.364   6.113 -0.3754  0.4018 -0.2491
  104MOL     C433170   4.631   6.241   6.169 -0.1323 -0.1913  0.4789
  104MOL     C533171   4.542   6.129   6.227 -1.4147 -1.3353 -0.8083
  104MOL     C633172   4.773   6.668   6.013 -0.5343 -0.4792 -0.1556
  104MOL     H733173   4.573   6.608   6.015 -0.2196 -2.4191 -0.3014
  104MOL     H833174   4.488   6.401   6.166  0.0609  0.0667  0.6988
  104MOL     H933175   4.535   6.334   6.016  0.9560  0.5833 -0.8654
  104MOL    H1033176   4.702   6.258   6.249  1.9003 -0.9858 -1.1053
  104MOL    H1133177   4.696   6.191   6.097  0.0463 -1.1298  1.2750
  104MOL    H1233178   4.483   6.164   6.311 -0.4469 -1.8562  0.0951
  104MOL    H1333179   4.586   6.032   6.251  1.6436  0.0082 -0.8232
  104MOL    H1433180   4.477   6.088   6.149  0.8131 -0.2425 -3.3283
  104MOL    H1533181   4.790   6.685   6.119  1.1162 -1.3249 -0.2650
  104MOL    H1633182   4.875   6.640   5.985 -0.1530  1.0206 -0.3003
  104MOL    H1733183   4.672   6.520   5.892 -1.1901  4.0215 -1.5015
  104MOL    C1833184   4.759   6.803   5.929  0.2067  1.1990 -0.6477
  104MOL    O1933185   4.633   6.856   5.954  0.1162 -0.4857  0.2119
  104MOL    C2033186   4.573   6.905   5.842  0.4541 -0.1070 -0.0128
  104MOL    C2133187   4.455   6.987   5.875  0.4408 -0.5741  0.0715
  104MOL    C2233188   4.346   6.926   5.965  0.4002 -0.0602  1.2078
  104MOL    C2333189   4.867   6.904   5.965 -0.1961  0.2926  0.5408
  104MOL    H2433190   4.768   6.778   5.823  0.5603  1.2079 -0.6192
  104MOL    H2533191   4.637   6.966   5.778 -0.7173  0.2366 -0.8512
  104MOL    H2633192   4.530   6.821   5.788 -0.8068  0.7022 -0.2639
  104MOL    H2733193   4.415   7.042   5.790 -1.7081  1.1954  2.1662
  104MOL    H2833194   4.494   7.063   5.942  1.3957 -0.3635 -0.7220
  104MOL    H2933195   4.307   6.837   5.916  1.2904  0.4482 -0.4478
  104MOL    H3033196   4.258   6.986   5.989  0.5925  0.3927  0.7581
  104MOL    H3133197   4.391   6.888   6.057  1.5412  0.0722  0.7151
  104MOL    H3233198   4.836   7.007   5.945  0.1715  0.2639 -0.2193
  104MOL    H3333199   4.888   6.896   6.072  0.8463  0.5640  0.3649
  104MOL    C3433200   4.997   6.894   5.882  1.0434 -0.4994  0.2002
  104MOL    O3533201   4.965   6.960   5.756  0.4121  0.1459 -0.0151
  104MOL    C3633202   5.012   6.900   5.632  0.0674  0.0985 -0.5907
  104MOL    C3733203   4.947   6.986   5.518 -0.4303 -0.7489 -1.0788
  104MOL    C3833204   4.965   6.912   5.390 -0.4739  0.3184  0.3812
  104MOL    C3933205   5.119   6.972   5.933 -0.5877 -0.6989 -0.6907
  104MOL    H4033206   5.022   6.790   5.862  0.0600 -0.8793  0.8761
  104MOL    H4133207   5.120   6.909   5.626  0.1692  0.6475  1.4620
  104MOL    H4233208   4.999   6.792   5.623  2.2873 -0.1370 -1.1873
  104MOL    H4333209   4.996   7.082   5.502  1.2190 -0.6557  3.7636
  104MOL    H4433210   4.842   7.001   5.542  0.5872  3.3938  1.2014
  104MOL    H4533211   5.070   6.896   5.365 -0.7616 -0.4831 -0.3475
  104MOL    H4633212   4.912   6.964   5.310  0.4185 -1.8983 -1.7036
  104MOL    H4733213   4.904   6.822   5.390 -0.9450  0.6296 -0.8302
  104MOL    H4833214   5.176   7.005   5.846 -1.5328  1.9791 -0.3324
  104MOL    H4933215   5.084   7.061   5.984 -1.5863 -1.4962  0.0579
  104MOL    C5033216   5.200   6.892   6.038 -0.6265 -0.1417 -1.0294
  104MOL    O5133217   5.129   6.851   6.153  0.4456  0.3148  0.3708
  104MOL    C5233218   5.128   6.945   6.259  0.4061 -0.6373 -0.4757
  104MOL    C5333219   5.017   6.910   6.365 -0.4684 -0.7380  0.4056
  104MOL    C5433220   5.032   6.776   6.432 -0.2404  0.1039  0.3211
  104MOL    C5533221   5.267   6.759   5.980  0.1138  0.4059 -0.1647
  104MOL    H5633222   5.277   6.955   6.083 -2.8610  0.5121  2.0462
  104MOL    H5733223   5.221   6.945   6.316  0.1831 -0.9103 -0.1123
  104MOL    H5833224   5.114   7.047   6.223 -0.1831 -1.6800 -3.3359
  104MOL    H5933225   4.933   6.903   6.296 -0.7947  2.1083  0.4470
  104MOL    H6033226   4.997   6.993   6.432  0.5177 -0.7000  0.6558
  104MOL    H6133227   4.935   6.757   6.480 -2.3535  2.2356 -2.9340
  104MOL    H6233228   5.118   6.787   6.499 -0.8633 -0.7230  1.2887
  104MOL    H6333229   5.053   6.701   6.356  1.6794  0.2365  0.6953
  104MOL    H6433230   5.190   6.685   5.956 -0.6143  1.5717 -1.4832
  104MOL    H6533231   5.320   6.781   5.887 -0.3204 -2.1046 -1.0503
  104MOL    C6633232   5.362   6.708   6.094  0.1424  0.1752  0.2158
  104MOL    O6733233   5.361   6.568   6.089 -0.0451 -0.1490 -0.6483
  104MOL    C6833234   5.267   6.510   6.176  0.7122  0.1398 -0.1105
  104MOL    C6933235   5.247   6.359   6.149 -0.1841  1.2073  0.3106
  104MOL    C7033236   5.118   6.324   6.073 -0.3002 -0.2021  0.6768
  104MOL    C7133237   5.500   6.765   6.063  0.7394 -0.6751 -0.1242
  104MOL    H7233238   5.339   6.733   6.198 -1.8159  0.8218 -0.3396
  104MOL    H7333239   5.320   6.519   6.271 -0.5266  1.9169  0.4452
  104MOL    H7433240   5.178   6.572   6.185 -0.7278 -1.4828 -2.5537
  104MOL    H7533241   5.254   6.296   6.238 -1.5333 -1.4545 -1.4027
  104MOL    H7633242   5.342   6.330   6.106  0.6210 -0.0267  2.8447
  104MOL    H7733243   5.026   6.362   6.117 -0.9994 -0.1123 -0.8695
  104MOL    H7833244   5.102   6.217   6.061 -1.7066  0.2496 -1.7714
  104MOL    H7933245   5.125   6.367   5.974  1.8559 -2.2197 -0.0881
  104MOL    H8033246   5.516   6.748   5.956  0.9263  1.3239 -0.4233
  104MOL    H8133247   5.496   6.873   6.073 -0.8930 -0.5252 -2.1136
  104MOL    C8233248   5.618   6.722   6.156 -0.1216 -0.7034  0.1646
  104MOL    O8333249   5.735   6.785   6.107 -0.0070 -0.0484  0.2955
  104MOL    C8433250   5.806   6.708   6.007 -0.2710 -0.0858  0.5023
  104MOL    C8533251   5.939   6.778   5.966 -0.9604 -0.1280  0.1522
  104MOL    C8633252   6.009   6.839   6.081  0.5318  0.3947 -0.5318
  104MOL    C8733253   5.611   6.782   6.303 -0.0662  0.9435 -0.7617
  104MOL    H8833254   5.617   6.613   6.159 -2.9591 -0.7363 -0.3264
  104MOL    H8933255   5.807   6.606   6.044  3.4742 -0.2204  0.1588
  104MOL    H9033256   5.742   6.689   5.921  0.4566 -1.4787  0.2672
  104MOL    H9133257   5.929   6.856   5.891  1.0450 -1.2006 -1.2692
  104MOL    H9233258   6.000   6.693   5.935  0.4784  1.2036 -0.7190
  104MOL    H9333259   6.015   6.769   6.164 -0.0751 -0.2004 -0.9870
  104MOL    H9433260   5.950   6.923   6.118  1.2563  0.4996  0.4141
  104MOL    H9533261   6.111   6.868   6.055  0.2575  1.6947 -0.1953
  104MOL    H9633262   5.577   6.886   6.300  0.6548  1.1844 -0.7130
  104MOL    H9733263   5.528   6.733   6.353  2.8704 -2.2684  1.0891
  104MOL    C9833264   5.748   6.758   6.388  0.7637 -0.7649 -0.1135
  104MOL    O9933265   5.749   6.833   6.508  0.0842  0.2929 -0.2094
  104MOL   C10033266   5.819   6.960   6.510 -0.1170  0.0359 -0.6427
  104MOL   C10133267   5.838   7.004   6.657 -0.3182  0.8986  0.0187
  104MOL   C10233268   5.886   7.149   6.679 -0.2642 -0.4394  0.3062
  104MOL   C10333269   5.758   6.611   6.421 -0.2245  0.0168 -1.0484
  104MOL   H10433270   5.833   6.784   6.324  1.0666 -1.8965 -0.1789
  104MOL   H10533271   5.914   6.952   6.458 -0.3244 -1.2694 -0.8378
  104MOL   H10633272   5.759   7.035   6.459 -0.7566 -1.1049 -1.6116
  104MOL   H10733273   5.918   6.944   6.699 -1.4343 -1.7208 -1.5000
  104MOL   H10833274   5.747   6.986   6.714 -1.1872  1.3732 -1.1748
  104MOL   H10933275   5.977   7.167   6.622 -0.0104 -1.5902  0.3333
  104MOL   H11033276   5.893   7.178   6.784 -4.1799  2.2233 -0.0662
  104MOL   H11133277   5.813   7.219   6.639  0.3507  0.6431  1.0499
  104MOL   H11233278   5.667   6.588   6.476 -0.0524 -0.2644 -0.8818
  104MOL   H11333279   5.734   6.547   6.336 -2.0493 -1.8375  0.8098
  104MOL   C11433280   5.894   6.560   6.487  0.2391 -0.3358 -0.3449
  104MOL   O11533281   5.861   6.422   6.485 -0.2088 -0.0616 -0.5186
  104MOL   C11633282   5.829   6.368   6.614  0.8319  0.0353  0.1235
  104MOL   C11733283   5.816   6.222   6.586 -0.3382  0.1955  0.2579
  104MOL   C11833284   5.693   6.177   6.509  0.6840  0.3138 -0.3913
  104MOL   C11933285   6.020   6.593   6.406  0.8643 -0.2393 -0.0558
  104MOL   H12033286   5.909   6.599   6.587  1.1518  0.0957 -0.6470
  104MOL   H12133287   5.911   6.386   6.683  1.7184  2.3344 -1.4661
  104MOL   H12233288   5.742   6.407   6.666  1.9932  0.7271  1.5831
  104MOL   H12333289   5.816   6.164   6.679 -0.1854 -2.1542 -1.1620
  104MOL   H12433290   5.908   6.189   6.538  0.5279  2.8045  0.0434
  104MOL   H12533291   5.675   6.072   6.486 -1.3626  0.6295 -0.3008
  104MOL   H12633292   5.690   6.233   6.415 -0.5624  0.9227  0.0004
  104MOL   H12733293   5.604   6.204   6.565  1.6661  0.4562  1.1097
  104MOL   H12833294   6.016   6.564   6.301  1.2414 -0.5664  0.0164
  104MOL   H12933295   6.026   6.702   6.410  0.2684 -0.1252 -1.8508
  104MOL   C13033296   6.145   6.538   6.472 -0.3691  0.0526  0.6148
  104MOL   O13133297   6.150   6.568   6.612 -0.2847 -0.3945 -0.0020
  104MOL   C13233298   6.285   6.589   6.666 -0.0013  0.5280 -0.6031
  104MOL   C13333299   6.284   6.568   6.818 -0.1361 -0.0688 -0.2039
  104MOL   C13433300   6.250   6.690   6.897  0.3639 -0.5996 -0.0168
  104MOL   C13533301   6.172   6.389   6.440 -0.6162 -0.3094 -0.4402
  104MOL   H13633302   6.230   6.594   6.433 -0.4689  0.2875  0.7346
  104MOL   H13733303   6.346   6.509   6.622 -0.2826  0.2458 -0.4816
  104MOL   H13833304   6.311   6.691   6.638  3.7503 -0.2540 -0.3163
  104MOL   H13933305   6.381   6.528   6.846  0.3666  0.3976 -1.2245
  104MOL   H14033306   6.207   6.493   6.831 -0.9736  0.8301  0.0601
  104MOL   H14133307   6.331   6.763   6.896  0.9153 -1.1845  1.0434
  104MOL   H14233308   6.228   6.661   7.000  0.5126 -1.9602 -0.3511
  104MOL   H14333309   6.167   6.742   6.849  1.6594 -0.5828 -2.3274
  104MOL   H14433310   6.255   6.354   6.500  0.5051 -1.9167 -2.8645
  104MOL   H14533311   6.089   6.332   6.481 -0.6912 -0.5550 -0.9363
  104MOL   C14633312   6.188   6.346   6.291  0.6972  1.0170  0.1546
  104MOL   O14733313   6.272   6.437   6.231 -0.6221  0.1499  0.1101
  104MOL   C14833314   6.236   6.455   6.089  0.5559 -0.3624  0.4186
  104MOL   C14933315   6.360   6.496   6.009  0.0709  0.3832  0.0202
  104MOL   C15033316   6.344   6.511   5.863  0.3939 -0.8503  1.3088
  104MOL   C15133317   6.222   6.200   6.274  0.3314  0.0434  0.1987
  104MOL   H15233318   6.084   6.351   6.257  0.0318  0.8822  2.1056
  104MOL   H15333319   6.189   6.364   6.051 -3.3616  1.4081  0.7553
  104MOL   H15433320   6.170   6.541   6.074  0.9762 -0.0609  0.2548
  104MOL   H15533321   6.436   6.419   6.025  0.1004  0.4184  0.0463
  104MOL   H15633322   6.407   6.586   6.049 -0.4363  0.3365  0.7314
  104MOL   H15733323   6.259   6.565   5.821  0.5361 -1.8875 -0.3441
  104MOL   H15833324   6.343   6.415   5.812  0.2717 -0.8667  1.3439
  104MOL   H15933325   6.422   6.573   5.817 -1.8570  1.1803  0.0690
  104MOL   H16033326   6.140   6.143   6.319  2.2659 -2.9325  0.0997
  104MOL   H16133327   6.218   6.176   6.168  0.9940 -3.9637  0.9998
  104MOL   C16233328   6.363   6.152   6.328  0.0409 -0.0041  0.0236
  104MOL   O16333329   6.348   6.013   6.324 -0.2299  0.0285  0.5278
  104MOL   C16433330   6.281   5.959   6.437 -0.9708  0.0986 -1.0467
  104MOL   C16533331   6.161   5.872   6.392 -0.7800 -0.0859  0.4704
  104MOL   C16633332   6.079   5.815   6.508  0.3108 -0.1299 -0.1216
  104MOL   C16733333   6.486   6.182   6.237 -0.2331  0.4224  0.5351
  104MOL   H16833334   6.390   6.188   6.427  3.3815  0.5406 -1.0387
  104MOL   H16933335   6.360   5.896   6.477 -1.6388 -0.2910 -0.3519
  104MOL   H17033336   6.253   6.023   6.521  0.7122  0.8435 -1.0308
  104MOL   H17133337   6.200   5.795   6.325 -1.2869 -0.5769  0.7385
  104MOL   H17233338   6.088   5.929   6.335 -0.1879  0.0197 -0.1973
  104MOL   H17333339   6.012   5.741   6.463 -0.1375  1.1993 -1.6600
  104MOL   H17433340   6.013   5.887   6.557 -0.4423 -2.1268  1.8985
  104MOL   H17533341   6.145   5.777   6.586  0.6228 -1.7007 -1.1186
  104MOL   H17633342   6.468   6.126   6.146 -2.3042  0.5964  0.7997
  104MOL   H17733343   6.476   6.289   6.219 -0.1933  0.9276  3.2500
  104MOL   C17833344   6.629   6.176   6.291 -0.7472  0.1079  0.0146
  104MOL   O17933345   6.717   6.137   6.182  0.0727  0.0188 -0.2038
  104MOL   C18033346   6.781   6.011   6.191 -0.5938  0.4183 -0.6867
  104MOL   C18133347   6.877   5.985   6.080 -0.1760  0.2098 -0.0396
  104MOL   C18233348   6.834   5.919   5.950 -0.0108 -0.5607  0.2813
  104MOL   C18333349   6.689   6.309   6.337 -0.0412  0.0716 -0.7124
  104MOL   H18433350   6.642   6.102   6.369 -1.5361 -1.0263 -0.9137
  104MOL   H18533351   6.840   6.015   6.282  1.7113  1.8855 -2.1872
  104MOL   H18633352   6.705   5.934   6.208  0.2474  0.5661  4.4519
  104MOL   H18733353   6.964   5.932   6.117  0.0705 -0.2199 -1.2211
  104MOL   H18833354   6.911   6.086   6.057 -0.6892  0.6518  1.0701
  104MOL   H18933355   6.918   5.896   5.884  0.6112 -0.3320  0.9897
  104MOL   H19033356   6.768   5.989   5.899  0.7891 -0.3104 -0.4314
  104MOL   H19133357   6.770   5.834   5.973 -1.6640  0.7424  0.5377
  104MOL   H19233358   6.798   6.298   6.335  0.0343  0.2413  1.6306
  104MOL   H19333359   6.674   6.385   6.260  1.1912 -0.2402 -1.2833
  104MOL   C19433360   6.644   6.367   6.469 -0.1297 -0.2048  0.0091
  104MOL   O19533361   6.668   6.256   6.563 -0.2327  0.6290  0.1339
  104MOL   C19633362   6.584   6.270   6.676  0.2533  0.3150  0.3704
  104MOL   C19733363   6.592   6.141   6.756  0.3978  0.0298  0.6041
  104MOL   C19833364   6.532   6.020   6.675 -0.2927 -0.6983  0.3601
  104MOL   C19933365   6.743   6.478   6.513 -0.7280 -0.1858 -0.5017
  104MOL   H20033366   6.540   6.400   6.469 -0.9890 -2.8037 -1.3609
  104MOL   H20133367   6.629   6.347   6.738  0.2007  0.7632 -0.1487
  104MOL   H20233368   6.485   6.299   6.642  0.0437 -0.8427 -0.0589
  104MOL   H20333369   6.552   6.162   6.855 -2.9977 -0.0728 -0.7110
  104MOL   H20433370   6.694   6.117   6.787  0.0619  0.1576  1.8668
  104MOL   H20533371   6.423   6.019   6.667 -0.3218  0.7000  0.5134
  104MOL   H20633372   6.559   5.921   6.713 -3.2944 -1.6580  0.0934
  104MOL   H20733373   6.570   6.010   6.573 -0.2737 -3.2378  0.5856
  104MOL   H20833374   6.726   6.495   6.620  0.0398  1.7708 -0.6757
  104MOL   H20933375   6.843   6.435   6.518 -0.9570 -0.5311  2.0764
  104MOL   C21033376   6.740   6.612   6.443  0.3010  1.2709  0.5619
  104MOL   O21133377   6.782   6.610   6.304 -0.2142 -0.8145 -0.0518
  104MOL   C21233378   6.920   6.609   6.282  0.2521  0.3056 -0.6150
  104MOL   C21333379   6.955   6.602   6.133  0.2501  0.0010  0.1413
  104MOL   C21433380   7.099   6.609   6.091  0.0364  1.2350 -0.1856
  104MOL   C21533381   6.597   6.675   6.453 -0.6534 -0.0132  0.3156
  104MOL   H21633382   6.811   6.672   6.499 -1.1601  2.0870  1.5782
  104MOL   H21733383   6.951   6.705   6.324 -2.0499  1.0708 -0.6328
  104MOL   H21833384   6.962   6.528   6.341 -1.4560  1.3709  2.1622
  104MOL   H21933385   6.899   6.682   6.083 -1.4688  0.1816  2.2335
  104MOL   H22033386   6.919   6.508   6.092 -1.3200  0.6764 -0.0744
  104MOL   H22133387   7.152   6.516   6.111  0.6709  1.6446  0.0385
  104MOL   H22233388   7.166   6.678   6.141  1.2990  0.6545 -1.0548
  104MOL   H22333389   7.107   6.625   5.984 -0.6814 -1.6665 -0.7286
  104MOL   H22433390   6.528   6.618   6.391  0.2630  0.3461 -1.0574
  104MOL   H22533391   6.560   6.680   6.555 -1.3223  1.8271 -0.0020
  104MOL   C22633392   6.592   6.827   6.407  0.1748  0.1892  0.3807
  104MOL   O22733393   6.462   6.878   6.421 -0.4399  0.0558  0.5068
  104MOL   C22833394   6.363   6.850   6.317 -0.7612 -0.4052 -0.1548
  104MOL   C22933395   6.235   6.922   6.352 -0.5896 -0.5180  0.0523
  104MOL   C23033396   6.242   7.076   6.349 -0.2502 -0.0789 -0.6784
  104MOL   C23133397   6.690   6.928   6.483 -0.1523  0.3175 -0.6480
  104MOL   H23233398   6.629   6.827   6.305 -0.6516 -0.8212  0.0706
  104MOL   H23333399   6.413   6.881   6.226 -1.9847  0.1853 -0.6312
  104MOL   H23433400   6.358   6.742   6.304 -0.1598 -0.3257 -1.0840
  104MOL   H23533401   6.209   6.892   6.454 -0.1371  1.6840  0.8379
  104MOL   H23633402   6.156   6.897   6.280 -0.0299  2.7529 -1.8172
  104MOL   H23733403   6.165   7.133   6.401 -0.8862 -0.5767 -1.0692
  104MOL   H23833404   6.258   7.119   6.250  0.2220  0.9085 -0.1791
  104MOL   H23933405   6.333   7.099   6.404 -1.3568  2.8388  0.0302
  104MOL   H24033406   6.795   6.899   6.475  0.1937  1.3807 -0.0886
  104MOL   H24133407   6.675   7.026   6.437  0.3551  2.1914  2.9811
  104MOL   C24233408   6.657   6.936   6.641 -0.1810 -0.5329 -0.3346
  104MOL   O24333409   6.687   6.820   6.711 -0.8732 -0.6245  0.0928
  104MOL   C24433410   6.610   6.787   6.826 -0.8794  0.1872 -0.1061
  104MOL   C24533411   6.658   6.662   6.898 -0.3774  0.0547 -0.2881
  104MOL   C24633412   6.589   6.620   7.029  0.6556 -0.0896  0.1378
  104MOL   C24733413   6.713   7.059   6.717  0.0477 -0.3206  0.2742
  104MOL   H24833414   6.549   6.954   6.649  0.0087  0.8520 -0.7659
  104MOL   H24933415   6.605   6.871   6.896  2.3012 -0.0674  0.4976
  104MOL   H25033416   6.510   6.776   6.785 -0.1702 -2.9961 -1.1055
  104MOL   H25133417   6.762   6.680   6.924 -0.2439  1.4375 -1.7063
  104MOL   H25233418   6.649   6.597   6.811 -0.8029 -1.0019  0.5275
  104MOL   H25333419   6.594   6.511   7.029 -1.8720 -0.2225  0.4123
  104MOL   H25433420   6.490   6.663   7.014  2.0084  3.9538  2.1630
  104MOL   H25533421   6.629   6.667   7.119 -0.0646 -0.5756  0.7200
  104MOL   H25633422   6.722   7.050   6.825  2.2129  0.8535  0.2205
  104MOL   H25733423   6.817   7.061   6.684 -0.1537  1.6165 -0.2636
  104MOL   C25833424   6.644   7.194   6.687  0.1711 -0.2001  0.3204
  104MOL   O25933425   6.516   7.173   6.740  0.2032 -0.4184  0.2249
  104MOL   C26033426   6.414   7.225   6.664  0.8180  0.4186  0.5949
  104MOL   C26133427   6.286   7.174   6.728 -0.1314  0.3298  0.0322
  104MOL   C26233428   6.295   7.022   6.737  0.7394  0.0499 -0.2792
  104MOL   C26333429   6.713   7.313   6.754 -0.2882  0.0167  0.3998
  104MOL   H26433430   6.638   7.206   6.579 -0.0785 -0.7191  0.2731
  104MOL   H26533431   6.411   7.334   6.664 -2.6435  0.3746 -0.2094
  104MOL   H26633432   6.407   7.195   6.560 -1.7521 -0.5772  1.0031
  104MOL   H26733433   6.200   7.219   6.678 -1.6545 -0.5001  1.8584
  104MOL   H26833434   6.277   7.216   6.828 -1.6960 -1.0470  0.5068
  104MOL   H26933435   6.201   6.982   6.775  1.6919 -2.0403 -0.0204
  104MOL   H27033436   6.353   6.997   6.825  1.3455  0.8536 -0.4455
  104MOL   H27133437   6.334   6.967   6.651  1.2450 -2.5367  1.5454
  104MOL   H27233438   6.649   7.400   6.771 -0.4288 -0.0404  0.1684
  104MOL   H27333439   6.740   7.279   6.854  1.5123 -2.4438 -0.8671
  104MOL   C27433440   6.846   7.360   6.696 -0.1302 -0.1006 -0.1386
  104MOL   O27533441   6.831   7.365   6.557  0.0955  0.4341 -0.6555
  104MOL   C27633442   6.947   7.323   6.483 -0.1815  0.1181  0.1403
  104MOL   C27733443   6.933   7.333   6.330  0.1482 -0.0199  0.2100
  104MOL   C27833444   7.025   7.231   6.251  0.1911 -0.1834  0.4135
  104MOL   C27933445   6.897   7.489   6.746  0.4886  0.1499  1.0423
  104MOL   H28033446   6.916   7.282   6.725  1.2745  1.0472 -0.4248
  104MOL   H28133447   7.046   7.348   6.521 -0.4228  1.3669 -0.0492
  104MOL   H28233448   6.948   7.216   6.504 -1.6283 -0.1820 -1.2876
  104MOL   H28333449   6.954   7.438   6.308  0.1218  0.1323  0.9088
  104MOL   H28433450   6.829   7.328   6.299 -0.4157  0.2154  2.0131
  104MOL   H28533451   7.126   7.229   6.292  1.3172 -0.6841 -2.2815
  104MOL   H28633452   7.040   7.261   6.147  1.3348 -0.0213  0.6148
  104MOL   H28733453   6.998   7.126   6.260 -0.5155  0.0319  0.8466
  104MOL   H28833454   6.962   7.543   6.678 -1.0975  2.5410  1.3693
  104MOL   H28933455   6.805   7.546   6.752 -1.6271 -3.0196 -0.0196
  104MOL   C29033456   6.973   7.478   6.882 -0.2149 -0.8279  0.2304
  104MOL   O29133457   7.092   7.409   6.857 -0.1579  0.6071  0.1018
  104MOL   C29233458   7.141   7.331   6.961 -0.0111  0.6933 -0.0219
  104MOL   C29333459   7.253   7.246   6.902  0.1539  0.4244  0.1087
  104MOL   C29433460   7.205   7.171   6.771 -0.7488 -1.1362 -0.2467
  104MOL   C29533461   6.998   7.609   6.948 -0.1054 -1.1512 -0.2392
  104MOL   H29633462   6.919   7.413   6.952  1.8457 -1.9720  0.8091
  104MOL   H29733463   7.156   7.376   7.059 -2.3425  1.4251  0.0267
  104MOL   H29833464   7.063   7.254   6.966  0.0468  0.4925 -1.8234
  104MOL   H29933465   7.292   7.171   6.971 -2.3294 -0.6617  0.4176
  104MOL   H30033466   7.338   7.308   6.876  1.9386 -0.5176  3.4071
  104MOL   H30133467   7.111   7.118   6.786 -2.4583  2.4863  2.5519
  104MOL   H30233468   7.284   7.102   6.743  0.3479  0.4358 -1.1196
  104MOL   H30333469   7.190   7.245   6.692  0.8075 -0.5830 -0.0583
  104MOL   H30433470   7.019   7.591   7.053  0.3954  0.5503 -0.0249
  104MOL   H30533471   7.091   7.655   6.915  0.6163 -2.0518  0.4890
  104MOL   C30633472   6.879   7.713   6.950  0.4250  0.3133 -0.2394
  104MOL   O30733473   6.763   7.651   7.006 -0.5269  0.4194 -0.2286
  104MOL   C30833474   6.638   7.696   6.959  0.1247 -0.5494 -0.2907
  104MOL   C30933475   6.519   7.642   7.032  0.1791  0.3597  0.0192
  104MOL   C31033476   6.513   7.488   7.022  0.2373  0.4164 -0.0779
  104MOL   C31133477   6.908   0.012   7.034  0.5943 -0.1301  0.5573
  104MOL   H31233478   6.852   7.738   6.847 -0.6438 -3.8264 -1.0603
  104MOL   H31333479   6.638   7.804   6.951  0.4992 -0.6740 -2.2592
  104MOL   H31433480   6.641   7.664   6.855 -1.7499 -1.4789 -0.0765
  104MOL   H31533481   6.428   7.679   6.985 -1.6135 -0.7468  2.4847
  104MOL   H31633482   6.519   7.668   7.138 -1.1502 -0.7206  0.3037
  104MOL   H31733483   6.594   7.423   7.053 -0.9927 -1.7326 -1.2669
  104MOL   H31833484   6.504   7.471   6.915  0.9545  0.0898 -0.0842
  104MOL   H31933485   6.423   7.456   7.075 -0.2375  1.4866 -0.2177
  104MOL   H32033486   6.966   0.065   6.958 -2.3370  1.7079 -0.4805
  104MOL   H32133487   6.811   0.055   7.056 -0.1367 -0.9860 -0.9204
  104MOL   H32233488   6.985   7.822   7.109 -0.0393  2.1961  1.8104
  105MOL     C133489   7.383   2.471   5.390 -0.3985 -0.2401  0.4887
  105MOL     O233490   7.279   2.468   5.289  0.7950 -0.5171  0.2009
  105MOL     C333491   7.317   2.384   5.175  0.0906  0.1527  0.1230
  105MOL     C433492   7.199   2.407   5.069  0.3371  0.0930 -0.2425
  105MOL     C533493   7.230   2.320   4.946  0.7056  0.0616  0.0006
  105MOL     C633494   7.356   2.569   5.508  0.2053  0.8734  0.6241
  105MOL     H733495   7.476   2.484   5.336  0.9773 -1.6026  2.4359
  105MOL     H833496   7.413   2.402   5.126  1.0388 -0.4492  1.7157
  105MOL     H933497   7.308   2.280   5.207 -1.8181  0.2003 -0.2041
  105MOL    H1033498   7.190   2.511   5.039 -2.1155 -0.5155 -1.7495
  105MOL    H1133499   7.101   2.381   5.110 -0.0645  1.9344 -0.0297
  105MOL    H1233500   7.232   2.214   4.969 -1.8504  0.0345  0.1975
  105MOL    H1333501   7.333   2.340   4.917  0.8871 -0.0110  0.5871
  105MOL    H1433502   7.155   2.337   4.868  1.7099  2.0532 -0.5840
  105MOL    H1533503   7.438   2.565   5.580  0.0765 -2.8801  0.6699
  105MOL    H1633504   7.351   2.673   5.475  0.0284  0.2429 -1.4028
  105MOL    H1733505   7.393   2.371   5.432  0.7986 -0.1781  0.3515
  105MOL    C1833506   7.236   2.525   5.592 -0.2572 -0.4491 -0.3855
  105MOL    O1933507   7.264   2.411   5.668  0.4240  0.0485 -0.4342
  105MOL    C2033508   7.174   2.312   5.695 -0.2345  0.9532  0.3863
  105MOL    C2133509   7.251   2.197   5.763 -0.9097 -0.2907  0.1110
  105MOL    C2233510   7.330   2.251   5.882 -0.2007  0.5191 -0.1218
  105MOL    C2333511   7.179   2.638   5.682 -0.2690 -0.3584  0.2831
  105MOL    H2433512   7.156   2.494   5.524 -1.4560 -0.0370  0.8011
  105MOL    H2533513   7.081   2.340   5.745 -1.2041 -2.0850  0.3729
  105MOL    H2633514   7.124   2.279   5.604  0.5540 -0.1536  0.3350
  105MOL    H2733515   7.322   2.140   5.703 -0.0978  1.2078 -0.3862
  105MOL    H2833516   7.184   2.118   5.797  0.3932 -1.0929  0.9037
  105MOL    H2933517   7.279   2.306   5.961 -0.6258  1.0039 -0.7356
  105MOL    H3033518   7.400   2.321   5.836  0.0622 -0.4445 -1.2075
  105MOL    H3133519   7.402   2.181   5.925  1.1355 -0.4805 -3.8468
  105MOL    H3233520   7.120   2.593   5.761  1.6912  1.0924  2.6630
  105MOL    H3333521   7.266   2.686   5.728  0.6085 -0.0406 -1.6395
  105MOL    C3433522   7.096   2.745   5.605 -0.1384  0.3181 -0.1247
  105MOL    O3533523   6.985   2.678   5.554 -0.3123  0.0551  0.5079
  105MOL    C3633524   6.972   2.703   5.412  1.0153  0.1418  0.4410
  105MOL    C3733525   6.856   2.619   5.357  0.2668 -0.0067 -0.5078
  105MOL    C3833526   6.868   2.591   5.216  1.2778  0.4298  0.7552
  105MOL    C3933527   7.047   2.854   5.709 -0.0463  0.2516 -0.0305
  105MOL    H4033528   7.153   2.790   5.524 -2.9055  0.9709 -1.7607
  105MOL    H4133529   6.963   2.811   5.397 -1.3296 -0.3065 -1.6699
  105MOL    H4233530   7.065   2.677   5.362  2.2140  1.4753  1.9251
  105MOL    H4333531   6.760   2.665   5.381  0.2265 -0.3631  0.0292
  105MOL    H4433532   6.864   2.526   5.413  1.3446 -0.6538 -1.7341
  105MOL    H4533533   6.875   2.689   5.169  3.5318  0.0759  0.2904
  105MOL    H4633534   6.794   2.529   5.164 -0.0368  2.0705  0.6335
  105MOL    H4733535   6.966   2.544   5.207  1.2071  0.6295 -1.2514
  105MOL    H4833536   6.977   2.805   5.777  0.0271  2.2148  1.4955
  105MOL    H4933537   7.128   2.886   5.774 -0.6965  2.4270 -0.2622
  105MOL    C5033538   6.967   2.966   5.645  0.1673 -0.4980 -0.3992
  105MOL    O5133539   6.884   3.018   5.751 -0.5010  0.1309 -0.0978
  105MOL    C5233540   6.751   2.972   5.780  0.4375  0.4908  1.1720
  105MOL    C5333541   6.703   3.048   5.905  0.4940  0.1126  0.2851
  105MOL    C5433542   6.783   3.019   6.033 -0.2010  0.4563  0.5564
  105MOL    C5533543   7.048   3.076   5.569 -0.8469  0.0181 -0.2044
  105MOL    H5633544   6.897   2.914   5.580  1.5552 -0.4697 -1.9411
  105MOL    H5733545   6.673   2.977   5.704  1.4681 -1.0997 -0.0137
  105MOL    H5833546   6.753   2.863   5.788 -3.4944  0.2243 -0.3692
  105MOL    H5933547   6.598   3.024   5.916  0.5733 -0.1988  0.3818
  105MOL    H6033548   6.688   3.153   5.881 -0.7412 -0.2543 -0.5774
  105MOL    H6133549   6.891   3.023   6.015 -0.1718 -2.1362 -0.1342
  105MOL    H6233550   6.762   2.914   6.056  1.8590 -0.2091 -0.4087
  105MOL    H6333551   6.744   3.076   6.116 -0.5578 -0.6214  1.1371
  105MOL    H6433552   7.127   3.114   5.634 -3.2308 -1.4852  3.7120
  105MOL    H6533553   7.111   3.024   5.497 -0.1341  0.7549 -0.1187
  105MOL    C6633554   6.962   3.180   5.497  0.4656 -0.3977  0.3613
  105MOL    O6733555   6.858   3.105   5.420 -0.3102 -0.1188 -0.2177
  105MOL    C6833556   6.887   3.077   5.286  0.5998  0.2964  0.1869
  105MOL    C6933557   6.770   2.998   5.228 -0.4365  0.3258 -0.1035
  105MOL    C7033558   6.630   3.060   5.246 -0.1042  0.0290 -0.0420
  105MOL    C7133559   6.891   3.295   5.590  0.3220  0.4354 -0.7733
  105MOL    H7233560   7.030   3.227   5.426  1.9660 -0.0279  2.0086
  105MOL    H7333561   6.914   3.161   5.223 -1.7647 -0.2073 -1.5683
  105MOL    H7433562   6.972   3.008   5.287 -0.8347 -1.5275  0.3354
  105MOL    H7533563   6.772   2.905   5.286  0.6802 -0.6235 -1.6182
  105MOL    H7633564   6.776   2.983   5.120 -0.6769 -1.4346  0.1095
  105MOL    H7733565   6.628   3.134   5.326  0.3401  1.0887 -1.0042
  105MOL    H7833566   6.562   2.978   5.267 -0.3271  0.5598  1.3181
  105MOL    H7933567   6.598   3.108   5.153 -3.0195 -1.5748  0.0604
  105MOL    H8033568   6.813   3.340   5.530 -1.4354 -0.1904  0.9998
  105MOL    H8133569   6.833   3.244   5.666 -1.8259  1.0060 -2.0025
  105MOL    C8233570   6.998   3.404   5.646 -0.9098 -0.2389  0.1845
  105MOL    O8333571   7.016   3.484   5.529 -0.2987  0.3910 -0.3371
  105MOL    C8433572   7.144   3.536   5.507  0.0999 -0.4097 -0.4258
  105MOL    C8533573   7.159   3.646   5.399  0.2865 -0.0822  0.2548
  105MOL    C8633574   7.071   3.624   5.280 -0.5710 -0.6889  0.8017
  105MOL    C8733575   6.959   3.491   5.762  0.1303 -0.0734 -0.2095
  105MOL    H8833576   7.097   3.361   5.664  0.5132  1.2268 -3.7192
  105MOL    H8933577   7.179   3.582   5.599 -3.0613 -1.8815  1.5611
  105MOL    H9033578   7.202   3.449   5.475  0.5676 -0.6607  1.0726
  105MOL    H9133579   7.263   3.660   5.367  0.8034 -1.9003  1.1044
  105MOL    H9233580   7.137   3.742   5.447 -3.4341 -0.7567 -0.0275
  105MOL    H9333581   6.964   3.626   5.299 -0.4281 -0.7408  1.6332
  105MOL    H9433582   7.098   3.538   5.219  0.7347  1.7315 -2.1309
  105MOL    H9533583   7.087   3.713   5.219 -3.7771  0.6864  1.8507
  105MOL    H9633584   7.039   3.565   5.769  0.0942 -0.1678  1.1941
  105MOL    H9733585   6.859   3.534   5.754 -0.1130 -0.7526 -0.9846
  105MOL    C9833586   6.956   3.418   5.889  0.4073 -0.1709 -0.3535
  105MOL    O9933587   7.090   3.371   5.903  0.4584 -0.1338  0.0998
  105MOL   C10033588   7.115   3.259   5.985 -0.9377 -0.1720  0.4511
  105MOL   C10133589   7.268   3.266   6.009 -0.4158  0.1633  0.4825
  105MOL   C10233590   7.337   3.252   5.873 -0.1427  0.1039  0.4644
  105MOL   C10333591   6.910   3.510   6.016  0.2772  0.1423  0.0027
  105MOL   H10433592   6.885   3.336   5.883  1.3011 -0.9518 -0.4588
  105MOL   H10533593   7.059   3.261   6.079 -0.9967 -0.4724  0.4219
  105MOL   H10633594   7.088   3.168   5.932  2.2637 -0.8343 -0.0968
  105MOL   H10733595   7.310   3.190   6.075  3.0539  0.5591 -1.1827
  105MOL   H10833596   7.296   3.354   6.067  0.3937  0.8736 -0.9805
  105MOL   H10933597   7.446   3.246   5.870 -0.2317 -1.4734 -0.0065
  105MOL   H11033598   7.317   3.339   5.810 -1.8178 -0.4254  0.2454
  105MOL   H11133599   7.294   3.162   5.829  0.4872  0.0403 -0.0445
  105MOL   H11233600   6.940   3.468   6.112  0.5229  1.3945  0.4801
  105MOL   H11333601   6.961   3.606   6.020 -0.9766  0.7311  2.4744
  105MOL   C11433602   6.764   3.550   6.021 -0.1428 -0.0217  0.5065
  105MOL   O11533603   6.675   3.441   6.012  0.7979 -0.3515 -0.0628
  105MOL   C11633604   6.568   3.463   5.925  0.1882  0.3832 -0.2731
  105MOL   C11733605   6.460   3.351   5.946 -0.6449 -0.6225  0.3537
  105MOL   C11833606   6.412   3.355   6.092  0.0084 -0.2925 -0.1239
  105MOL   C11933607   6.722   3.621   6.150  0.0309  0.3891  0.7542
  105MOL   H12033608   6.753   3.606   5.928  2.9188 -0.7423 -0.3293
  105MOL   H12133609   6.523   3.558   5.953  0.8573  0.2085  1.4449
  105MOL   H12233610   6.587   3.456   5.817 -0.9173  3.9439 -0.7688
  105MOL   H12333611   6.492   3.251   5.916 -0.6397 -0.4724 -0.1583
  105MOL   H12433612   6.378   3.364   5.875 -1.2727 -1.0209  1.0113
  105MOL   H12533613   6.494   3.325   6.158 -0.8825 -1.8764  0.2887
  105MOL   H12633614   6.334   3.281   6.114 -0.1476 -0.5715 -1.6091
  105MOL   H12733615   6.368   3.452   6.117 -1.0026 -0.7296 -0.1819
  105MOL   H12833616   6.613   3.622   6.155  0.0470  0.3291  1.1488
  105MOL   H12933617   6.741   3.555   6.234 -2.4386  0.6079  1.5105
  105MOL   C13033618   6.779   3.765   6.179  0.0579 -0.1241 -0.4631
  105MOL   O13133619   6.915   3.755   6.217 -0.7024 -0.2051  0.2872
  105MOL   C13233620   6.942   3.712   6.350  0.1087  0.0239 -0.3705
  105MOL   C13333621   7.094   3.714   6.368  0.0385 -0.2415  0.3488
  105MOL   C13433622   7.158   3.601   6.296 -0.0411 -0.1938  0.5060
  105MOL   C13533623   6.756   3.857   6.060 -0.0968  0.6846 -0.9926
  105MOL   H13633624   6.721   3.798   6.265 -1.4582  1.0885 -1.9224
  105MOL   H13733625   6.899   3.775   6.428 -2.5675 -3.0207  0.7059
  105MOL   H13833626   6.916   3.607   6.363  0.3272  0.2019  1.6376
  105MOL   H13933627   7.107   3.693   6.474  0.1530  0.0565  0.3924
  105MOL   H14033628   7.135   3.814   6.360 -2.6774  0.7782 -1.7336
  105MOL   H14133629   7.157   3.638   6.193  3.1202  0.6159  0.7152
  105MOL   H14233630   7.111   3.504   6.307  3.9460 -2.1899  0.5683
  105MOL   H14333631   7.264   3.590   6.315 -0.1719 -1.7063  0.3830
  105MOL   H14433632   6.783   3.957   6.095  0.7795  0.6638 -1.5840
  105MOL   H14533633   6.823   3.835   5.977  2.0534 -0.8344  1.0862
  105MOL   C14633634   6.610   3.864   5.995 -0.2162 -0.2588  0.2375
  105MOL   O14733635   6.511   3.876   6.099  0.0886  0.2983  0.4637
  105MOL   C14833636   6.376   3.850   6.058 -0.4074 -0.1852 -0.3210
  105MOL   C14933637   6.296   3.896   6.174  0.1714  0.1748 -0.2748
  105MOL   C15033638   6.336   3.846   6.313  0.0686 -0.4506 -0.3750
  105MOL   C15133639   6.604   3.992   5.898 -0.7667  0.2627  0.1911
  105MOL   H15233640   6.592   3.770   5.943  3.6703 -0.9039 -0.0864
  105MOL   H15333641   6.341   3.924   5.986  2.3954  1.8465  0.2985
  105MOL   H15433642   6.358   3.745   6.036 -1.5320 -0.3848  1.4480
  105MOL   H15533643   6.195   3.860   6.151  0.9097 -1.4749 -1.0366
  105MOL   H15633644   6.285   4.004   6.175  0.4397  0.1887  1.5937
  105MOL   H15733645   6.280   3.896   6.392 -1.5097  0.3790 -1.9834
  105MOL   H15833646   6.443   3.859   6.329  0.4362 -1.6711 -1.7593
  105MOL   H15933647   6.311   3.742   6.334 -0.5263 -0.2418 -0.0301
  105MOL   H16033648   6.501   3.992   5.862 -1.6294  2.0401  2.6165
  105MOL   H16133649   6.613   4.081   5.960  0.7698 -0.6565  1.3219
  105MOL   C16233650   6.697   3.999   5.771 -0.3088 -0.6138  0.1330
  105MOL   O16333651   6.656   3.899   5.666  0.2656  0.1847 -0.3728
  105MOL   C16433652   6.747   3.793   5.645  0.3865  0.4817  0.1078
  105MOL   C16533653   6.681   3.688   5.564  0.4122  0.5681  0.2845
  105MOL   C16633654   6.655   3.727   5.421 -0.7133  0.1010  0.0626
  105MOL   C16733655   6.680   4.142   5.711 -0.0108  0.1026 -0.4512
  105MOL   H16833656   6.802   3.981   5.794 -0.3814 -0.1739  0.8024
  105MOL   H16933657   6.840   3.829   5.601  0.6223 -1.1487 -0.7446
  105MOL   H17033658   6.764   3.746   5.742  0.9374 -2.3128 -1.3171
  105MOL   H17133659   6.590   3.646   5.607  1.1228 -1.4502 -0.1274
  105MOL   H17233660   6.748   3.602   5.560  0.3052  0.2503  3.9757
  105MOL   H17333661   6.597   3.819   5.421 -0.7133  0.1093 -0.6754
  105MOL   H17433662   6.603   3.650   5.363 -0.1456  1.0800 -1.7949
  105MOL   H17533663   6.749   3.736   5.366  1.0453 -0.6068  2.8376
  105MOL   H17633664   6.720   4.142   5.610  2.5353 -2.7281  0.4673
  105MOL   H17733665   6.575   4.169   5.698  0.0947  0.9073  0.2562
  105MOL   C17833666   6.759   4.259   5.785 -0.1082 -0.2361 -0.4289
  105MOL   O17933667   6.895   4.207   5.794 -0.4392  0.3195 -0.3535
  105MOL   C18033668   6.981   4.290   5.876 -0.0544  0.1222  0.0659
  105MOL   C18133669   7.104   4.216   5.921  0.0341  0.5472  0.1041
  105MOL   C18233670   7.050   4.125   6.037 -0.0219  0.3630 -0.0486
  105MOL   C18333671   6.748   4.386   5.702  0.6533  0.1314  0.6168
  105MOL   H18433672   6.725   4.285   5.885  2.4395  0.2563  0.3600
  105MOL   H18533673   7.012   4.378   5.819  0.0548 -1.1883 -1.9546
  105MOL   H18633674   6.933   4.329   5.966  0.8525  3.2657 -0.7701
  105MOL   H18733675   7.189   4.277   5.954  2.7481 -1.9696 -2.0376
  105MOL   H18833676   7.127   4.155   5.834  3.7938 -0.8125  1.8909
  105MOL   H18933677   7.002   4.181   6.118  0.0109  0.6286 -0.2120
  105MOL   H19033678   7.127   4.058   6.074 -0.8286 -0.4060  0.2507
  105MOL   H19133679   6.979   4.051   6.002  2.7185 -2.0172 -0.7634
  105MOL   H19233680   6.805   4.466   5.749  0.9260  0.0812  0.3740
  105MOL   H19333681   6.788   4.374   5.601 -2.1101  2.5754 -0.8610
  105MOL   C19433682   6.606   4.453   5.701 -0.1606  0.0294 -0.3499
  105MOL   O19533683   6.547   4.458   5.837 -0.7274 -0.2933  0.6195
  105MOL   C19633684   6.407   4.471   5.845 -1.1439  0.4340  0.0012
  105MOL   C19733685   6.355   4.499   5.990  0.8372 -0.4621 -0.3093
  105MOL   C19833686   6.361   4.377   6.083 -0.9727 -0.7045 -0.1144
  105MOL   C19933687   6.608   4.601   5.642 -0.5840  0.4042  0.3253
  105MOL   H20033688   6.544   4.395   5.632 -1.0443  0.6672 -0.1114
  105MOL   H20133689   6.368   4.551   5.782 -3.1819 -0.8172 -0.3758
  105MOL   H20233690   6.364   4.387   5.791 -0.6041  0.1021  0.0916
  105MOL   H20333691   6.254   4.536   5.977  0.9002 -0.2762 -0.2770
  105MOL   H20433692   6.416   4.579   6.031  0.4988 -0.9952  1.2671
  105MOL   H20533693   6.264   4.328   6.087 -1.3271 -0.0664 -0.7460
  105MOL   H20633694   6.400   4.395   6.184  1.6615 -0.1739 -1.1759
  105MOL   H20733695   6.426   4.306   6.033 -0.7429  0.1708 -1.0832
  105MOL   H20833696   6.507   4.643   5.646  0.0222  1.8305  1.1101
  105MOL   H20933697   6.653   4.662   5.720 -0.4977  0.0239  0.5760
  105MOL   C21033698   6.657   4.618   5.493  0.1363  0.3049  0.6214
  105MOL   O21133699   6.795   4.595   5.498  0.1080  0.8108 -0.0693
  105MOL   C21233700   6.875   4.696   5.551 -0.0520 -0.3529 -0.1588
  105MOL   C21333701   7.018   4.682   5.518 -0.8791  0.0596 -0.2168
  105MOL   C21433702   7.071   4.539   5.544 -0.3565  0.7980  0.1435
  105MOL   C21533703   6.602   4.513   5.394 -0.3046  0.1519 -0.5265
  105MOL   H21633704   6.633   4.721   5.467  0.9001  0.7271  1.5324
  105MOL   H21733705   6.836   4.793   5.521 -0.2528  0.1395  1.5998
  105MOL   H21833706   6.860   4.710   5.658 -2.1127 -2.9215 -0.0458
  105MOL   H21933707   7.074   4.752   5.581 -1.5153  0.6599 -0.3226
  105MOL   H22033708   7.018   4.698   5.411  0.5656  0.5865 -0.1599
  105MOL   H22133709   7.019   4.461   5.488  1.4200  1.1999 -2.1481
  105MOL   H22233710   7.053   4.513   5.648 -0.2557 -1.0188 -0.2759
  105MOL   H22333711   7.173   4.515   5.515 -0.1728 -0.1192  1.5316
  105MOL   H22433712   6.632   4.412   5.421  0.0652  1.1104  2.9000
  105MOL   H22533713   6.497   4.510   5.423 -0.0035  3.3275  1.1236
  105MOL   C22633714   6.611   4.545   5.242 -0.2772  1.1313 -0.1817
  105MOL   O22733715   6.754   4.535   5.229 -0.8672 -0.1031  0.0291
  105MOL   C22833716   6.809   4.593   5.113 -0.0920 -0.2873  0.1482
  105MOL   C22933717   6.965   4.582   5.121  0.1689 -0.0568  0.1918
  105MOL   C23033718   7.036   4.639   5.005 -0.0224  0.1571 -0.2800
  105MOL   C23133719   6.551   4.432   5.159 -0.3838  0.4300  0.0778
  105MOL   H23233720   6.584   4.641   5.198 -1.7638  0.7025 -0.2253
  105MOL   H23333721   6.768   4.538   5.028  1.2814 -0.8296 -0.1798
  105MOL   H23433722   6.779   4.697   5.112 -0.5723 -0.4292 -1.5127
  105MOL   H23533723   6.986   4.478   5.144 -1.4895  0.0457  2.4150
  105MOL   H23633724   6.992   4.637   5.211  0.0102  1.3545 -0.5996
  105MOL   H23733725   7.069   4.564   4.934 -0.8774 -1.4383  0.9821
  105MOL   H23833726   7.123   4.696   5.039  0.1973 -1.0121  1.2130
  105MOL   H23933727   6.977   4.703   4.940 -2.1391 -1.0470  0.3976
  105MOL   H24033728   6.589   4.439   5.057  0.1823  2.1358  0.4021
  105MOL   H24133729   6.578   4.331   5.191  0.2112  0.5451 -0.0500
  105MOL   C24233730   6.398   4.427   5.154  0.1770 -0.4292  0.8583
  105MOL   O24333731   6.337   4.404   5.283  0.4187  0.0057 -0.2109
  105MOL   C24433732   6.343   4.269   5.325  0.1178 -0.0661 -0.2695
  105MOL   C24533733   6.295   4.269   5.471 -0.6495  0.1256 -0.0887
  105MOL   C24633734   6.300   4.127   5.527 -0.3788 -0.4838  0.3212
  105MOL   C24733735   6.339   4.550   5.095 -0.2486 -0.9828 -0.8229
  105MOL   H24833736   6.365   4.342   5.093 -0.4694 -1.2594  2.3432
  105MOL   H24933737   6.278   4.211   5.260 -0.1090 -2.4942  2.0160
  105MOL   H25033738   6.440   4.219   5.324  0.5552  0.7741 -0.3247
  105MOL   H25133739   6.198   4.318   5.476 -0.6604 -0.1891  3.6367
  105MOL   H25233740   6.359   4.332   5.533 -0.7993  1.6527 -1.4366
  105MOL   H25333741   6.260   4.139   5.627 -0.3518  0.5656  0.2030
  105MOL   H25433742   6.394   4.075   5.544 -0.9122 -1.8130 -0.7391
  105MOL   H25533743   6.229   4.058   5.480 -0.8110 -0.9145  1.5859
  105MOL   H25633744   6.239   4.571   5.132 -0.3146 -0.9140 -1.0398
  105MOL   H25733745   6.381   4.643   5.133 -1.5977  0.1765 -2.1377
  105MOL   C25833746   6.318   4.561   4.940 -0.3771 -0.5388 -0.1317
  105MOL   O25933747   6.195   4.503   4.915 -0.6021 -0.2464  0.2249
  105MOL   C26033748   6.195   4.375   4.860 -0.7042  0.4654 -0.1100
  105MOL   C26133749   6.067   4.332   4.796  0.0801 -0.5765  0.1873
  105MOL   C26233750   5.942   4.381   4.872 -0.0921 -0.2055  0.6362
  105MOL   C26333751   6.312   4.706   4.890  0.8228  0.2828  0.0042
  105MOL   H26433752   6.405   4.516   4.891  1.2027 -0.1405  2.2457
  105MOL   H26533753   6.264   4.372   4.775 -0.2002  1.5539  0.2602
  105MOL   H26633754   6.233   4.296   4.925 -1.1472 -0.6231 -1.1398
  105MOL   H26733755   6.057   4.225   4.781 -3.2979 -0.3245  0.2521
  105MOL   H26833756   6.069   4.372   4.695  1.3877 -3.2833 -0.8894
  105MOL   H26933757   5.891   4.472   4.840 -1.2494 -0.4248  1.8300
  105MOL   H27033758   5.975   4.389   4.976  1.9375  3.6464 -0.2126
  105MOL   H27133759   5.868   4.303   4.856  0.6676 -1.0009  0.9327
  105MOL   H27233760   6.251   4.717   4.800 -1.0642  0.5669  1.2730
  105MOL   H27333761   6.236   4.753   4.953 -2.3120 -1.3545 -2.4112
  105MOL   C27433762   6.449   4.784   4.896  0.4523 -0.1627 -0.0248
  105MOL   O27533763   6.534   4.742   4.781 -0.0448  0.7590 -0.4289
  105MOL   C27633764   6.661   4.677   4.806  0.4732  0.1654 -0.4618
  105MOL   C27733765   6.758   4.710   4.690  0.6892  0.0671 -0.1911
  105MOL   C27833766   6.800   4.856   4.688 -0.1052 -0.1962 -0.2592
  105MOL   C27933767   6.432   4.935   4.873  0.6138 -0.0913 -0.3013
  105MOL   H28033768   6.499   4.754   4.988 -2.1073  2.4852  2.2910
  105MOL   H28133769   6.702   4.703   4.904 -1.7308 -1.9783  1.0855
  105MOL   H28233770   6.642   4.570   4.809 -2.6177  0.6262 -1.3855
  105MOL   H28333771   6.716   4.676   4.595 -3.2373 -1.2558  1.8922
  105MOL   H28433772   6.851   4.656   4.707 -0.5570 -2.2340 -0.4693
  105MOL   H28533773   6.872   4.892   4.615  0.7485  0.8752  1.0896
  105MOL   H28633774   6.832   4.879   4.790  2.4301 -1.3679 -0.7338
  105MOL   H28733775   6.712   4.920   4.679  0.3213  0.1609 -2.1499
  105MOL   H28833776   6.533   4.973   4.855  0.6622 -0.0048  0.1489
  105MOL   H28933777   6.380   4.955   4.780 -2.3755 -1.7475  0.9400
  105MOL   C29033778   6.368   5.015   4.987  0.8092 -0.6696  0.5640
  105MOL   O29133779   6.470   5.022   5.084 -0.1061  0.0562 -0.4850
  105MOL   C29233780   6.434   5.045   5.221  0.1808 -0.8218  0.1820
  105MOL   C29333781   6.554   5.007   5.320  0.8300  0.3502  0.3096
  105MOL   C29433782   6.662   5.116   5.312 -0.4806 -0.0475 -0.4885
  105MOL   C29533783   6.311   5.154   4.941 -0.3452 -0.5155 -0.4512
  105MOL   H29633784   6.287   4.955   5.027 -0.8391  1.0336 -0.1405
  105MOL   H29733785   6.400   5.147   5.236  1.8300 -0.2473  0.1049
  105MOL   H29833786   6.346   4.984   5.247  0.1748 -1.1206 -0.5440
  105MOL   H29933787   6.590   4.913   5.279  1.7510  1.1544 -0.7197
  105MOL   H30033788   6.521   4.988   5.423 -2.3239  1.9469 -0.3359
  105MOL   H30133789   6.626   5.208   5.358  0.9678  0.6861 -0.8148
  105MOL   H30233790   6.678   5.137   5.206  2.5018  1.0224  0.1446
  105MOL   H30333791   6.760   5.091   5.353 -1.3312 -0.9493  1.0525
  105MOL   H30433792   6.270   5.149   4.840  0.2316 -0.6178 -0.6811
  105MOL   H30533793   6.230   5.185   5.007 -1.5344 -1.6825 -1.3301
  105MOL   C30633794   6.425   5.262   4.938 -1.0846 -0.2194  0.3608
  105MOL   O30733795   6.497   5.237   4.814 -0.2787 -0.3312  0.3765
  105MOL   C30833796   6.619   5.288   4.814  0.4382 -0.0897 -0.0077
  105MOL   C30933797   6.659   5.286   4.671 -0.1629  0.0476  0.2906
  105MOL   C31033798   6.584   5.383   4.586 -0.0888 -0.2017  0.2341
  105MOL   C31133799   6.371   5.408   4.950  0.2405  0.2178 -0.1821
  105MOL   H31233800   6.493   5.252   5.023 -2.6792 -2.1459  1.4517
  105MOL   H31333801   6.633   5.392   4.844  1.3545 -0.0835 -0.4311
  105MOL   H31433802   6.677   5.227   4.883 -1.0836 -0.3059  1.0863
  105MOL   H31533803   6.661   5.183   4.634  0.9917  1.0090 -2.4628
  105MOL   H31633804   6.760   5.326   4.674  0.6058 -1.8202 -0.3374
  105MOL   H31733805   6.484   5.343   4.570 -0.0558 -0.1980  0.0148
  105MOL   H31833806   6.641   5.404   4.495  0.4346 -1.4425  0.2685
  105MOL   H31933807   6.569   5.482   4.629  1.4979  0.7162 -1.2664
  105MOL   H32033808   6.297   5.428   4.872 -0.6263  1.9577  1.0408
  105MOL   H32133809   6.321   5.430   5.045 -0.5009  0.5274 -0.6314
  105MOL   H32233810   6.445   5.487   4.941  2.0091 -1.3884 -0.0772
  106MOL     C133811   3.772   5.529   2.498 -0.0793  0.4302  0.5152
  106MOL     O233812   3.641   5.551   2.545  0.2387  0.3690  0.3458
  106MOL     C333813   3.532   5.510   2.462  0.1064 -0.3300  0.0993
  106MOL     C433814   3.404   5.523   2.545 -0.4849 -0.4150 -0.4014
  106MOL     C533815   3.273   5.490   2.465 -0.5157  0.7726  0.3268
  106MOL     C633816   3.869   5.617   2.577 -0.2452  0.6004 -0.4345
  106MOL     H733817   3.778   5.545   2.390  0.0363  1.5728  0.6841
  106MOL     H833818   3.516   5.570   2.372 -0.2106 -1.4923 -0.6254
  106MOL     H933819   3.556   5.417   2.411 -0.0702 -1.4354  1.9981
  106MOL    H1033820   3.386   5.628   2.565 -2.1137 -1.0837  1.9390
  106MOL    H1133821   3.416   5.454   2.628  2.2015  0.2719 -0.1905
  106MOL    H1233822   3.257   5.562   2.385  1.1254  1.2261  0.3928
  106MOL    H1333823   3.181   5.501   2.524 -1.7657 -1.1647 -1.1995
  106MOL    H1433824   3.275   5.390   2.422  0.7958  1.7685 -2.0125
  106MOL    H1533825   3.844   5.722   2.559 -1.0535  0.6098  0.7071
  106MOL    H1633826   3.851   5.601   2.683 -0.7745 -0.8729 -0.7423
  106MOL    H1733827   3.800   5.424   2.507 -0.6701 -0.2001 -3.6680
  106MOL    C1833828   4.016   5.596   2.532 -1.5679 -0.2096 -0.0862
  106MOL    O1933829   4.072   5.464   2.566 -0.4981 -0.3935  0.2592
  106MOL    C2033830   4.088   5.445   2.707  0.2669 -0.0107 -0.1757
  106MOL    C2133831   4.110   5.295   2.735 -0.6178  0.2403  0.2301
  106MOL    C2233832   3.989   5.205   2.710  0.6291  0.1690 -0.7340
  106MOL    C2333833   4.049   5.623   2.380 -0.4508  0.1584 -0.3593
  106MOL    H2433834   4.064   5.665   2.602 -0.8019  0.4658 -1.2744
  106MOL    H2533835   4.173   5.502   2.745  1.1414 -0.5599 -1.2823
  106MOL    H2633836   4.005   5.484   2.766 -1.1308 -1.5719 -1.0717
  106MOL    H2733837   4.136   5.294   2.841 -1.7044 -0.6792  0.4968
  106MOL    H2833838   4.199   5.255   2.687  1.2290  0.6900  3.1433
  106MOL    H2933839   3.922   5.248   2.636 -1.1375 -1.7200 -0.2974
  106MOL    H3033840   3.925   5.190   2.797 -0.7009  0.4172 -1.6388
  106MOL    H3133841   4.021   5.104   2.681 -1.6852 -0.3746 -1.5489
  106MOL    H3233842   3.996   5.548   2.322 -0.7386  0.2371 -0.1997
  106MOL    H3333843   4.004   5.716   2.347 -1.8185 -0.2960  0.2161
  106MOL    C3433844   4.200   5.620   2.348 -0.5325  0.0303 -0.3664
  106MOL    O3533845   4.210   5.591   2.207  0.4656  0.3118 -0.1491
  106MOL    C3633846   4.195   5.452   2.168 -0.1961  0.0072  1.0602
  106MOL    C3733847   4.178   5.434   2.014  0.0105 -0.2003 -0.1185
  106MOL    C3833848   4.172   5.289   1.975 -0.0249 -0.3014 -0.0050
  106MOL    C3933849   4.284   5.743   2.372 -0.2178 -0.1211 -0.0209
  106MOL    H4033850   4.242   5.542   2.412  0.2066 -1.0504 -2.1171
  106MOL    H4133851   4.295   5.417   2.194  0.2528 -0.0625 -0.6993
  106MOL    H4233852   4.117   5.398   2.222 -1.2249 -0.3802 -0.7865
  106MOL    H4333853   4.257   5.489   1.963 -0.2219 -0.7028 -1.0318
  106MOL    H4433854   4.081   5.473   1.986  0.6126  1.3798 -0.0639
  106MOL    H4533855   4.145   5.214   2.050 -0.6187 -0.7394 -0.6539
  106MOL    H4633856   4.272   5.265   1.938  1.0435  0.9458  2.0194
  106MOL    H4733857   4.111   5.270   1.887 -0.3181  0.7193 -0.0209
  106MOL    H4833858   4.240   5.809   2.297 -1.7701 -0.0524  0.9447
  106MOL    H4933859   4.275   5.769   2.477 -0.2083  2.8916 -0.7200
  106MOL    C5033860   4.438   5.730   2.353  0.1533  0.3660  0.6032
  106MOL    O5133861   4.512   5.854   2.372 -0.0639  0.5491 -0.4206
  106MOL    C5233862   4.499   5.950   2.278 -0.1564 -0.1002  0.3105
  106MOL    C5333863   4.546   6.089   2.335 -0.2718  0.1120 -0.8813
  106MOL    C5433864   4.699   6.084   2.362  0.7193  0.0585 -0.0224
  106MOL    C5533865   4.501   5.623   2.449  0.1113 -0.5233 -0.0153
  106MOL    H5633866   4.454   5.685   2.255 -1.6806  2.6140 -0.7891
  106MOL    H5733867   4.568   5.929   2.196 -0.2276  2.8276 -0.5631
  106MOL    H5833868   4.398   5.970   2.241  0.2468 -0.4503 -1.0168
  106MOL    H5933869   4.489   6.103   2.428  0.2311 -2.0482 -0.2162
  106MOL    H6033870   4.522   6.170   2.267 -0.2093  0.6200 -0.2968
  106MOL    H6133871   4.737   6.172   2.414 -2.3386  1.0958  0.5418
  106MOL    H6233872   4.755   6.070   2.269  1.7556  0.3330  0.5515
  106MOL    H6333873   4.720   5.996   2.422  1.5466 -1.2667 -2.2009
  106MOL    H6433874   4.470   5.641   2.552 -0.6423 -0.7535 -0.1946
  106MOL    H6533875   4.460   5.524   2.431  0.2267 -0.9643  2.0254
  106MOL    C6633876   4.659   5.613   2.452  0.0954 -0.0046  0.3910
  106MOL    O6733877   4.710   5.522   2.557  0.1747  0.3943 -0.1280
  106MOL    C6833878   4.775   5.595   2.658  0.1992 -0.5781  0.3023
  106MOL    C6933879   4.821   5.492   2.759 -0.4086 -0.0240 -0.2043
  106MOL    C7033880   4.714   5.406   2.837  0.1130 -0.3862 -0.2392
  106MOL    C7133881   4.702   5.559   2.317 -0.1214 -0.1675  0.2315
  106MOL    H7233882   4.706   5.711   2.458  1.8945 -0.8917  1.0906
  106MOL    H7333883   4.856   5.659   2.620 -0.4657  0.9401  1.3726
  106MOL    H7433884   4.697   5.657   2.701  0.2313 -1.6535  1.9398
  106MOL    H7533885   4.885   5.547   2.827 -1.1635  0.7583 -0.1240
  106MOL    H7633886   4.882   5.428   2.694  1.3092  0.6985  0.6824
  106MOL    H7733887   4.634   5.462   2.885  0.5324 -2.2153  2.6997
  106MOL    H7833888   4.767   5.356   2.917  2.8701 -0.0863 -1.8163
  106MOL    H7933889   4.665   5.333   2.772  2.3382 -0.4819 -1.8727
  106MOL    H8033890   4.640   5.472   2.292 -0.1194  0.1992 -1.1019
  106MOL    H8133891   4.673   5.625   2.235  0.3823 -1.2574 -0.8394
  106MOL    C8233892   4.852   5.520   2.300 -0.4846  0.7535  0.7001
  106MOL    O8333893   4.871   5.453   2.178 -0.9004 -0.0894 -0.3057
  106MOL    C8433894   4.900   5.317   2.166 -0.1253 -0.4161  0.6853
  106MOL    C8533895   4.974   5.281   2.028  0.9437  0.2391 -0.9524
  106MOL    C8633896   5.103   5.350   1.997  0.9039  0.0356  0.0175
  106MOL    C8733897   4.949   5.643   2.309 -0.5939  0.1822  0.5710
  106MOL    H8833898   4.873   5.449   2.381  0.3863 -1.4954 -1.4521
  106MOL    H8933899   4.952   5.272   2.251 -1.7403 -1.6283  1.0555
  106MOL    H9033900   4.803   5.267   2.174 -0.1072 -1.1633 -2.9064
  106MOL    H9133901   4.902   5.272   1.947  1.1165 -0.0855 -1.0694
  106MOL    H9233902   5.001   5.176   2.035  0.2554  0.1173 -0.0357
  106MOL    H9333903   5.155   5.293   1.920 -4.0859 -1.6234 -2.3848
  106MOL    H9433904   5.162   5.378   2.084  0.0758 -0.9639  0.9104
  106MOL    H9533905   5.078   5.444   1.947  1.7809  0.8206  1.0274
  106MOL    H9633906   4.927   5.705   2.223 -0.1910 -0.9008 -0.3165
  106MOL    H9733907   4.941   5.707   2.397 -1.6899 -0.0314  0.6312
  106MOL    C9833908   5.102   5.608   2.298 -0.5146  0.1489 -0.1952
  106MOL    O9933909   5.171   5.731   2.265 -0.9651  0.0288  0.4676
  106MOL   C10033910   5.187   5.759   2.131 -0.2449  0.0495  0.0913
  106MOL   C10133911   5.266   5.882   2.110 -0.2984  0.2899 -0.2622
  106MOL   C10233912   5.213   6.010   2.169  0.7557 -0.3488 -0.4443
  106MOL   C10333913   5.174   5.536   2.420 -0.5515  0.0978  0.1489
  106MOL   H10433914   5.121   5.548   2.208  2.1309  1.7283 -0.7713
  106MOL   H10533915   5.242   5.676   2.087 -0.5831 -0.1301  0.0021
  106MOL   H10633916   5.096   5.768   2.072 -1.7478  3.1177  2.6928
  106MOL   H10733917   5.264   5.898   2.002  3.0402 -0.3733 -0.4609
  106MOL   H10833918   5.368   5.862   2.141 -0.6687 -3.0128 -0.9619
  106MOL   H10933919   5.116   6.033   2.125 -0.2241 -1.4443  1.0966
  106MOL   H11033920   5.280   6.096   2.166  0.4241 -0.0842 -0.2014
  106MOL   H11133921   5.184   6.013   2.274 -0.1121  1.3017 -0.7217
  106MOL   H11233922   5.095   5.485   2.476 -0.7673  2.6590  2.3193
  106MOL   H11333923   5.251   5.471   2.379  0.2466  0.4592  1.0612
  106MOL   C11433924   5.238   5.638   2.515 -0.3439  0.8218 -0.0664
  106MOL   O11533925   5.128   5.706   2.576  0.0002 -0.3002  0.2796
  106MOL   C11633926   5.160   5.845   2.592  0.3721 -0.7177 -0.6429
  106MOL   C11733927   5.023   5.917   2.642  0.2737  0.0246  0.7118
  106MOL   C11833928   5.028   6.061   2.683 -0.1554  0.1726 -0.7242
  106MOL   C11933929   5.308   5.567   2.636  0.0562  0.1198  0.3590
  106MOL   H12033930   5.320   5.697   2.475 -0.4629  0.2214 -1.2187
  106MOL   H12133931   5.242   5.860   2.661  0.7146 -1.9333 -0.7721
  106MOL   H12233932   5.194   5.886   2.498 -0.5077  0.3225 -0.5148
  106MOL   H12333933   4.985   5.859   2.725 -1.2459  1.0013  0.7129
  106MOL   H12433934   4.962   5.907   2.552  2.3783  0.0170 -0.7646
  106MOL   H12533935   5.088   6.071   2.773 -1.5420  2.6761 -0.0527
  106MOL   H12633936   4.931   6.106   2.702 -0.9943 -1.7380 -0.3888
  106MOL   H12733937   5.069   6.128   2.607 -0.2578  0.4784 -0.5073
  106MOL   H12833938   5.335   5.645   2.706  0.3719  1.0132 -0.7475
  106MOL   H12933939   5.236   5.500   2.684 -0.8795  0.2225 -0.8525
  106MOL   C13033940   5.435   5.487   2.609  0.4810 -0.5047  1.0285
  106MOL   O13133941   5.521   5.601   2.587 -1.1170 -0.2442  0.1072
  106MOL   C13233942   5.625   5.576   2.494  0.8919  0.1383 -0.4540
  106MOL   C13333943   5.690   5.716   2.460  0.2804  0.0108  0.2595
  106MOL   C13433944   5.602   5.789   2.364 -0.6736 -0.0093  0.1078
  106MOL   C13533945   5.489   5.392   2.720  0.1763  1.0288  0.1090
  106MOL   H13633946   5.430   5.429   2.517  0.1058 -1.8745  1.8973
  106MOL   H13733947   5.699   5.513   2.544  0.2605  1.0132  1.6433
  106MOL   H13833948   5.591   5.522   2.406 -0.2253 -0.4245  0.3114
  106MOL   H13933949   5.793   5.726   2.425  0.7761 -0.2141  1.6245
  106MOL   H14033950   5.693   5.773   2.553  1.3482  1.5506 -0.7111
  106MOL   H14133951   5.625   5.895   2.371  0.7314 -0.0351 -3.0818
  106MOL   H14233952   5.499   5.779   2.398 -0.1197 -0.6991  1.6428
  106MOL   H14333953   5.614   5.752   2.262  0.0960 -1.0878  0.5779
  106MOL   H14433954   5.423   5.306   2.735  3.1709 -1.0926  1.8285
  106MOL   H14533955   5.582   5.349   2.682 -1.1829 -1.7743 -0.1836
  106MOL   C14633956   5.529   5.467   2.855 -0.0866  0.0985 -0.0358
  106MOL   O14733957   5.395   5.477   2.921  0.1272 -0.5993 -0.4318
  106MOL   C14833958   5.374   5.605   2.984  0.2382 -0.8402 -0.5255
  106MOL   C14933959   5.230   5.620   3.042  0.1054  0.2524  0.3240
  106MOL   C15033960   5.122   5.674   2.950 -0.0290  0.0705  0.5394
  106MOL   C15133961   5.631   5.394   2.934  0.1141  0.0573 -0.0630
  106MOL   H15233962   5.573   5.563   2.828  1.0839 -0.8719 -1.6273
  106MOL   H15333963   5.446   5.621   3.064  0.5029  3.1063 -1.4911
  106MOL   H15433964   5.400   5.695   2.929 -0.2070  0.0737  0.7216
  106MOL   H15533965   5.240   5.690   3.124  0.1989 -0.4795  0.9455
  106MOL   H15633966   5.206   5.522   3.083  2.1972 -0.6413 -0.5044
  106MOL   H15733967   5.024   5.685   2.996 -1.8386  1.1497 -3.3125
  106MOL   H15833968   5.109   5.598   2.872 -2.6840  0.7702  0.2276
  106MOL   H15933969   5.146   5.766   2.896 -0.7374  0.9302  1.6756
  106MOL   H16033970   5.629   5.427   3.038 -3.0140  0.3298 -0.1663
  106MOL   H16133971   5.596   5.291   2.936 -0.3210  0.1435 -1.8682
  106MOL   C16233972   5.777   5.383   2.884  0.1956  0.2910  0.1629
  106MOL   O16333973   5.841   5.504   2.914 -0.2819 -0.3360  0.0787
  106MOL   C16433974   5.963   5.533   2.841  0.9930  0.2331  0.6225
  106MOL   C16533975   6.053   5.633   2.911  0.0993 -0.2451 -0.3500
  106MOL   C16633976   6.098   5.587   3.044  0.2142  0.7249 -0.8787
  106MOL   C16733977   5.851   5.268   2.951 -0.5577  0.0229  0.1958
  106MOL   H16833978   5.773   5.363   2.777  2.0005  3.5910 -0.6027
  106MOL   H16933979   6.026   5.447   2.819 -0.5842 -0.4753 -1.2782
  106MOL   H17033980   5.939   5.584   2.748 -0.8728 -0.8332  0.5018
  106MOL   H17133981   6.010   5.732   2.924  1.5952  0.1179  2.4043
  106MOL   H17233982   6.136   5.661   2.847 -0.7808  1.5031 -0.7324
  106MOL   H17333983   6.019   5.609   3.116 -0.2137  0.0272 -1.1323
  106MOL   H17433984   6.190   5.637   3.073  0.1732  1.7067 -2.4088
  106MOL   H17533985   6.120   5.480   3.035  0.5812  0.7889 -0.7813
  106MOL   H17633986   5.958   5.283   2.962 -0.2829 -1.6833  0.0879
  106MOL   H17733987   5.818   5.278   3.055  0.6127 -0.0119  0.5793
  106MOL   C17833988   5.829   5.131   2.878  1.0805  0.1913  0.5192
  106MOL   O17933989   5.908   5.146   2.763  0.1239 -0.1636 -0.0546
  106MOL   C18033990   5.862   5.082   2.644  0.0958  0.3930 -0.1352
  106MOL   C18133991   5.963   5.094   2.528  0.3609 -0.4028 -0.6299
  106MOL   C18233992   5.958   5.232   2.455  0.4416  1.0014 -0.1437
  106MOL   C18333993   5.880   5.015   2.962 -0.1938 -0.0439  0.0649
  106MOL   H18433994   5.725   5.112   2.852  1.1544 -1.2840  1.2198
  106MOL   H18533995   5.847   4.976   2.661 -1.9305  0.7588  0.5391
  106MOL   H18633996   5.766   5.126   2.615  0.5516  0.5922 -1.3619
  106MOL   H18733997   5.927   5.015   2.462 -1.9621 -0.5563  0.7563
  106MOL   H18833998   6.067   5.074   2.551  0.5788  1.1970 -0.1893
  106MOL   H18933999   5.873   5.244   2.387 -0.9020  0.1690  1.3558
  106MOL   H19034000   6.039   5.250   2.385  1.7494  2.5307  1.6996
  106MOL   H19134001   5.957   5.312   2.529  0.9335 -0.4205  1.4394
  106MOL   H19234002   5.883   4.928   2.896 -2.8366 -1.3919  1.6573
  106MOL   H19334003   5.983   5.039   2.988 -1.0945  2.7048  1.2360
  106MOL   C19434004   5.791   4.981   3.084  0.3206 -0.1875  0.2182
  106MOL   O19534005   5.644   4.989   3.062  0.0245 -0.0155 -0.3249
  106MOL   C19634006   5.599   4.888   2.967 -0.6347 -0.1538 -0.0324
  106MOL   C19734007   5.459   4.917   2.925  0.0242  0.1410 -0.0654
  106MOL   C19834008   5.428   5.054   2.861  0.0752  0.9370 -0.1875
  106MOL   C19934009   5.816   4.839   3.144  0.4602 -0.2937  0.0978
  106MOL   H20034010   5.801   5.056   3.163  0.7804  2.5359 -2.3404
  106MOL   H20134011   5.669   4.884   2.883 -0.6183  1.1706 -0.0788
  106MOL   H20234012   5.605   4.788   3.011 -0.0718 -0.4705 -0.8027
  106MOL   H20334013   5.396   4.895   3.011  2.8934 -0.4961  1.9085
  106MOL   H20434014   5.431   4.851   2.843 -0.4850  0.4881 -0.1751
  106MOL   H20534015   5.513   5.084   2.799  0.3676  1.2045  0.3334
  106MOL   H20634016   5.422   5.130   2.940 -0.9732 -0.5200  1.1556
  106MOL   H20734017   5.338   5.063   2.800 -0.3032  2.6108  0.5887
  106MOL   H20834018   5.725   4.806   3.194  1.2298 -1.0150  1.0288
  106MOL   H20934019   5.837   4.771   3.061 -2.5184  2.2202 -2.8885
  106MOL   C21034020   5.945   4.826   3.233  0.4250  0.2773 -0.8060
  106MOL   O21134021   5.901   4.889   3.348  0.5065  0.2883  0.4859
  106MOL   C21234022   5.991   4.995   3.379  0.4577 -0.5907 -0.0547
  106MOL   C21334023   5.933   5.073   3.495  0.2058 -0.5204 -0.3569
  106MOL   C21434024   5.797   5.139   3.450  0.0735  0.2230  0.2207
  106MOL   C21534025   5.972   4.679   3.278 -0.0365  0.1647 -1.6066
  106MOL   H21634026   6.034   4.870   3.188  1.2831 -1.1631 -0.5824
  106MOL   H21734027   6.096   4.966   3.386  0.8690  0.7667 -0.4706
  106MOL   H21834028   5.986   5.073   3.303 -2.2224  1.1328  1.7992
  106MOL   H21934029   6.005   5.152   3.517  0.3997 -0.0203 -2.7382
  106MOL   H22034030   5.908   5.010   3.581 -1.3009  1.1681  0.4685
  106MOL   H22134031   5.720   5.064   3.435  1.2102 -0.8350 -0.4202
  106MOL   H22234032   5.801   5.190   3.354  0.5012  2.4975  1.4126
  106MOL   H22334033   5.764   5.212   3.524 -2.1283 -1.2000  0.6765
  106MOL   H22434034   6.062   4.687   3.340 -1.8754  0.5054  1.0805
  106MOL   H22534035   5.897   4.639   3.347 -0.0468  1.1562 -1.0363
  106MOL   C22634036   6.001   4.581   3.160  0.2664 -0.3175 -0.3293
  106MOL   O22734037   6.096   4.651   3.078 -0.3109  0.4360  0.5623
  106MOL   C22834038   6.096   4.590   2.955 -0.1227 -0.6516 -0.1536
  106MOL   C22934039   6.194   4.658   2.862 -0.1155 -0.2044 -0.3216
  106MOL   C23034040   6.329   4.577   2.862  0.7951  0.4458 -0.5882
  106MOL   C23134041   6.036   4.431   3.205  0.3267  1.1579 -0.2656
  106MOL   H23234042   5.907   4.578   3.106 -0.8540 -0.7490  1.5798
  106MOL   H23334043   6.100   4.481   2.952  1.9448 -0.6240  0.9978
  106MOL   H23434044   6.000   4.621   2.915  1.7116  0.5449 -3.8444
  106MOL   H23534045   6.206   4.762   2.894 -0.6933 -0.8968  2.2389
  106MOL   H23634046   6.147   4.653   2.763  0.6936  0.7430 -0.7721
  106MOL   H23734047   6.409   4.619   2.802  0.8809 -1.3928 -1.8145
  106MOL   H23834048   6.309   4.484   2.808 -1.5073  1.5143 -1.6422
  106MOL   H23934049   6.371   4.549   2.958  0.7160  0.0690 -0.6636
  106MOL   H24034050   5.955   4.397   3.269  1.2376 -0.9384 -0.1696
  106MOL   H24134051   6.025   4.364   3.120  1.5261 -2.2900  2.1921
  106MOL   C24234052   6.168   4.415   3.281  0.7090 -0.1494  0.2351
  106MOL   O24334053   6.149   4.293   3.353  0.5368  0.1350 -0.2540
  106MOL   C24434054   6.133   4.303   3.494  0.2578  0.2206  0.6357
  106MOL   C24534055   5.985   4.323   3.542  0.3619  0.7979 -1.0269
  106MOL   C24634056   5.961   4.281   3.688 -1.1914 -0.1567 -0.6037
  106MOL   C24734057   6.294   4.382   3.198  0.7129  0.3622 -0.3324
  106MOL   H24834058   6.190   4.498   3.348 -0.7070  2.0978 -1.9599
  106MOL   H24934059   6.186   4.213   3.523  1.7077  0.5353 -0.9365
  106MOL   H25034060   6.178   4.393   3.537 -2.3937  0.1281  3.7971
  106MOL   H25134061   5.912   4.266   3.484 -1.0480 -0.9074  2.2763
  106MOL   H25234062   5.953   4.426   3.522  0.0248  0.6954 -1.0262
  106MOL   H25334063   6.029   4.329   3.759  0.2686 -0.0586 -2.0151
  106MOL   H25434064   5.971   4.174   3.704  2.0020  0.0229 -1.0137
  106MOL   H25534065   5.861   4.308   3.720 -0.7441  0.0444  0.6704
  106MOL   H25634066   6.263   4.289   3.150 -3.0707  0.6499  1.3945
  106MOL   H25734067   6.307   4.456   3.120 -0.0209  1.6701  0.7532
  106MOL   C25834068   6.433   4.379   3.274  0.1517 -0.5422  0.1852
  106MOL   O25934069   6.534   4.328   3.189  0.3136 -0.1278  0.5736
  106MOL   C26034070   6.552   4.189   3.193  0.3407 -0.6869 -0.8157
  106MOL   C26134071   6.467   4.120   3.086 -1.1426 -0.3121  0.1643
  106MOL   C26234072   6.500   4.188   2.949 -0.3728 -0.2199  0.4444
  106MOL   C26334073   6.490   4.520   3.299 -0.2452  0.2260 -0.2101
  106MOL   H26434074   6.415   4.338   3.373 -1.2901  0.8252  0.4998
  106MOL   H26534075   6.658   4.165   3.182  0.7205  0.4435  0.2340
  106MOL   H26634076   6.523   4.149   3.290 -0.7696  0.3951 -0.6996
  106MOL   H26734077   6.359   4.121   3.100 -1.1644  1.3354  0.0694
  106MOL   H26834078   6.489   4.014   3.086  1.0526  0.1142  0.2152
  106MOL   H26934079   6.601   4.230   2.945 -1.0954  1.3296 -2.7724
  106MOL   H27034080   6.424   4.266   2.945  0.5933  0.8021  1.4498
  106MOL   H27134081   6.492   4.119   2.865 -1.4969 -1.5074  1.5962
  106MOL   H27234082   6.598   4.526   3.282 -0.3374  1.5355 -0.4205
  106MOL   H27334083   6.469   4.596   3.224  0.5524  0.6548 -0.0107
  106MOL   C27434084   6.454   4.597   3.435  0.8216  0.3206  0.4670
  106MOL   O27534085   6.419   4.508   3.549  0.2144  0.3556  0.5991
  106MOL   C27634086   6.533   4.435   3.606  0.3775  0.4115  0.2706
  106MOL   C27734087   6.481   4.360   3.729 -0.3991  0.1595  0.1056
  106MOL   C27834088   6.450   4.448   3.848 -0.1918 -0.2027  0.0387
  106MOL   C27934089   6.560   4.700   3.476  0.2836 -0.0732 -1.2230
  106MOL   H28034090   6.359   4.645   3.412 -0.1073 -2.0057 -0.6841
  106MOL   H28134091   6.587   4.374   3.534 -2.3115  0.7782 -2.1537
  106MOL   H28234092   6.608   4.502   3.647 -0.6278  2.2809 -0.8541
  106MOL   H28334093   6.546   4.279   3.762 -0.5945  0.2176  0.6350
  106MOL   H28434094   6.389   4.309   3.699 -0.4664  1.3895 -1.8302
  106MOL   H28534095   6.398   4.538   3.814 -0.5614 -1.1911 -2.0919
  106MOL   H28634096   6.538   4.497   3.890 -0.9727  1.2740 -0.0041
  106MOL   H28734097   6.388   4.390   3.917  1.3610 -0.5399  1.1561
  106MOL   H28834098   6.654   4.650   3.500 -0.9698 -1.5762  0.7669
  106MOL   H28934099   6.584   4.769   3.396  0.1518 -0.5115 -1.6404
  106MOL   C29034100   6.512   4.792   3.591  0.1522  0.2306  0.4199
  106MOL   O29134101   6.631   4.846   3.652  0.5338 -0.6405 -0.5858
  106MOL   C29234102   6.661   4.775   3.780 -0.0701 -0.2861  0.3411
  106MOL   C29334103   6.800   4.812   3.833  1.0719  0.2322 -0.0023
  106MOL   C29434104   6.815   4.953   3.883 -1.0133  0.1535 -0.1297
  106MOL   C29534105   6.424   4.910   3.540 -0.5527 -0.2054 -0.2932
  106MOL   H29634106   6.451   4.732   3.658  0.3676  0.2368  0.6214
  106MOL   H29734107   6.591   4.805   3.857  0.1040  2.0773 -0.3824
  106MOL   H29834108   6.650   4.667   3.769 -2.5071 -0.0862  0.6398
  106MOL   H29934109   6.875   4.790   3.757 -0.3892 -3.4429 -0.4860
  106MOL   H30034110   6.830   4.745   3.914 -0.8578 -0.2996  0.2981
  106MOL   H30134111   6.745   4.985   3.960  0.4088  2.8023  0.1085
  106MOL   H30234112   6.791   5.019   3.800  0.3073 -0.3445 -0.9330
  106MOL   H30334113   6.918   4.981   3.906  0.2230 -2.5738 -2.0897
  106MOL   H30434114   6.486   4.976   3.481 -1.2014 -0.3549 -1.1555
  106MOL   H30534115   6.353   4.868   3.469 -0.7742  2.3760 -1.6490
  106MOL   C30634116   6.335   4.984   3.651 -0.2141 -0.5806  0.0253
  106MOL   O30734117   6.259   5.083   3.581 -0.0230 -0.2595  0.1426
  106MOL   C30834118   6.309   5.214   3.601 -0.0314 -0.8483 -0.6002
  106MOL   C30934119   6.252   5.324   3.501  0.8651 -0.4676  0.8571
  106MOL   C31034120   6.281   5.303   3.346 -0.1402  0.1317  0.8530
  106MOL   C31134121   6.234   4.900   3.730 -0.5805  0.5437  0.5194
  106MOL   H31234122   6.406   5.031   3.718 -1.1276  0.4331  0.2795
  106MOL   H31334123   6.295   5.259   3.699 -1.2771  0.1674 -1.2269
  106MOL   H31434124   6.417   5.223   3.588  0.0743 -3.0095 -1.4229
  106MOL   H31534125   6.280   5.428   3.517  1.2540 -0.2525 -1.1009
  106MOL   H31634126   6.144   5.329   3.514  1.0945 -0.8879  3.0052
  106MOL   H31734127   6.373   5.352   3.314 -0.7300  0.0492 -1.0397
  106MOL   H31834128   6.207   5.355   3.284  0.6999  0.5878  0.2232
  106MOL   H31934129   6.289   5.198   3.320 -1.3981 -0.7038  3.6265
  106MOL   H32034130   6.155   4.857   3.669  1.0201 -0.5275 -0.8720
  106MOL   H32134131   6.285   4.828   3.794  0.3097  1.1255  0.4756
  106MOL   H32234132   6.179   4.965   3.798 -1.9701  0.7964 -0.8283
  107MOL     C134133   3.826   7.791   3.944  0.5601  0.0545  0.3512
  107MOL     O234134   3.951   7.718   3.955 -0.3970 -0.0382  0.0341
  107MOL     C334135   3.944   7.581   3.926  0.4747  0.0424 -0.6487
  107MOL     C434136   4.079   7.515   3.957 -0.0546 -0.7355  0.4348
  107MOL     C534137   4.180   7.542   3.839  0.3306 -0.4098 -0.9560
  107MOL     C634138   3.849   0.099   4.007  0.5657 -0.5743 -0.4923
  107MOL     H734139   3.742   7.737   3.987  0.6106 -0.5063 -0.2560
  107MOL     H834140   3.866   7.536   3.987 -0.2672 -0.0018 -1.6082
  107MOL     H934141   3.916   7.582   3.820  0.5887  0.7618 -0.6757
  107MOL    H1034142   4.059   7.409   3.975  1.6827 -1.3324 -0.9523
  107MOL    H1134143   4.118   7.554   4.051 -1.9852  1.1459  0.4991
  107MOL    H1234144   4.131   7.508   3.747 -2.0823  2.0607 -0.6597
  107MOL    H1334145   4.269   7.483   3.859 -1.1663 -2.8826 -1.4219
  107MOL    H1434146   4.214   7.646   3.832  1.3965 -0.5740  1.4576
  107MOL    H1534147   3.878   0.098   4.112 -0.8093  2.0562 -0.0445
  107MOL    H1634148   3.943   0.131   3.963  1.8516  1.3599  3.3977
  107MOL    H1734149   3.817   7.805   3.836  1.5874  1.6315  0.4424
  107MOL    C1834150   3.732   0.208   3.986  0.3334 -0.5219 -0.3130
  107MOL    O1934151   3.606   0.171   4.051 -0.2353  0.3955  0.2022
  107MOL    C2034152   3.614   0.113   4.181  0.0423 -0.7831  0.0681
  107MOL    C2134153   3.469   0.081   4.229 -0.1561  0.3013  0.1262
  107MOL    C2234154   3.390   0.205   4.269 -0.3385 -0.1870  0.0135
  107MOL    C2334155   3.747   0.354   4.032 -0.3606 -0.6329 -0.9196
  107MOL    H2434156   3.700   0.212   3.882 -1.7669 -0.4441  0.3055
  107MOL    H2534157   3.670   0.020   4.184 -1.2298 -1.6967 -2.3851
  107MOL    H2634158   3.652   0.185   4.254  1.8638  0.7603 -2.3204
  107MOL    H2734159   3.471   0.013   4.315 -2.4831  1.0591  0.8213
  107MOL    H2834160   3.413   0.036   4.147  0.8413  1.7606 -1.3847
  107MOL    H2934161   3.404   0.222   4.376  0.4438  1.4530 -0.3425
  107MOL    H3034162   3.284   0.177   4.270 -0.3469 -0.1732  1.8563
  107MOL    H3134163   3.392   0.298   4.212 -1.7696  0.4755  1.0196
  107MOL    H3234164   3.770   0.336   4.137 -0.3285  0.0998 -0.8020
  107MOL    H3334165   3.831   0.402   3.982 -0.1612  0.1714  0.1602
  107MOL    C3434166   3.629   0.456   4.024  0.0192 -0.0876  0.3351
  107MOL    O3534167   3.672   0.589   4.045  0.0345  0.0630 -0.1833
  107MOL    C3634168   3.701   0.625   4.175  0.9365  0.7751 -0.4861
  107MOL    C3734169   3.673   0.775   4.182  0.2757 -0.0468  0.1702
  107MOL    C3834170   3.674   0.835   4.328  0.3070  0.0071  0.0915
  107MOL    C3934171   3.549   0.434   3.890  0.2514 -0.1746  0.0955
  107MOL    H4034172   3.561   0.434   4.107 -0.3478  1.2765  0.4080
  107MOL    H4134173   3.647   0.561   4.244  0.2383  0.5784 -1.2101
  107MOL    H4234174   3.804   0.607   4.208  0.8396  0.2566 -0.4518
  107MOL    H4334175   3.573   0.791   4.142 -1.1512 -1.1713  3.1779
  107MOL    H4434176   3.749   0.820   4.118  0.4181 -0.1087  0.2916
  107MOL    H4534177   3.760   0.792   4.379  0.2572  0.4795  0.5786
  107MOL    H4634178   3.593   0.802   4.393  0.4548  0.9319  0.7568
  107MOL    H4734179   3.680   0.944   4.326 -1.2639  0.0902 -0.2810
  107MOL    H4834180   3.622   0.406   3.814  1.5140  2.0639  0.4386
  107MOL    H4934181   3.491   0.346   3.917  0.2539  0.1138  1.0944
  107MOL    C5034182   3.455   0.559   3.847 -0.1172  0.2844  0.1299
  107MOL    O5134183   3.403   0.520   3.715  0.8804  0.4278 -0.0294
  107MOL    C5234184   3.487   0.547   3.608 -0.4465 -0.3304  0.6491
  107MOL    C5334185   3.415   0.487   3.482 -0.8878  0.0150 -0.6603
  107MOL    C5434186   3.371   0.342   3.507  0.2838 -0.4437 -1.1461
  107MOL    C5534187   3.344   0.589   3.947  0.0760  0.1390 -0.2069
  107MOL    H5634188   3.515   0.650   3.846 -0.4120  0.5042  1.3266
  107MOL    H5734189   3.524   0.649   3.609  1.8017 -1.1186  0.2369
  107MOL    H5834190   3.586   0.503   3.619  0.5694  1.7165 -0.0665
  107MOL    H5934191   3.482   0.488   3.396  0.1818  0.5523  0.1804
  107MOL    H6034192   3.334   0.558   3.464  0.8244  2.2075  0.0373
  107MOL    H6134193   3.350   0.294   3.412  0.4096 -1.1564 -0.8120
  107MOL    H6234194   3.282   0.332   3.569  1.9994 -1.6208  1.1844
  107MOL    H6334195   3.452   0.297   3.565 -0.2833 -1.0798 -0.8432
  107MOL    H6434196   3.296   0.494   3.966  0.5076 -0.3539 -1.4948
  107MOL    H6534197   3.385   0.612   4.045 -0.7077 -2.5678  0.7738
  107MOL    C6634198   3.235   0.693   3.903  0.4491  0.2854  0.1971
  107MOL    O6734199   3.148   0.729   4.004 -0.0798  0.6312 -0.0585
  107MOL    C6834200   3.017   0.699   3.998 -0.6206 -0.5781 -0.6622
  107MOL    C6934201   2.944   0.780   4.111 -0.0970 -0.2705 -0.4628
  107MOL    C7034202   2.966   0.932   4.104 -0.4023  0.5925  0.0216
  107MOL    C7134203   3.285   0.822   3.840 -1.2159 -0.2121 -0.3803
  107MOL    H7234204   3.172   0.647   3.827  0.3358  0.3526  0.2492
  107MOL    H7334205   2.974   0.727   3.901  0.0534 -0.5445 -0.9563
  107MOL    H7434206   3.000   0.593   4.016  0.3263 -0.8041 -1.0605
  107MOL    H7534207   2.987   0.736   4.200  0.0067 -0.9397 -0.8457
  107MOL    H7634208   2.837   0.758   4.113 -0.6672  2.2994  0.8377
  107MOL    H7734209   2.921   0.979   4.016  0.6627 -2.7545 -2.4288
  107MOL    H7834210   3.070   0.964   4.113 -0.5153  0.8283  0.5127
  107MOL    H7934211   2.918   0.973   4.193 -2.7547 -2.8837  0.4244
  107MOL    H8034212   3.325   0.879   3.924  0.2703  0.3481 -1.4462
  107MOL    H8134213   3.373   0.804   3.778  0.0062  1.9262  0.6670
  107MOL    C8234214   3.183   0.908   3.759  0.4313  0.1712  0.7461
  107MOL    O8334215   3.233   1.035   3.716  0.2834 -0.6610 -0.1731
  107MOL    C8434216   3.242   1.139   3.819  0.9113 -0.1198  0.1792
  107MOL    C8534217   3.330   1.249   3.773  0.0324 -0.1047 -0.9455
  107MOL    C8634218   3.477   1.207   3.751 -0.8237 -0.4273 -0.1806
  107MOL    C8734219   3.146   0.836   3.627  0.9567 -0.2568 -0.3034
  107MOL    H8834220   3.088   0.915   3.813 -0.7361 -1.2285 -1.0768
  107MOL    H8934221   3.144   1.179   3.843  1.1454 -0.1387  1.1623
  107MOL    H9034222   3.281   1.101   3.913  1.7838  0.3287  0.0057
  107MOL    H9134223   3.338   1.325   3.850  1.0601 -0.1530 -0.9938
  107MOL    H9234224   3.292   1.293   3.680  1.1168 -0.5680 -1.6144
  107MOL    H9334225   3.488   1.111   3.701  1.3361 -0.6674  0.6968
  107MOL    H9434226   3.536   1.208   3.843  0.6855 -1.4263 -1.1111
  107MOL    H9534227   3.538   1.275   3.691 -2.4870  1.2278 -0.0399
  107MOL    H9634228   3.234   0.813   3.568  1.9351  0.6642  0.7845
  107MOL    H9734229   3.091   0.747   3.655  0.4112 -0.3818 -1.7111
  107MOL    C9834230   3.048   0.924   3.535  0.5040  0.5772  0.1162
  107MOL    O9934231   3.007   0.844   3.419  0.4159  0.5389 -0.4251
  107MOL   C10034232   3.111   0.804   3.337  0.0493  0.8357  0.3330
  107MOL   C10134233   3.065   0.798   3.187  0.1254  0.6113 -1.0323
  107MOL   C10234234   3.176   0.807   3.078  0.1041 -0.4814 -0.5353
  107MOL   C10334235   2.921   0.974   3.607 -0.4375 -0.3032  0.0455
  107MOL   H10434236   3.111   1.008   3.506 -0.5495  1.9118  1.6601
  107MOL   H10534237   3.197   0.869   3.352  1.1804  0.1438 -2.7067
  107MOL   H10634238   3.139   0.704   3.368  1.1451  0.4680 -1.7079
  107MOL   H10734239   3.001   0.885   3.169 -1.7625  0.4055  4.0354
  107MOL   H10834240   3.011   0.707   3.161  1.3485 -1.0227  1.9435
  107MOL   H10934241   3.237   0.717   3.085  3.2868  1.7355  1.1904
  107MOL   H11034242   3.245   0.889   3.098 -0.0403 -0.3582 -0.5372
  107MOL   H11134243   3.136   0.818   2.977  0.3421  1.8162 -0.4075
  107MOL   H11234244   2.844   0.899   3.593  2.4129 -3.2097 -0.5735
  107MOL   H11334245   2.929   0.990   3.714  0.6121 -0.8812  0.0555
  107MOL   C11434246   2.873   1.108   3.540  0.0476 -0.2448 -0.1722
  107MOL   O11534247   2.747   1.154   3.587  0.2905  0.1390  0.0608
  107MOL   C11634248   2.634   1.079   3.535  0.4485 -0.8567  0.4544
  107MOL   C11734249   2.501   1.133   3.583 -1.3385  0.6333 -0.7632
  107MOL   C11834250   2.388   1.033   3.579 -0.1045  0.0331 -0.5118
  107MOL   C11934251   2.964   1.231   3.567  0.7568  0.2956  0.3489
  107MOL   H12034252   2.873   1.093   3.432  1.3706  0.7241 -0.3034
  107MOL   H12134253   2.637   1.081   3.426  2.2977  1.6980  0.5007
  107MOL   H12234254   2.651   0.975   3.561  1.7619 -1.2467 -1.8597
  107MOL   H12334255   2.478   1.224   3.526 -2.2670 -0.0856 -1.5568
  107MOL   H12434256   2.514   1.162   3.687 -0.8722 -1.9474 -0.0903
  107MOL   H12534257   2.330   1.038   3.487 -1.2450 -1.3781  0.1099
  107MOL   H12634258   2.310   1.072   3.645  0.2937  0.0907 -0.0700
  107MOL   H12734259   2.418   0.934   3.613  2.9185  1.1735  0.3177
  107MOL   H12834260   2.984   1.228   3.674  0.5013  0.4997  0.4047
  107MOL   H12934261   3.068   1.222   3.537  0.4650  1.0532 -0.9107
  107MOL   C13034262   2.920   1.368   3.505 -0.2555  0.3999  0.3265
  107MOL   O13134263   3.002   1.464   3.573  0.0685 -0.8196 -0.7949
  107MOL   C13234264   2.975   1.492   3.709  0.4990 -0.3731 -0.1611
  107MOL   C13334265   2.975   1.649   3.720 -0.1407 -0.4579 -0.1304
  107MOL   C13434266   3.106   1.714   3.668 -0.8382 -0.4156  0.6354
  107MOL   C13534267   2.938   1.384   3.355 -0.3100  0.2600  0.6093
  107MOL   H13634268   2.818   1.381   3.540  0.3871 -0.5537  2.6565
  107MOL   H13734269   2.873   1.466   3.739  0.5667  1.6158  1.9329
  107MOL   H13834270   3.051   1.446   3.772 -1.4795 -2.6808  0.6287
  107MOL   H13934271   2.959   1.664   3.827 -2.3116 -1.2001 -0.3147
  107MOL   H14034272   2.892   1.691   3.663 -0.0238  1.0396  0.7579
  107MOL   H14134273   3.093   1.818   3.640 -0.6250 -1.0325 -1.9444
  107MOL   H14234274   3.139   1.682   3.569 -0.5923 -0.1615  0.6343
  107MOL   H14334275   3.181   1.712   3.747  0.5834  0.8976 -0.6468
  107MOL   H14434276   3.036   1.343   3.334  0.8664  2.6596  1.2072
  107MOL   H14534277   2.869   1.325   3.294  1.0802 -0.7864  0.0503
  107MOL   C14634278   2.922   1.525   3.309  0.0920  0.6598  0.1967
  107MOL   O14734279   2.958   1.525   3.173 -0.2375  0.1073  0.5064
  107MOL   C14834280   3.094   1.532   3.143  0.3605 -0.2970  0.0966
  107MOL   C14934281   3.116   1.490   3.000 -0.3673  0.1251  0.6716
  107MOL   C15034282   3.052   1.585   2.897  0.4893  0.2989 -0.6545
  107MOL   C15134283   2.781   1.586   3.305 -0.0915  0.0182  0.2774
  107MOL   H15234284   2.996   1.589   3.357  1.5127 -2.3712  2.2284
  107MOL   H15334285   3.127   1.634   3.164  1.1491 -1.0674  2.7465
  107MOL   H15434286   3.149   1.468   3.211  1.7547 -0.2812 -0.9818
  107MOL   H15534287   3.096   1.383   2.996  0.6508  0.0079 -2.4830
  107MOL   H15634288   3.223   1.480   2.981 -0.4053 -1.1865  1.1261
  107MOL   H15734289   2.961   1.631   2.936  2.3959  3.2766  0.3809
  107MOL   H15834290   3.012   1.527   2.813  0.0711  0.4017 -0.5258
  107MOL   H15934291   3.117   1.654   2.845  0.1453  0.5965 -0.6933
  107MOL   H16034292   2.726   1.530   3.229  1.0526  0.7081 -1.0897
  107MOL   H16134293   2.727   1.569   3.398 -1.0044 -0.8412 -0.4051
  107MOL   C16234294   2.771   1.728   3.260 -0.2352  0.7920  0.4674
  107MOL   O16334295   2.632   1.761   3.246  0.1932 -0.7892 -0.6355
  107MOL   C16434296   2.569   1.746   3.117  0.4170  0.8583 -0.3960
  107MOL   C16534297   2.426   1.795   3.117 -0.1591 -0.5296 -0.0474
  107MOL   C16634298   2.335   1.768   2.992 -0.2544 -0.2753  0.4300
  107MOL   C16734299   2.824   1.825   3.369 -0.1566 -0.6890  0.2927
  107MOL   H16834300   2.819   1.737   3.163 -0.3340 -0.3807  0.3095
  107MOL   H16934301   2.623   1.787   3.031  3.2668 -1.1824  0.3103
  107MOL   H17034302   2.564   1.638   3.101  1.2395  0.9778 -1.5917
  107MOL   H17134303   2.434   1.903   3.126  0.2518 -0.6300  0.8868
  107MOL   H17234304   2.380   1.754   3.207  1.2152  0.1392  0.9862
  107MOL   H17334305   2.232   1.800   3.012  0.4573  0.4243  3.2198
  107MOL   H17434306   2.337   1.661   2.977 -0.0836 -0.2972  0.6051
  107MOL   H17534307   2.381   1.828   2.913 -0.3315 -1.5383 -0.5756
  107MOL   H17634308   2.774   1.812   3.465  0.7839 -2.1354  0.6090
  107MOL   H17734309   2.927   1.796   3.393  1.3478  2.5352 -1.9672
  107MOL   C17834310   2.820   1.972   3.328  0.3892  0.3321  0.0433
  107MOL   O17934311   2.904   2.042   3.418  0.4340 -1.3816  0.1627
  107MOL   C18034312   2.838   2.087   3.541  0.1469  0.3252 -0.0091
  107MOL   C18134313   2.933   2.159   3.631 -0.4969  0.0104  0.0685
  107MOL   C18234314   3.013   2.282   3.569  0.1010 -0.7922 -0.8296
  107MOL   C18334315   2.874   1.996   3.182  0.5577  0.2061 -0.4038
  107MOL   H18434316   2.717   2.007   3.340  0.2672  0.0199 -0.1109
  107MOL   H18534317   2.751   2.145   3.510  0.3669  0.5175 -0.2683
  107MOL   H18634318   2.793   2.010   3.604 -1.7281  1.6151  0.2571
  107MOL   H18734319   3.009   2.090   3.670 -0.9818  0.6471  2.1825
  107MOL   H18834320   2.881   2.197   3.718  1.5356 -1.4173  1.9664
  107MOL   H18934321   3.074   2.251   3.484 -0.0532 -0.5819 -1.0176
  107MOL   H19034322   3.076   2.330   3.644 -0.9469 -1.0822  0.2555
  107MOL   H19134323   2.947   2.366   3.548  1.5560  0.9435  1.3005
  107MOL   H19234324   2.978   1.965   3.183  1.1173  2.0469  1.3498
  107MOL   H19334325   2.812   1.940   3.112 -0.3489  1.9300 -1.0137
  107MOL   C19434326   2.878   2.146   3.143  0.0265  0.0108  0.8002
  107MOL   O19534327   2.954   2.152   3.019  0.3214  0.4095  0.0146
  107MOL   C19634328   3.089   2.178   3.041  0.2618 -0.2061  0.3496
  107MOL   C19734329   3.160   2.208   2.907 -0.3703 -0.0654 -0.4011
  107MOL   C19834330   3.096   2.313   2.825  0.5990  0.3695  0.0203
  107MOL   C19934331   2.745   2.221   3.117 -0.6180  0.7749  0.0717
  107MOL   H20034332   2.924   2.207   3.221 -1.3834  1.8687  0.1996
  107MOL   H20134333   3.108   2.267   3.101  1.0155  0.7077 -1.2024
  107MOL   H20234334   3.138   2.096   3.093  1.4854  0.2170 -0.1041
  107MOL   H20334335   3.175   2.124   2.839 -1.8633  1.0549 -2.1473
  107MOL   H20434336   3.261   2.239   2.931 -1.0883  0.9207  1.4393
  107MOL   H20534337   3.175   2.367   2.772  0.4978  1.4060  0.8891
  107MOL   H20634338   3.061   2.390   2.894  1.7271 -1.1293  2.3561
  107MOL   H20734339   3.013   2.280   2.764 -0.2293  1.3194  0.6187
  107MOL   H20834340   2.703   2.182   3.025  1.2137  0.0494 -0.4870
  107MOL   H20934341   2.670   2.200   3.193 -2.2269 -1.9232 -2.1734
  107MOL   C21034342   2.741   2.373   3.136 -0.4268  0.5188  0.5973
  107MOL   O21134343   2.633   2.427   3.055  0.0207  0.0819  0.0486
  107MOL   C21234344   2.664   2.452   2.917 -0.2940  0.7020  0.6982
  107MOL   C21334345   2.542   2.498   2.840  0.4524 -0.3768  0.2810
  107MOL   C21434346   2.449   2.378   2.814 -0.5799 -0.0166 -0.1022
  107MOL   C21534347   2.735   2.412   3.287  0.2380 -0.1135  0.4788
  107MOL   H21634348   2.837   2.410   3.102  0.4283  1.1515  3.5362
  107MOL   H21734349   2.745   2.524   2.910 -2.1388  2.8655  1.0851
  107MOL   H21834350   2.698   2.361   2.867  4.4039  2.6295  0.1676
  107MOL   H21934351   2.570   2.541   2.744 -0.3464  1.9113  1.0351
  107MOL   H22034352   2.487   2.575   2.894  0.4453 -0.6257  0.6282
  107MOL   H22134353   2.342   2.403   2.810  0.0166  2.7783  0.2550
  107MOL   H22234354   2.453   2.314   2.902  1.1751  1.9207  1.2673
  107MOL   H22334355   2.470   2.328   2.720  1.1647 -1.1730  0.8831
  107MOL   H22434356   2.635   2.397   3.326 -0.2558 -0.2216 -0.8215
  107MOL   H22534357   2.794   2.350   3.355 -1.8877 -0.9393  1.6271
  107MOL   C22634358   2.787   2.555   3.315  0.2676  1.1126  0.2232
  107MOL   O22734359   2.918   2.579   3.257 -0.2691 -0.3111 -0.0671
  107MOL   C22834360   3.029   2.544   3.333  0.4574 -0.2351  0.1724
  107MOL   C22934361   3.141   2.628   3.279  0.9423  0.0405 -0.3857
  107MOL   C23034362   3.169   2.604   3.135 -0.1101  0.3572  0.3810
  107MOL   C23134363   2.688   2.665   3.254 -0.7547  0.0227 -0.3792
  107MOL   H23234364   2.791   2.578   3.422 -0.6497 -0.3297  0.5815
  107MOL   H23334365   3.003   2.586   3.430  1.1088  0.4434  0.0527
  107MOL   H23434366   3.041   2.436   3.322 -0.7341 -0.3481 -0.0891
  107MOL   H23534367   3.233   2.614   3.337  0.7378 -1.3627 -0.3696
  107MOL   H23634368   3.115   2.733   3.295  0.9594 -0.0500  0.2695
  107MOL   H23734369   3.169   2.499   3.105 -2.2681 -0.0321  1.6800
  107MOL   H23834370   3.258   2.657   3.099 -0.5768  2.0387  1.6356
  107MOL   H23934371   3.087   2.641   3.074 -0.1937  0.5023  0.5796
  107MOL   H24034372   2.725   2.762   3.289 -4.0322  0.8667  0.9052
  107MOL   H24134373   2.686   2.658   3.146  0.8133  0.0015 -0.4231
  107MOL   C24234374   2.541   2.665   3.299 -0.4975  0.4769 -0.2819
  107MOL   O24334375   2.546   2.691   3.440 -0.3529 -0.2590  0.8475
  107MOL   C24434376   2.486   2.592   3.518  0.8438 -0.7037  0.0389
  107MOL   C24534377   2.510   2.627   3.663  0.0965 -0.5572  0.7910
  107MOL   C24634378   2.655   2.629   3.698 -0.1758 -0.0008 -0.1170
  107MOL   C24734379   2.444   2.785   3.249  0.1810  0.0641  0.4535
  107MOL   H24834380   2.504   2.566   3.271  3.4004 -0.6350 -1.8313
  107MOL   H24934381   2.382   2.593   3.483  0.5855 -3.0688  0.6779
  107MOL   H25034382   2.532   2.495   3.499  1.7781 -0.3409  0.4182
  107MOL   H25134383   2.456   2.556   3.726  2.3888 -1.2771  1.9979
  107MOL   H25234384   2.475   2.730   3.677  1.6104  0.3690 -1.9642
  107MOL   H25334385   2.697   2.529   3.691 -0.1716  0.0943 -1.7692
  107MOL   H25434386   2.657   2.645   3.806  1.3200  0.1861 -0.1716
  107MOL   H25534387   2.715   2.699   3.639 -1.1127  1.8768  1.1104
  107MOL   H25634388   2.364   2.807   3.319 -0.0543 -0.8113  0.4630
  107MOL   H25734389   2.494   2.880   3.268  1.1156 -0.4274  0.4767
  107MOL   C25834390   2.386   2.778   3.101  0.3120  0.5346 -0.6626
  107MOL   O25934391   2.270   2.704   3.107 -0.1035  0.2708  0.0037
  107MOL   C26034392   2.263   2.581   3.040  0.6756  0.2701 -0.4047
  107MOL   C26134393   2.143   2.505   3.093  0.1246 -0.0128 -0.4423
  107MOL   C26234394   2.147   2.477   3.244 -0.1299 -0.2653  0.0840
  107MOL   C26334395   2.367   2.918   3.041 -0.1669  1.0486  0.4639
  107MOL   H26434396   2.464   2.729   3.042  0.0893  0.5400 -0.9645
  107MOL   H26534397   2.258   2.593   2.932  0.7284  1.2102 -0.3081
  107MOL   H26634398   2.351   2.522   3.067 -0.2137 -0.9784 -0.2179
  107MOL   H26734399   2.132   2.410   3.040 -1.3975  1.9882 -3.8876
  107MOL   H26834400   2.055   2.567   3.075 -0.0221  0.5965  2.2611
  107MOL   H26934401   2.063   2.423   3.288  1.3495 -2.0273  0.7601
  107MOL   H27034402   2.147   2.567   3.305  1.3740 -1.5201  1.9635
  107MOL   H27134403   2.239   2.425   3.268 -0.9414 -1.4282  0.6771
  107MOL   H27234404   2.297   2.912   2.958 -0.6022  2.5122  0.7155
  107MOL   H27334405   2.316   2.982   3.113 -1.2928  0.8069 -0.1107
  107MOL   C27434406   2.496   2.993   3.006 -0.1757  0.3348  0.0056
  107MOL   O27534407   2.559   2.914   2.903 -0.1814  0.0660  0.2061
  107MOL   C27634408   2.700   2.889   2.917 -0.0369 -0.4942  0.4448
  107MOL   C27734409   2.763   2.857   2.777  0.3374 -0.2710  0.3654
  107MOL   C27834410   2.904   2.788   2.775  0.8276  0.0321 -0.3546
  107MOL   C27934411   2.482   3.138   2.948  0.4791  0.0713 -0.7155
  107MOL   H28034412   2.555   2.990   3.097 -1.4985  0.7912  0.8930
  107MOL   H28134413   2.750   2.980   2.951 -0.2221 -0.4847  0.6947
  107MOL   H28234414   2.709   2.823   3.002 -0.5826  0.3688  1.1794
  107MOL   H28334415   2.766   2.950   2.720  0.3307 -0.3184  0.2874
  107MOL   H28434416   2.700   2.786   2.723  1.8936  0.4429 -2.4970
  107MOL   H28534417   2.906   2.707   2.848  0.8783 -0.6852 -1.1428
  107MOL   H28634418   2.980   2.862   2.801  1.0532  0.2720 -1.6705
  107MOL   H28734419   2.923   2.732   2.683 -0.4833 -0.9449 -0.0398
  107MOL   H28834420   2.580   3.159   2.904 -0.5829 -1.2186 -3.8113
  107MOL   H28934421   2.405   3.144   2.872  0.6137 -1.0362 -0.9571
  107MOL   C29034422   2.448   3.236   3.058 -0.2548 -0.3009  0.3033
  107MOL   O29134423   2.533   3.214   3.172  0.5005 -0.3810  0.1119
  107MOL   C29234424   2.494   3.276   3.287  0.1772  0.3020  0.6183
  107MOL   C29334425   2.462   3.152   3.375 -0.0279 -0.5912 -0.4478
  107MOL   C29434426   2.582   3.076   3.423 -0.6784  0.5137  0.0948
  107MOL   C29534427   2.461   3.379   3.001 -0.8810 -0.3706 -0.2836
  107MOL   H29634428   2.344   3.223   3.088 -0.6712  1.6449 -0.2453
  107MOL   H29734429   2.563   3.347   3.333  2.0704 -1.1024  0.0075
  107MOL   H29834430   2.394   3.319   3.284 -1.1186 -2.1164  4.5365
  107MOL   H29934431   2.383   3.091   3.331 -0.3172 -1.0389  0.6861
  107MOL   H30034432   2.422   3.200   3.464 -0.8731 -3.0784  0.5446
  107MOL   H30134433   2.639   3.038   3.338  0.7502  2.5802  0.0970
  107MOL   H30234434   2.546   2.999   3.491 -0.5528 -1.7765 -2.3709
  107MOL   H30334435   2.659   3.130   3.478 -1.7320  0.8231  1.3020
  107MOL   H30434436   2.429   3.452   3.076 -2.5893 -0.3715 -0.9826
  107MOL   H30534437   2.566   3.404   2.991 -1.1298  1.1498  0.6406
  107MOL   C30634438   2.387   3.406   2.871  0.5834  0.1092 -0.4809
  107MOL   O30734439   2.250   3.374   2.886  0.3511 -0.4608  0.6347
  107MOL   C30834440   2.181   3.337   2.767  0.7309  0.3729  0.0478
  107MOL   C30934441   2.046   3.274   2.816  0.1984 -0.2621 -0.1827
  107MOL   C31034442   1.955   3.243   2.700 -0.9262 -0.4052 -0.2545
  107MOL   C31134443   2.395   3.549   2.824 -0.4556  0.5942  0.0181
  107MOL   H31234444   2.436   3.341   2.797 -0.8375  1.7766 -2.9730
  107MOL   H31334445   2.168   3.428   2.708  0.8856  1.2193  1.2960
  107MOL   H31434446   2.230   3.270   2.697 -0.0492  0.2126 -0.3528
  107MOL   H31534447   1.993   3.340   2.884 -0.3512 -1.5738  0.6763
  107MOL   H31634448   2.064   3.184   2.873 -0.5031 -0.8857 -0.9263
  107MOL   H31734449   1.948   3.339   2.649  0.2592  1.4356  2.9323
  107MOL   H31834450   1.860   3.211   2.742 -1.1646  0.9891  0.2697
  107MOL   H31934451   1.997   3.171   2.629  0.5551 -0.2959  0.4828
  107MOL   H32034452   2.331   3.622   2.874  1.8372  3.1859 -0.7023
  107MOL   H32134453   2.497   3.587   2.822  0.4307 -1.7567 -0.6111
  107MOL   H32234454   2.359   3.564   2.723  0.1631 -1.7261 -0.5619
  108MOL     C134455   0.312   7.448   3.822  0.6680 -0.0228 -0.2491
  108MOL     O234456   0.350   7.525   3.712 -0.1206 -0.3209  0.3305
  108MOL     C334457   0.388   7.661   3.737 -0.1029  0.3099 -0.1374
  108MOL     C434458   0.442   7.736   3.622 -0.5454  0.2538 -0.1359
  108MOL     C534459   0.450   0.058   3.636  0.1685 -0.5242  0.7579
  108MOL     C634460   0.256   7.313   3.779  0.0300 -0.3352 -0.6804
  108MOL     H734461   0.232   7.497   3.878  1.5447  2.1698 -0.8830
  108MOL     H834462   0.291   7.702   3.763 -0.8813 -2.3977  1.3948
  108MOL     H934463   0.450   7.669   3.827 -0.2318  2.8699 -0.2516
  108MOL    H1034464   0.391   7.710   3.529 -2.6860  0.5229  0.9383
  108MOL    H1134465   0.546   7.703   3.613  0.4375  3.6817 -2.0888
  108MOL    H1234466   0.350   0.096   3.661  0.3995 -0.1421  1.1201
  108MOL    H1334467   0.490   0.096   3.543 -0.2918 -1.5726  0.1230
  108MOL    H1434468   0.515   0.094   3.716 -0.7985  1.9783  0.4789
  108MOL    H1534469   0.337   7.258   3.732 -1.0994  0.0239 -3.1030
  108MOL    H1634470   0.247   7.253   3.870 -1.3095  0.5452 -0.2188
  108MOL    H1734471   0.398   7.422   3.883 -0.4333 -3.1999  0.0467
  108MOL    C1834472   0.131   7.305   3.696 -0.0533 -0.3606  0.1043
  108MOL    O1934473   0.114   7.168   3.671 -0.0501  0.0185 -0.4086
  108MOL    C2034474   0.131   7.127   3.533 -0.4690 -0.1827  0.2878
  108MOL    C2134475   7.826   7.144   3.455 -0.2132  0.0343  0.1364
  108MOL    C2234476   0.029   7.128   3.306 -0.2919  0.4688  0.4405
  108MOL    C2334477   0.008   7.366   3.765  0.0467  0.1006 -0.6933
  108MOL    H2434478   0.144   7.354   3.600 -0.6350 -3.2955 -1.5290
  108MOL    H2534479   0.210   7.188   3.489  1.0492 -1.3934  1.3130
  108MOL    H2634480   0.173   7.027   3.524 -0.5436 -0.1917  0.0200
  108MOL    H2734481   7.791   7.244   3.482  0.5788  1.1355 -2.7806
  108MOL    H2834482   7.747   7.076   3.488 -1.6031  1.5012 -0.1334
  108MOL    H2934483   7.772   7.148   3.242 -1.4484 -1.4420  1.3286
  108MOL    H3034484   0.060   7.024   3.296 -0.7499  0.3054  0.7169
  108MOL    H3134485   0.108   7.195   3.271 -0.6082 -0.8298 -2.9454
  108MOL    H3234486   7.745   7.314   3.737  1.1847 -2.0584 -0.5040
  108MOL    H3334487   0.031   7.350   3.871  1.1703 -2.2093 -1.2466
  108MOL    C3434488   7.812   7.514   3.743  0.2584  0.2897  0.1937
  108MOL    O3534489   7.766   7.543   3.610  0.2499 -0.2312  0.3714
  108MOL    C3634490   0.031   7.614   3.534 -0.0390  0.4110 -0.5302
  108MOL    C3734491   7.801   7.625   3.385 -0.1320  0.1129 -0.1431
  108MOL    C3834492   7.682   7.716   3.355  0.4176  0.7721 -1.0170
  108MOL    C3934493   7.701   7.560   3.839 -0.1648 -0.2750 -0.0248
  108MOL    H4034494   0.073   7.575   3.762  0.3415  0.4351 -0.6158
  108MOL    H4134495   0.057   7.715   3.563  1.1768  0.2559 -1.0587
  108MOL    H4234496   0.124   7.558   3.538  0.4027  1.2115  0.4609
  108MOL    H4334497   7.777   7.523   3.354  0.4761 -0.3865  0.9703
  108MOL    H4434498   0.056   7.648   3.319  1.3561 -0.9847  1.2968
  108MOL    H4534499   7.671   7.728   3.247 -3.1158 -1.6459 -1.0062
  108MOL    H4634500   7.693   7.817   3.394 -1.8711  0.9968 -0.8926
  108MOL    H4734501   7.593   7.667   3.394  0.2306  1.7516 -0.2039
  108MOL    H4834502   7.625   7.483   3.835 -0.6114  0.2196 -1.4249
  108MOL    H4934503   7.735   7.550   3.942 -0.0957  1.8098  0.1780
  108MOL    C5034504   7.641   7.697   3.807 -0.0653 -0.3165 -0.1192
  108MOL    O5134505   7.543   7.710   3.912 -0.3616  0.2399  0.4232
  108MOL    C5234506   7.415   7.722   3.855 -0.2260 -0.6680  0.2466
  108MOL    C5334507   7.294   7.762   3.949 -0.5715 -0.3828 -0.8309
  108MOL    C5434508   7.261   7.672   4.062  0.2232  0.4322 -0.0782
  108MOL    C5534509   7.751   7.806   3.820  0.1341 -0.2236  0.2564
  108MOL    H5634510   7.602   7.697   3.705  0.3685 -2.2413 -0.3011
  108MOL    H5734511   7.406   7.808   3.788 -0.5086  0.2726  1.4685
  108MOL    H5834512   7.380   7.632   3.805 -1.7792  0.2542 -0.3820
  108MOL    H5934513   7.207   7.771   3.883  0.0842 -1.9330 -1.9471
  108MOL    H6034514   7.323   0.032   3.985 -4.3598  0.6295 -0.3528
  108MOL    H6134515   7.349   7.659   4.124  0.0157 -0.9953 -0.0618
  108MOL    H6234516   7.224   7.576   4.027 -0.0029 -0.0557  1.4544
  108MOL    H6334517   7.185   7.718   4.125 -1.3470  0.3181 -1.8390
  108MOL    H6434518   7.793   7.810   3.920 -1.0408 -1.0501  0.7887
  108MOL    H6534519   0.008   7.774   3.759 -2.0979 -3.1505 -1.4490
  108MOL    C6634520   7.693   0.117   3.779  0.1650 -0.2224  0.2737
  108MOL    O6734521   7.774   0.215   3.846  0.3655 -0.2343  0.1584
  108MOL    C6834522   7.728   0.247   3.976 -0.2717  0.1319 -1.0445
  108MOL    C6934523   7.806   0.374   4.004  0.2517 -0.1091  0.1433
  108MOL    C7034524   0.121   0.350   4.055  0.2377 -0.3211  0.3237
  108MOL    C7134525   7.694   0.135   3.630 -0.3546  1.4346 -0.3345
  108MOL    H7234526   7.589   0.118   3.813  0.2049  0.1531  0.3866
  108MOL    H7334527   7.620   0.262   3.975  0.0350  2.7704 -0.6501
  108MOL    H7434528   7.761   0.170   4.045 -3.8038  1.0558  1.7956
  108MOL    H7534529   7.756   0.431   4.082  0.2558  0.9014 -0.5839
  108MOL    H7634530   7.801   0.433   3.912 -0.2716 -0.6083 -0.1515
  108MOL    H7734531   0.183   0.438   4.046 -0.6663  0.1171 -1.7992
  108MOL    H7834532   0.165   0.274   3.991  0.9343 -0.7296  1.2666
  108MOL    H7934533   0.132   0.309   4.156  0.5568 -1.5400 -0.1949
  108MOL    H8034534   7.798   0.144   3.600  0.3986  0.1535  1.7702
  108MOL    H8134535   7.652   0.044   3.587  2.7491 -1.8447  3.1887
  108MOL    C8234536   7.617   0.250   3.561  0.6723  0.2058 -0.2935
  108MOL    O8334537   7.475   0.219   3.589 -0.7518 -0.1688 -0.4448
  108MOL    C8434538   7.392   0.246   3.472 -0.4954  0.6249  0.4387
  108MOL    C8534539   7.249   0.204   3.511  0.0925 -0.2292 -0.4181
  108MOL    C8634540   7.159   0.189   3.386  0.5700  0.0039  0.3286
  108MOL    C8734541   7.665   0.384   3.620 -0.1540 -0.7258  0.3588
  108MOL    H8834542   7.633   0.251   3.453  0.3778  2.1648 -0.3498
  108MOL    H8934543   7.378   0.347   3.432  0.2249  0.9535  1.0075
  108MOL    H9034544   7.435   0.186   3.392  0.5408 -1.5511  2.5848
  108MOL    H9134545   7.204   0.282   3.573 -0.1034  0.5138 -1.4683
  108MOL    H9234546   7.250   0.119   3.578 -3.1577 -0.2723 -0.3222
  108MOL    H9334547   7.053   0.174   3.407  0.3094 -0.3612 -1.1734
  108MOL    H9434548   7.184   0.103   3.324  1.3578  0.2737  0.2700
  108MOL    H9534549   7.170   0.279   3.325 -0.8353  0.3494  0.5509
  108MOL    H9634550   7.641   0.388   3.726  0.0100 -0.4548  0.3866
  108MOL    H9734551   7.771   0.402   3.606 -0.5243 -0.5528 -2.5198
  108MOL    C9834552   7.606   0.506   3.540  0.6954 -0.1174  0.4771
  108MOL    O9934553   7.679   0.608   3.588  0.2509 -0.0585  0.2951
  108MOL   C10034554   7.616   0.675   3.699  0.2486  0.3703  0.0888
  108MOL   C10134555   7.719   0.778   3.740  0.0453  0.6303  0.1062
  108MOL   C10234556   0.010   0.717   3.810  0.5981  0.3213  0.6079
  108MOL   C10334557   7.639   0.500   3.388  0.0103 -0.1807  1.1619
  108MOL   H10434558   7.498   0.516   3.552  0.1522 -1.6778 -2.6650
  108MOL   H10534559   7.522   0.722   3.669 -0.8707 -1.3953  0.6860
  108MOL   H10634560   7.584   0.609   3.781 -0.1725 -0.2947 -0.5983
  108MOL   H10734561   7.670   0.857   3.796  3.9315  0.3199  4.2154
  108MOL   H10834562   7.750   0.833   3.651 -0.9899 -1.7757 -1.7965
  108MOL   H10934563   7.813   0.684   3.911  0.2122 -1.0344  0.0725
  108MOL   H11034564   0.097   0.780   3.827  0.6427 -0.0425  1.7828
  108MOL   H11134565   0.034   0.626   3.756  0.3967 -0.3449  1.6358
  108MOL   H11234566   7.746   0.478   3.377 -0.2895 -1.5605  0.9194
  108MOL   H11334567   7.588   0.415   3.343  0.0725  0.4434 -0.1152
  108MOL   C11434568   7.602   0.628   3.309  0.9831  0.0279 -0.2360
  108MOL   O11534569   7.615   0.615   3.168  0.5303 -0.5399 -0.1358
  108MOL   C11634570   7.751   0.580   3.132 -0.0576  0.1491 -0.2393
  108MOL   C11734571   7.757   0.586   2.979 -1.2644  0.1398 -0.1161
  108MOL   C11834572   0.069   0.572   2.927  0.9765 -0.0459  0.1100
  108MOL   C11934573   7.457   0.680   3.315 -0.0382 -0.0937 -0.5926
  108MOL   H12034574   7.672   0.702   3.349 -0.1781  0.7433  0.4757
  108MOL   H12134575   0.000   0.637   3.184 -1.9852  2.0511  0.6417
  108MOL   H12234576   7.771   0.476   3.158  1.3628  0.5838  0.4556
  108MOL   H12334577   7.726   0.688   2.957  0.2946  1.0975  1.9260
  108MOL   H12434578   7.683   0.529   2.924 -1.7368  1.2203 -0.6010
  108MOL   H12534579   0.069   0.576   2.818 -0.6433  0.5230  0.1270
  108MOL   H12634580   0.105   0.474   2.958 -2.3236 -0.9351  1.3560
  108MOL   H12734581   0.131   0.649   2.974 -0.1914  0.9061  0.0962
  108MOL   H12834582   7.391   0.618   3.255  1.8365  0.1442 -2.9453
  108MOL   H12934583   7.426   0.670   3.419  0.7354  0.0424 -0.3451
  108MOL   C13034584   7.441   0.825   3.269 -0.1071 -0.2763  0.4428
  108MOL   O13134585   7.312   0.858   3.220 -0.3658  0.0259  0.4124
  108MOL   C13234586   7.279   0.797   3.097  0.4583  0.1935 -0.5718
  108MOL   C13334587   7.184   0.894   3.024  1.1275 -0.2421  0.0600
  108MOL   C13434588   7.263   1.009   2.950  0.2893 -0.4235  0.0183
  108MOL   C13534589   7.476   0.919   3.386 -0.5739  0.5076 -0.0603
  108MOL   H13634590   7.511   0.842   3.187 -0.4660  1.6641  0.5101
  108MOL   H13734591   7.364   0.769   3.036  1.8788 -1.5375  2.1249
  108MOL   H13834592   7.227   0.706   3.127  1.1917 -0.2955 -0.7745
  108MOL   H13934593   7.112   0.941   3.091  0.2780 -1.8432  0.2925
  108MOL   H14034594   7.132   0.840   2.945  0.3339 -0.7482  0.9166
  108MOL   H14134595   7.360   0.976   2.911  0.7404  1.4638 -0.5263
  108MOL   H14234596   7.289   1.078   3.030  0.2949 -3.1972  2.4731
  108MOL   H14334597   7.209   1.060   2.870  2.2680  0.8335 -0.5604
  108MOL   H14434598   7.390   0.905   3.451 -0.7505 -1.1880 -0.6232
  108MOL   H14534599   7.568   0.885   3.433  1.0115  0.7939 -2.8224
  108MOL   C14634600   7.490   1.071   3.350  0.4037 -0.4803 -0.6848
  108MOL   O14734601   7.510   1.167   3.462 -0.2678  0.0519  0.0316
  108MOL   C14834602   7.421   1.171   3.571 -0.5327 -0.2403 -0.5902
  108MOL   C14934603   7.477   1.281   3.663  0.1588  0.2238  0.5513
  108MOL   C15034604   7.583   1.217   3.753  0.6568 -0.1014  0.3115
  108MOL   C15134605   7.599   1.100   3.249  0.1260 -0.1948 -1.0549
  108MOL   H15234606   7.399   1.102   3.298 -0.0115  0.4044  0.5567
  108MOL   H15334607   7.319   1.201   3.548 -0.4586 -0.5548 -1.3297
  108MOL   H15434608   7.425   1.072   3.617 -0.0648 -0.6823 -1.5601
  108MOL   H15534609   7.394   1.320   3.723  0.0977 -1.9351  1.9223
  108MOL   H15634610   7.516   1.362   3.601  3.0245 -2.0858 -0.7570
  108MOL   H15734611   7.665   1.171   3.698  1.4418  1.4781  0.1280
  108MOL   H15834612   7.532   1.135   3.803 -0.3283 -0.0779 -0.6369
  108MOL   H15934613   7.604   1.299   3.823 -1.6170 -0.2286  1.1991
  108MOL   H16034614   7.553   1.061   3.158 -1.5926 -2.1829  0.5865
  108MOL   H16134615   7.611   1.207   3.232 -1.1487 -0.4425 -3.7937
  108MOL   C16234616   7.731   1.032   3.263  0.4003  0.2050 -0.0382
  108MOL   O16334617   7.819   1.074   3.163 -0.0245  0.1055  0.1215
  108MOL   C16434618   7.817   1.001   3.043  1.0512 -0.4246 -0.5907
  108MOL   C16534619   0.070   1.085   2.938 -0.1494 -0.5952 -0.2833
  108MOL   C16634620   0.029   1.072   2.794 -0.1826  0.3521 -0.0402
  108MOL   C16734621   7.814   1.069   3.392 -0.3356 -0.4826  0.2330
  108MOL   H16834622   7.712   0.925   3.255 -2.2936  0.5882  0.7290
  108MOL   H16934623   0.043   0.906   3.044  0.7892 -0.5719 -0.5163
  108MOL   H17034624   7.720   0.980   2.997  1.0687  2.0885 -1.8858
  108MOL   H17134625   0.177   1.072   2.948  0.2729  1.4229 -1.7025
  108MOL   H17234626   0.047   1.190   2.960  0.6145 -0.4511 -0.1498
  108MOL   H17334627   7.751   1.092   2.779  0.2064  1.5503 -1.3481
  108MOL   H17434628   0.056   0.977   2.748  0.4513  0.2188  0.5827
  108MOL   H17534629   0.075   1.149   2.732  4.8102 -0.7647  2.0286
  108MOL   H17634630   7.825   1.178   3.396 -3.3215 -0.0504 -1.7229
  108MOL   H17734631   7.758   1.044   3.482  0.3445 -0.0717  0.7778
  108MOL   C17834632   0.126   0.995   3.412  0.1469 -0.5496 -0.5654
  108MOL   O17934633   0.184   1.015   3.545 -0.1330  0.3141  0.0392
  108MOL   C18034634   0.255   1.136   3.573 -0.9467  0.4355  0.5191
  108MOL   C18134635   0.290   1.145   3.725  0.3571  0.8545 -0.0248
  108MOL   C18234636   0.344   1.016   3.788 -0.2379 -0.4874 -0.0153
  108MOL   C18334637   0.118   0.845   3.381 -0.2486  0.0521 -0.3954
  108MOL   H18434638   0.191   1.026   3.330  0.2888 -1.2979 -0.7428
  108MOL   H18534639   0.345   1.127   3.512 -1.1578  0.0261  0.2661
  108MOL   H18634640   0.190   1.219   3.543  0.1656  1.4131  0.7710
  108MOL   H18734641   0.196   1.171   3.773 -0.9401 -0.6718 -1.6389
  108MOL   H18834642   0.359   1.228   3.738  0.3240  1.3387 -2.5969
  108MOL   H18934643   0.266   0.941   3.774 -1.2691  0.9776 -2.5569
  108MOL   H19034644   0.352   1.016   3.896  4.6335 -0.4910 -0.2664
  108MOL   H19134645   0.431   0.973   3.739  0.7846  1.0828  0.3864
  108MOL   H19234646   0.050   0.809   3.459  0.2240  0.1939  0.0882
  108MOL   H19334647   0.060   0.823   3.292 -0.7878 -1.4521  0.3067
  108MOL   C19434648   0.259   0.777   3.377 -0.5840  0.0084  0.0465
  108MOL   O19534649   0.239   0.640   3.358 -0.5119  0.0433 -0.2816
  108MOL   C19634650   0.189   0.569   3.470 -0.4671 -0.0809 -0.3999
  108MOL   C19734651   0.214   0.416   3.459 -0.3779 -0.9051  0.4982
  108MOL   C19834652   0.367   0.398   3.478 -0.3559  0.3637 -0.1163
  108MOL   C19934653   0.346   0.819   3.260 -0.2988 -0.3446  0.1858
  108MOL   H20034654   0.320   0.784   3.467 -1.9161 -3.2776  1.2946
  108MOL   H20134655   0.224   0.616   3.562 -0.1320  0.8080 -0.9763
  108MOL   H20234656   0.081   0.579   3.478 -0.7607 -1.5071 -2.3796
  108MOL   H20334657   0.185   0.376   3.362 -0.2373 -2.8642  1.2469
  108MOL   H20434658   0.153   0.357   3.526  0.3210  0.7881  2.6808
  108MOL   H20534659   0.422   0.471   3.418  1.4689 -0.6091  0.3239
  108MOL   H20634660   0.411   0.301   3.453 -0.8984 -0.0390  0.4908
  108MOL   H20734661   0.390   0.417   3.583  0.6664  1.3199 -0.5090
  108MOL   H20834662   0.399   0.726   3.239 -1.5192 -0.9016 -0.4850
  108MOL   H20934663   0.299   0.843   3.165 -0.2059 -1.9930 -0.2932
  108MOL   C21034664   0.461   0.915   3.300 -0.1594  0.4786  0.0180
  108MOL   O21134665   0.570   0.840   3.329 -0.2733 -0.1876  0.0633
  108MOL   C21234666   0.594   0.812   3.471 -0.4650  0.6885  0.3973
  108MOL   C21334667   0.729   0.745   3.482  0.0879 -0.2783 -0.0118
  108MOL   C21434668   0.840   0.848   3.451 -0.1892 -0.5721 -0.7224
  108MOL   C21534669   0.514   1.010   3.189  0.5069  0.6247  0.1999
  108MOL   H21634670   0.430   0.982   3.381  1.4954  2.0935 -0.6428
  108MOL   H21734671   0.583   0.896   3.540 -0.9271  0.7017  0.3046
  108MOL   H21834672   0.522   0.742   3.513 -1.0060  1.2322  0.3738
  108MOL   H21934673   0.743   0.662   3.413  3.9251 -0.7695  1.2596
  108MOL   H22034674   0.740   0.707   3.583 -1.3127 -0.8778 -0.0717
  108MOL   H22134675   0.941   0.809   3.438 -1.4096 -3.9895 -0.2786
  108MOL   H22234676   0.850   0.914   3.538  1.8801 -0.9616 -0.6423
  108MOL   H22334677   0.810   0.904   3.362 -0.0596  2.1895  0.9114
  108MOL   H22434678   0.600   1.054   3.240  1.9567 -0.5678 -1.1389
  108MOL   H22534679   0.558   0.953   3.106 -1.7388 -1.2030  0.2047
  108MOL   C22634680   0.413   1.118   3.126  0.5028 -0.4112  0.0163
  108MOL   O22734681   0.406   1.228   3.219  0.1797  0.0845 -0.0239
  108MOL   C22834682   0.289   1.317   3.205 -0.3582 -0.0752  0.1759
  108MOL   C22934683   0.316   1.441   3.283  0.1857  0.1454 -0.0234
  108MOL   C23034684   0.199   1.537   3.300 -0.9539 -0.2788 -0.4572
  108MOL   C23134685   0.436   1.148   2.977  0.0543  0.1867 -0.0303
  108MOL   H23234686   0.315   1.071   3.128  1.5515 -2.6299  0.4293
  108MOL   H23334687   0.272   1.342   3.100 -5.7602  0.8653  1.1048
  108MOL   H23434688   0.193   1.275   3.236 -1.5221  3.5232  1.7573
  108MOL   H23534689   0.402   1.483   3.231 -0.8528 -0.6225 -2.4179
  108MOL   H23634690   0.353   1.410   3.381 -0.0692 -0.7937 -0.2198
  108MOL   H23734691   0.223   1.625   3.361  0.5049 -0.1299 -1.2274
  108MOL   H23834692   0.112   1.482   3.336  0.5230 -1.7779  0.9370
  108MOL   H23934693   0.173   1.573   3.201 -1.2417  0.9210  0.0519
  108MOL   H24034694   0.430   1.051   2.928 -4.3436 -0.2114  1.1231
  108MOL   H24134695   0.359   1.216   2.941  0.5646  0.9130  0.2257
  108MOL   C24234696   0.568   1.216   2.937  1.0036 -0.2481  0.2187
  108MOL   O24334697   0.552   1.261   2.802  0.1774  0.0870  0.1144
  108MOL   C24434698   0.524   1.161   2.704  0.2352  0.0179  0.0565
  108MOL   C24534699   0.622   1.160   2.585  0.2244  0.2584 -0.0657
  108MOL   C24634700   0.773   1.167   2.624 -0.1628 -0.3152 -0.3028
  108MOL   C24734701   0.587   1.344   3.018  0.0088 -0.0112  0.4442
  108MOL   H24834702   0.648   1.142   2.942 -0.8412 -2.3387 -0.1589
  108MOL   H24934703   0.520   1.061   2.747 -0.8028  0.6968  1.5975
  108MOL   H25034704   0.418   1.169   2.681  0.2632 -1.3264 -0.5485
  108MOL   H25134705   0.599   1.249   2.527  1.1636  1.2903  1.1185
  108MOL   H25234706   0.610   1.068   2.529  2.7724 -0.7870  1.0282
  108MOL   H25334707   0.797   1.066   2.659 -1.8964 -0.1920  1.3204
  108MOL   H25434708   0.779   1.237   2.707  1.9384  0.2770 -0.9253
  108MOL   H25534709   0.851   1.196   2.554 -0.4146 -1.3134 -1.0190
  108MOL   H25634710   0.496   1.402   3.001  1.2762  2.4688  1.8723
  108MOL   H25734711   0.598   1.315   3.122  0.1403 -1.7323 -0.0277
  108MOL   C25834712   0.709   1.429   2.984 -0.0269  0.5725  0.0687
  108MOL   O25934713   0.706   1.550   3.059 -0.1807 -0.0229 -0.1426
  108MOL   C26034714   0.601   1.636   3.020 -0.2701  0.4628 -0.0303
  108MOL   C26134715   0.649   1.771   3.052 -0.1540  0.1470 -0.2254
  108MOL   C26234716   0.633   1.805   3.197  0.3998 -0.4390  0.2177
  108MOL   C26334717   0.838   1.358   3.029  0.2059 -0.0528 -0.6784
  108MOL   H26434718   0.709   1.444   2.876 -1.8191  0.3658  0.0177
  108MOL   H26534719   0.599   1.636   2.911 -3.1118  1.0233  0.0023
  108MOL   H26634720   0.502   1.607   3.055  0.4459  0.0640  1.7366
  108MOL   H26734721   0.599   1.831   2.977  1.4553  2.7243  0.6977
  108MOL   H26834722   0.752   1.798   3.028  0.1167  0.7104  1.4682
  108MOL   H26934723   0.544   1.785   3.257  0.5617  1.7659  1.2333
  108MOL   H27034724   0.667   1.908   3.204 -0.0050 -0.3053  0.2046
  108MOL   H27134725   0.711   1.762   3.260  1.1829  0.5904 -0.0453
  108MOL   H27234726   0.836   1.359   3.138 -0.5552  1.7704 -0.6890
  108MOL   H27334727   0.836   1.252   3.004  0.2217 -0.6566  1.7276
  108MOL   C27434728   0.964   1.422   2.967  0.3084  0.9717 -0.0865
  108MOL   O27534729   1.084   1.396   3.045 -0.3761 -0.0645 -0.5875
  108MOL   C27634730   1.105   1.479   3.162  0.0521 -0.9366  0.6293
  108MOL   C27734731   1.244   1.446   3.214 -0.6946  0.3754 -0.0277
  108MOL   C27834732   1.353   1.499   3.120 -0.6870 -0.1455  0.8885
  108MOL   C27934733   0.989   1.367   2.831  0.2172 -1.1699 -0.2867
  108MOL   H28034734   0.957   1.530   2.960 -0.5260  0.8955 -0.5186
  108MOL   H28134735   1.086   1.582   3.134  2.0788 -1.3681 -2.5974
  108MOL   H28234736   1.032   1.453   3.238 -0.9264 -0.3719 -0.1011
  108MOL   H28334737   1.248   1.338   3.225  0.7343  0.4929  0.7008
  108MOL   H28434738   1.256   1.480   3.317 -2.0302 -0.4258  0.4047
  108MOL   H28534739   1.334   1.606   3.106  1.8362  0.6629  3.1427
  108MOL   H28634740   1.349   1.456   3.019 -0.3813  1.1419  0.3134
  108MOL   H28734741   1.456   1.494   3.155 -0.8907  1.2239  1.7233
  108MOL   H28834742   0.997   1.259   2.845  0.3756 -1.1358 -0.1112
  108MOL   H28934743   0.909   1.398   2.764  1.2487  3.0227  0.2920
  108MOL   C29034744   1.120   1.420   2.763 -0.7487 -0.4515 -0.3276
  108MOL   O29134745   1.129   1.344   2.641 -0.2774 -0.2245  0.3680
  108MOL   C29234746   1.262   1.300   2.599  0.1206  0.6774  0.0784
  108MOL   C29334747   1.311   1.175   2.681 -0.5181 -0.0757 -0.0875
  108MOL   C29434748   1.241   1.040   2.636  0.2912  0.3503 -0.0579
  108MOL   C29534749   1.118   1.572   2.731  0.3097 -0.3248  0.1681
  108MOL   H29634750   1.206   1.395   2.826 -0.4216 -0.1214 -0.6380
  108MOL   H29734751   1.272   1.276   2.494  4.0334  0.9167  0.3125
  108MOL   H29834752   1.328   1.385   2.619 -1.2276  1.7027  0.2504
  108MOL   H29934753   1.316   1.185   2.790  0.3021 -1.0255 -0.0328
  108MOL   H30034754   1.419   1.166   2.667  0.2679  3.4569  2.7825
  108MOL   H30134755   1.138   1.043   2.671  0.6631 -0.6753  1.1553
  108MOL   H30234756   1.280   0.948   2.681 -0.4705  0.8508  1.6763
  108MOL   H30334757   1.243   1.030   2.528 -0.1914  1.2095 -0.1529
  108MOL   H30434758   1.146   1.582   2.626  2.5474 -1.2321  0.6666
  108MOL   H30534759   1.013   1.602   2.735  0.1969 -0.5687 -0.9354
  108MOL   C30634760   1.216   1.672   2.809 -0.1394  0.1121  0.0935
  108MOL   O30734761   1.348   1.663   2.758  0.1611  0.3538 -0.1360
  108MOL   C30834762   1.447   1.738   2.826  0.0656 -0.3093  0.1309
  108MOL   C30934763   1.579   1.667   2.778 -0.1590 -0.1184  0.2451
  108MOL   C31034764   1.594   1.521   2.835  0.8080 -0.3950 -0.3892
  108MOL   C31134765   1.163   1.817   2.817 -0.2207  0.4418 -0.2631
  108MOL   H31234766   1.214   1.634   2.911 -1.0350 -0.0396  0.0155
  108MOL   H31334767   1.440   1.836   2.780 -0.2936 -1.1550 -1.6657
  108MOL   H31434768   1.427   1.739   2.933  0.2384  1.8449  0.1484
  108MOL   H31534769   1.661   1.730   2.811  0.8379 -2.1073  1.6482
  108MOL   H31634770   1.579   1.670   2.669  2.5083  2.3439  0.2425
  108MOL   H31734771   1.682   1.465   2.806  2.6004  2.1768 -0.0334
  108MOL   H31834772   1.507   1.459   2.811  0.0164  0.3115  0.6031
  108MOL   H31934773   1.575   1.522   2.942 -0.9550  0.3533 -0.6781
  108MOL   H32034774   1.080   1.821   2.887  0.3578 -1.7632  0.5715
  108MOL   H32134775   1.228   1.898   2.851  1.0924 -1.3549  1.5974
  108MOL   H32234776   1.120   1.854   2.724  0.9150 -0.4610 -1.1681
  109MOL     C134777   1.943   7.334   2.694  0.9386 -0.6230 -0.2897
  109MOL     O234778   1.866   7.443   2.752 -0.1066 -0.2744  0.4477
  109MOL     C334779   1.750   7.400   2.823 -0.7044 -0.2012  0.9900
  109MOL     C434780   1.678   7.515   2.901 -0.4084  0.2904  0.0138
  109MOL     C534781   1.623   7.620   2.806  0.7177 -0.4502  0.4455
  109MOL     C634782   2.061   7.389   2.621 -0.0171  0.5156 -0.0122
  109MOL     H734783   1.873   7.278   2.631  0.6489 -0.8117  0.2005
  109MOL     H834784   1.689   7.354   2.745 -1.0515 -1.9821  2.2933
  109MOL     H934785   1.774   7.324   2.897  3.0342  0.9670  1.0884
  109MOL    H1034786   1.750   7.548   2.976  1.1371  0.8593 -1.6811
  109MOL    H1134787   1.602   7.471   2.965  0.9105 -1.7052  0.2749
  109MOL    H1234788   1.559   7.572   2.732  2.5565 -1.6682 -0.3878
  109MOL    H1334789   1.706   7.677   2.765  1.0381  1.0251  3.0075
  109MOL    H1434790   1.562   7.696   2.855  0.6101 -0.1038 -0.2238
  109MOL    H1534791   2.040   7.461   2.541 -0.9841  0.4660  0.1993
  109MOL    H1634792   2.120   7.447   2.692 -2.0190  1.0056  1.2947
  109MOL    H1734793   1.973   7.269   2.776  2.2550 -0.2902 -0.4930
  109MOL    C1834794   2.147   7.272   2.567  0.7030  0.2001  0.4765
  109MOL    O1934795   2.077   7.192   2.479  0.1551  0.1354  0.0364
  109MOL    C2034796   2.114   7.056   2.482 -0.5279  0.4203 -0.3702
  109MOL    C2134797   2.016   6.982   2.382 -0.0478  0.9370  0.0598
  109MOL    C2234798   2.023   7.031   2.241  0.1718 -0.4506 -0.3925
  109MOL    C2334799   2.276   7.310   2.495  0.0519  0.3735 -0.1394
  109MOL    H2434800   2.171   7.218   2.659  1.0180  0.4547  0.5462
  109MOL    H2534801   2.217   7.054   2.447 -0.2014  3.0413  0.3678
  109MOL    H2634802   2.103   7.026   2.586 -1.0366  0.6636 -0.3494
  109MOL    H2734803   1.910   6.991   2.407  0.1710  0.1971  1.2963
  109MOL    H2834804   2.035   6.875   2.381  0.2637  0.9151  3.2290
  109MOL    H2934805   2.033   7.138   2.220  1.6439 -0.7886 -1.4700
  109MOL    H3034806   1.925   7.003   2.202 -0.9081  0.1885  1.7821
  109MOL    H3134807   2.100   6.985   2.179  0.6476  0.5567 -0.5521
  109MOL    H3234808   2.346   7.227   2.482  2.7135  2.0887  2.5734
  109MOL    H3334809   2.257   7.353   2.397  2.7800  1.8301 -0.0781
  109MOL    C3434810   2.375   7.394   2.571 -0.1105 -0.6437 -0.2499
  109MOL    O3534811   2.400   7.322   2.695  0.6371 -0.1954  0.7665
  109MOL    C3634812   2.407   7.401   2.815 -0.8133  0.9817 -0.3133
  109MOL    C3734813   2.472   7.303   2.920  0.1285 -0.2438 -0.2224
  109MOL    C3834814   2.613   7.247   2.893 -0.2979 -0.2151  0.4869
  109MOL    C3934815   2.508   7.419   2.502 -0.3932 -0.1741 -0.8678
  109MOL    H4034816   2.319   7.484   2.597 -0.4620 -0.4368 -1.6932
  109MOL    H4134817   2.481   7.480   2.805  0.9126 -0.3432  1.5416
  109MOL    H4234818   2.315   7.448   2.850 -2.0145  0.0454 -2.1314
  109MOL    H4334819   2.423   7.209   2.948  3.7240 -1.8068  1.2178
  109MOL    H4434820   2.488   7.355   3.014 -0.1392 -1.0892  0.2987
  109MOL    H4534821   2.683   7.310   2.839  0.1328 -1.3657 -0.2947
  109MOL    H4634822   2.616   7.155   2.835  0.2448  0.0647  0.0665
  109MOL    H4734823   2.666   7.236   2.987 -0.0262 -0.7157  0.2790
  109MOL    H4834824   2.582   7.463   2.569 -1.0771  1.2526 -1.0266
  109MOL    H4934825   2.554   7.326   2.467  0.0614 -0.6290  0.8986
  109MOL    C5034826   2.500   7.526   2.392  0.2185 -0.6139 -0.5566
  109MOL    O5134827   2.488   7.644   2.471 -0.7671  0.3883  0.5145
  109MOL    C5234828   2.439   7.767   2.424  0.1188  0.3032  0.4831
  109MOL    C5334829   2.459   0.057   2.523 -0.1561 -0.5434  0.0220
  109MOL    C5434830   2.613   0.085   2.540 -0.0605 -0.5084 -0.1255
  109MOL    C5534831   2.617   7.523   2.289 -0.5637  0.4389 -1.1211
  109MOL    H5634832   2.403   7.526   2.342  0.8456  1.6685 -1.8501
  109MOL    H5734833   2.482   7.803   2.330  1.1232 -0.4112  0.6732
  109MOL    H5834834   2.334   7.757   2.394 -0.3787  0.1676  2.2211
  109MOL    H5934835   2.431   0.029   2.625 -0.0093 -0.8339 -0.0139
  109MOL    H6034836   2.391   0.134   2.488 -2.5939 -2.0155  1.4207
  109MOL    H6134837   2.666   7.824   2.573  0.8854  0.4764  1.0624
  109MOL    H6234838   2.626   0.164   2.613  0.1785  0.4873 -1.2306
  109MOL    H6334839   2.664   0.125   2.452 -0.1833  0.7444  0.3604
  109MOL    H6434840   2.620   7.602   2.213  0.7884  0.4451 -1.0814
  109MOL    H6534841   2.708   7.521   2.348 -1.6750 -0.3713  0.6039
  109MOL    C6634842   2.615   7.392   2.198 -0.3651  0.4127  0.0500
  109MOL    O6734843   2.492   7.385   2.135  0.1506 -0.0873  0.0185
  109MOL    C6834844   2.442   7.257   2.091 -0.1465 -1.4126  0.1204
  109MOL    C6934845   2.306   7.264   2.023 -0.0825 -0.2025 -0.6076
  109MOL    C7034846   2.312   7.303   1.870  0.0041  0.6008  0.0050
  109MOL    C7134847   2.726   7.403   2.097  0.0329 -0.1617 -0.2138
  109MOL    H7234848   2.636   7.311   2.269  1.1160 -0.7962 -1.7070
  109MOL    H7334849   2.517   7.214   2.026  0.9473 -0.6357  0.8421
  109MOL    H7434850   2.432   7.200   2.183 -2.2183 -1.8405 -0.3335
  109MOL    H7534851   2.231   7.323   2.075  1.1121  1.3300 -0.5847
  109MOL    H7634852   2.276   7.159   2.021  2.0865 -0.8447 -1.5933
  109MOL    H7734853   2.212   7.341   1.852  0.2991  0.6874 -1.4801
  109MOL    H7834854   2.330   7.212   1.814  1.9986 -0.3737  2.1215
  109MOL    H7934855   2.373   7.387   1.838 -0.6937  2.0032  2.2255
  109MOL    H8034856   2.712   7.332   2.016  0.8309 -0.1072 -0.4092
  109MOL    H8134857   2.740   7.500   2.050  2.3945  0.9018  2.5557
  109MOL    C8234858   2.859   7.363   2.165 -0.4949  0.6236 -0.0356
  109MOL    O8334859   2.856   7.228   2.213  0.7256  0.2739  0.4343
  109MOL    C8434860   2.905   7.209   2.347  0.0987  0.2323  0.2811
  109MOL    C8534861   2.905   7.058   2.370 -0.3391  0.8073 -0.2650
  109MOL    C8634862   2.942   7.028   2.517  0.0185  1.2481  0.1448
  109MOL    C8734863   2.970   7.379   2.059  0.8189 -0.3369 -0.5866
  109MOL    H8834864   2.881   7.426   2.251  1.9450  0.6175 -0.6064
  109MOL    H8934865   3.005   7.252   2.357 -0.4805  1.3013  1.5669
  109MOL    H9034866   2.838   7.256   2.419  0.3727  0.7829  0.1771
  109MOL    H9134867   2.973   6.999   2.309  1.0990 -0.5110  2.4989
  109MOL    H9234868   2.808   7.015   2.349 -0.6468  0.3883  1.9183
  109MOL    H9334869   2.952   6.920   2.531  0.3955  1.1101 -1.1355
  109MOL    H9434870   2.869   7.072   2.586  1.7567  1.0697  2.1481
  109MOL    H9534871   3.040   7.062   2.549  0.1931  1.0057 -0.1296
  109MOL    H9634872   3.054   7.326   2.102  0.4540  0.8363  1.6518
  109MOL    H9734873   2.944   7.337   1.962 -1.9217  0.1907 -0.1321
  109MOL    C9834874   3.026   7.522   2.039  0.3222 -0.0361  0.7404
  109MOL    O9934875   3.024   7.597   2.161  0.6657  0.4442  0.4040
  109MOL   C10034876   3.089   7.721   2.151  0.6859  0.9311  0.1500
  109MOL   C10134877   3.057   7.810   2.266  0.3014 -0.4514 -0.4106
  109MOL   C10234878   2.912   0.030   2.267 -1.3784  0.7682  0.2614
  109MOL   C10334879   3.173   7.519   1.968 -0.5460  0.7431 -0.2810
  109MOL   H10434880   2.964   7.581   1.972 -0.5633 -0.1046  1.4858
  109MOL   H10534881   3.196   7.701   2.160  0.8260  1.3349 -0.5504
  109MOL   H10634882   3.078   7.773   2.056  2.0783  1.8865  0.5013
  109MOL   H10734883   3.114   0.075   2.262  0.6927 -0.6534  0.4164
  109MOL   H10834884   3.069   7.745   2.353 -0.4912 -0.7092 -0.4905
  109MOL   H10934885   2.893   0.080   2.172 -1.3749  2.5144  1.1384
  109MOL   H11034886   2.893   0.105   2.344 -3.9894 -1.6409  2.0221
  109MOL   H11134887   2.847   7.774   2.288 -1.5854  0.6780 -0.7257
  109MOL   H11234888   3.227   7.613   1.972  0.1773  0.3042  0.6320
  109MOL   H11334889   3.241   7.459   2.030 -0.5954  0.6311 -0.3356
  109MOL   C11434890   3.164   7.467   1.817  0.3232  0.3317  0.4310
  109MOL   O11534891   3.087   7.560   1.733  0.1647  0.3297  0.2532
  109MOL   C11634892   3.008   7.494   1.637 -0.0589  0.0384  0.5043
  109MOL   C11734893   2.947   7.605   1.546 -0.0840 -0.4961 -0.3644
  109MOL   C11834894   2.847   7.690   1.621 -0.1932  0.4370  0.3604
  109MOL   C11934895   3.302   7.465   1.743 -0.3066 -0.0446  0.3730
  109MOL   H12034896   3.123   7.366   1.825 -0.3277  0.6079  0.5912
  109MOL   H12134897   3.074   7.428   1.581 -0.4197 -0.2573  0.4281
  109MOL   H12234898   2.939   7.429   1.691 -0.2436 -0.0874  0.1218
  109MOL   H12334899   2.885   7.565   1.466 -1.3336  0.9336 -0.1318
  109MOL   H12434900   3.029   7.667   1.508 -0.9796  0.5864 -0.5524
  109MOL   H12534901   2.898   7.766   1.681  1.8749  0.0572 -0.8919
  109MOL   H12634902   2.782   7.632   1.688 -0.1783 -1.2992 -1.1054
  109MOL   H12734903   2.785   7.736   1.544  0.5994  2.9796  1.1898
  109MOL   H12834904   3.287   7.453   1.636 -1.5557  2.9246  0.1705
  109MOL   H12934905   3.363   7.555   1.757  2.2297 -1.8322  1.2743
  109MOL   C13034906   3.378   7.344   1.788 -0.3255  0.1150  0.4269
  109MOL   O13134907   3.434   7.273   1.676  0.7950 -0.2451  0.3647
  109MOL   C13234908   3.334   7.198   1.605 -0.1846  0.0830  0.0240
  109MOL   C13334909   3.421   7.088   1.539 -0.2056  0.6925 -0.1991
  109MOL   C13434910   3.339   6.999   1.439 -0.2012 -0.1332  0.1915
  109MOL   C13534911   3.487   7.377   1.892 -0.6613  0.6992  0.0933
  109MOL   H13634912   3.315   7.278   1.849 -0.8159 -0.9252 -1.1683
  109MOL   H13734913   3.254   7.150   1.662  0.0145  0.8250  0.9512
  109MOL   H13834914   3.291   7.257   1.524 -1.9686 -2.1136 -0.6675
  109MOL   H13934915   3.488   7.031   1.603 -1.4688 -1.9123 -1.1493
  109MOL   H14034916   3.493   7.145   1.480 -0.3144  0.2596 -0.7633
  109MOL   H14134917   3.285   7.060   1.366 -1.2240 -3.2263 -1.7159
  109MOL   H14234918   3.264   6.932   1.479  1.0360 -1.4403  0.3573
  109MOL   H14334919   3.398   6.929   1.381 -1.2348 -0.0586 -0.9647
  109MOL   H14434920   3.562   7.445   1.850  1.3643 -0.6592  1.4392
  109MOL   H14534921   3.445   7.439   1.971 -0.9159  0.2009  0.3440
  109MOL   C14634922   3.571   7.260   1.954 -0.7562 -0.1339 -0.4909
  109MOL   O14734923   3.630   7.179   1.852 -0.0632 -0.0544  0.2546
  109MOL   C14834924   3.731   7.233   1.762  1.4933  1.0615  0.0314
  109MOL   C14934925   3.774   7.123   1.662  0.2472 -0.3998  0.5431
  109MOL   C15034926   3.865   7.181   1.557 -0.0274  0.1952  0.0601
  109MOL   C15134927   3.676   7.292   2.059 -0.0767  0.4361  0.1177
  109MOL   H15234928   3.500   7.198   2.009 -0.3483 -1.0510 -0.9828
  109MOL   H15334929   3.679   7.302   1.696 -0.8692 -1.1664 -0.5161
  109MOL   H15434930   3.816   7.283   1.809  1.2302 -0.6531  2.3967
  109MOL   H15534931   3.691   7.070   1.615  1.2076 -0.0475 -1.5880
  109MOL   H15634932   3.839   7.054   1.715  1.1652 -0.1413 -0.2465
  109MOL   H15734933   3.917   7.111   1.491 -0.3124  1.3939 -1.4818
  109MOL   H15834934   3.952   7.233   1.597  0.0264  0.8014 -0.8247
  109MOL   H15934935   3.815   7.261   1.502 -3.0223 -1.7630 -0.1744
  109MOL   H16034936   3.719   7.199   2.095  1.0109  0.8082 -0.2151
  109MOL   H16134937   3.763   7.345   2.021 -0.2172  0.3839 -0.2848
  109MOL   C16234938   3.624   7.376   2.177 -0.1333  0.3919  0.1941
  109MOL   O16334939   3.532   7.296   2.257  0.4977  0.8112 -0.1680
  109MOL   C16434940   3.421   7.375   2.314  0.5180  0.5991 -0.0334
  109MOL   C16534941   3.336   7.287   2.405  0.5128  0.3234 -0.3247
  109MOL   C16634942   3.263   7.165   2.329  0.2287  1.2729 -0.3449
  109MOL   C16734943   3.735   7.426   2.278  0.2944  0.2571 -0.4233
  109MOL   H16834944   3.577   7.463   2.132 -1.5312  0.5100  1.8345
  109MOL   H16934945   3.458   7.466   2.361 -1.3480  1.3743 -0.0313
  109MOL   H17034946   3.358   7.412   2.234 -3.6898 -0.7474  2.5087
  109MOL   H17134947   3.262   7.348   2.456  1.4780  1.5350 -0.3465
  109MOL   H17234948   3.405   7.251   2.482 -1.4108 -0.2014  1.1703
  109MOL   H17334949   3.215   7.086   2.386  2.7460 -0.5013 -0.5721
  109MOL   H17434950   3.344   7.118   2.272 -2.0422 -2.1844 -0.8290
  109MOL   H17534951   3.196   7.213   2.258  0.1474  1.7378  0.0448
  109MOL   H17634952   3.678   7.467   2.362  0.9391  0.8902 -0.2898
  109MOL   H17734953   3.792   7.335   2.299 -1.1683 -0.7565 -0.7792
  109MOL   C17834954   3.820   7.542   2.227  0.5798 -0.6167  0.8227
  109MOL   O17934955   3.739   7.657   2.202  0.3092  0.0245 -0.3273
  109MOL   C18034956   3.748   7.712   2.077  0.3401 -0.2053  1.1119
  109MOL   C18134957   3.628   7.809   2.062  0.7733  1.2247  0.3477
  109MOL   C18234958   3.500   7.743   2.025 -0.2447  0.0766 -0.6649
  109MOL   C18334959   3.934   7.570   2.328 -0.5468 -0.5880  0.5174
  109MOL   H18434960   3.863   7.511   2.131  0.2219  2.9254 -0.5588
  109MOL   H18534961   3.848   7.757   2.070  0.6622 -0.7989  1.8463
  109MOL   H18634962   3.740   7.642   1.994  0.5166  0.7781  0.2479
  109MOL   H18734963   3.655   0.060   1.991  0.2190  1.5889  0.5410
  109MOL   H18834964   3.621   0.030   2.159 -2.0435 -0.8838  1.2847
  109MOL   H18934965   3.505   7.681   1.935 -0.1720 -2.6598  1.1805
  109MOL   H19034966   3.405   7.797   2.015  0.2115  0.7805 -1.2160
  109MOL   H19134967   3.480   7.673   2.106  1.9188  0.5984  0.3399
  109MOL   H19234968   3.981   7.664   2.298  3.4204 -2.3910  0.8091
  109MOL   H19334969   3.888   7.595   2.424  0.1683 -0.2049  0.7608
  109MOL   C19434970   4.038   7.456   2.348 -0.4009  0.5960  0.7145
  109MOL   O19534971   4.079   7.425   2.217  0.5967  0.5179  0.4789
  109MOL   C19634972   4.122   7.287   2.189 -0.1499 -0.6776  0.0152
  109MOL   C19734973   4.115   7.279   2.042  0.3821 -0.3988  0.0208
  109MOL   C19834974   4.144   7.144   1.988 -0.1634 -0.4971 -0.1240
  109MOL   C19934975   4.157   7.510   2.437  0.3838  0.3904  0.3569
  109MOL   H20034976   3.991   7.371   2.397 -1.5729 -2.0258 -4.6116
  109MOL   H20134977   4.222   7.295   2.230  0.8959 -1.5112 -2.3247
  109MOL   H20234978   4.056   7.215   2.238 -2.4893  0.6911 -1.0297
  109MOL   H20334979   4.188   7.350   2.003  0.4900 -1.1358 -1.1265
  109MOL   H20434980   4.021   7.323   2.008  1.0368 -0.2410 -1.6169
  109MOL   H20534981   4.134   7.151   1.880 -3.5239  1.5710  0.2406
  109MOL   H20634982   4.071   7.074   2.027 -1.7057  0.6890 -0.8081
  109MOL   H20734983   4.247   7.113   2.005  0.5562  1.0419 -1.5158
  109MOL   H20834984   4.241   7.509   2.367  1.1447 -1.3370  1.2743
  109MOL   H20934985   4.127   7.606   2.481 -2.0416  0.2504 -0.9072
  109MOL   C21034986   4.195   7.422   2.556  0.2291 -0.8523 -0.3498
  109MOL   O21134987   4.334   7.437   2.577 -0.2383  0.1382  0.6374
  109MOL   C21234988   4.420   7.351   2.506  0.6092 -0.4767  0.5689
  109MOL   C21334989   4.566   7.406   2.488 -0.0927 -0.1405  0.0567
  109MOL   C21434990   4.658   7.327   2.393 -0.0469 -0.3733 -0.3400
  109MOL   C21534991   4.129   7.454   2.691  0.3422  0.1096  0.6451
  109MOL   H21634992   4.177   7.317   2.534 -1.8809 -0.5390 -0.2301
  109MOL   H21734993   4.423   7.253   2.553  1.7218  0.0034  1.5091
  109MOL   H21834994   4.371   7.358   2.409 -0.3439  1.9326  1.1980
  109MOL   H21934995   4.607   7.422   2.588 -1.2459 -0.1235  0.5365
  109MOL   H22034996   4.555   7.506   2.447  0.4239 -0.0679  0.0868
  109MOL   H22134997   4.755   7.375   2.381  0.0054 -0.1514  0.9158
  109MOL   H22234998   4.612   7.319   2.295 -0.9190  1.3544 -0.1000
  109MOL   H22334999   4.659   7.228   2.438 -1.5021 -0.6645 -0.9434
  109MOL   H22435000   4.177   7.385   2.761 -0.7403 -0.8934  0.4358
  109MOL   H22535001   4.148   7.555   2.725 -0.4958  0.8458 -0.9833
  109MOL   C22635002   3.977   7.428   2.697  0.2868 -0.0273  0.6138
  109MOL   O22735003   3.949   7.296   2.724  0.0811 -0.3189  0.0997
  109MOL   C22835004   3.878   7.228   2.622 -0.2922 -0.3942 -0.2853
  109MOL   C22935005   3.812   7.092   2.659 -0.1640 -0.0746 -0.3165
  109MOL   C23035006   3.660   7.113   2.707  0.0940 -0.1709  0.2650
  109MOL   C23135007   3.916   7.505   2.819  0.2299  0.7839 -0.3439
  109MOL   H23235008   3.931   7.462   2.604  2.8447  0.1295 -0.6115
  109MOL   H23335009   3.795   7.279   2.572  1.2824 -0.4190 -3.0644
  109MOL   H23435010   3.956   7.201   2.551  0.1540  2.3443 -0.8883
  109MOL   H23535011   3.848   7.054   2.754 -3.2983  1.4685  1.5766
  109MOL   H23635012   3.814   7.020   2.578 -1.9733 -1.8777  1.1979
  109MOL   H23735013   3.646   7.170   2.799  0.7810  1.0567 -0.3842
  109MOL   H23835014   3.619   7.013   2.715 -0.4166  0.1784  2.3572
  109MOL   H23935015   3.593   7.157   2.632  0.2634 -0.3211  0.0264
  109MOL   H24035016   3.960   7.465   2.909 -0.6094 -1.3448 -0.8445
  109MOL   H24135017   3.948   7.609   2.817  0.5012  0.6781 -1.8195
  109MOL   C24235018   3.759   7.492   2.833 -0.7676 -0.2337 -0.1284
  109MOL   O24335019   3.714   7.574   2.941 -0.1896  0.6062  0.2021
  109MOL   C24435020   3.761   7.551   3.073  0.2092 -0.2695  0.3721
  109MOL   C24535021   3.668   7.630   3.164 -0.3025  0.2168  0.2886
  109MOL   C24635022   3.685   7.787   3.156 -0.6501  0.8470  0.1822
  109MOL   C24735023   3.684   7.519   2.701  0.0173 -0.1490  0.7489
  109MOL   H24835024   3.723   7.393   2.860 -2.5335  0.2213 -0.7501
  109MOL   H24935025   3.766   7.446   3.103  0.1083  0.4814  3.1479
  109MOL   H25035026   3.862   7.592   3.070  0.5270 -0.9992  0.9499
  109MOL   H25135027   3.676   7.592   3.266  0.2594 -0.2418  0.0773
  109MOL   H25235028   3.563   7.617   3.140  0.3121  0.7722 -2.9188
  109MOL   H25335029   3.764   7.814   3.226 -1.6131 -2.0971  2.5160
  109MOL   H25435030   3.594   0.013   3.186 -1.0500  1.1398 -1.5331
  109MOL   H25535031   3.703   7.812   3.052 -1.4600 -3.2095 -1.0264
  109MOL   H25635032   3.718   7.602   2.639 -0.0844 -1.4115 -1.0199
  109MOL   H25735033   3.697   7.432   2.638  1.2646 -0.9070  2.0311
  109MOL   C25835034   3.530   7.545   2.723  0.1944  0.0345  0.4240
  109MOL   O25935035   3.462   7.578   2.601  0.3056  0.2261 -0.3447
  109MOL   C26035036   3.465   7.719   2.572 -0.1129 -0.3785  0.6806
  109MOL   C26135037   3.405   7.748   2.438 -0.1664  1.0315 -0.6269
  109MOL   C26235038   3.379   0.063   2.414  0.0508 -0.1454 -1.0822
  109MOL   C26335039   3.454   7.420   2.783  0.6368 -0.3460 -0.0052
  109MOL   H26435040   3.528   7.627   2.796  0.2566  1.2720 -0.9379
  109MOL   H26535041   3.424   7.781   2.652  1.7243  1.3109  0.3551
  109MOL   H26635042   3.566   7.757   2.582 -0.5883  1.2911 -0.6051
  109MOL   H26735043   3.310   7.696   2.448  0.2170  0.8721  2.5316
  109MOL   H26835044   3.471   7.714   2.358 -0.5846  0.1386 -0.5935
  109MOL   H26935045   3.319   0.108   2.493  0.8562 -0.9496 -0.0017
  109MOL   H27035046   3.317   0.079   2.326 -1.2096 -1.7614 -0.5001
  109MOL   H27135047   3.470   0.123   2.418  0.5585 -0.9967  0.4531
  109MOL   H27235048   3.465   7.345   2.705 -0.8842  0.8849 -1.4466
  109MOL   H27335049   3.500   7.380   2.873 -1.0416 -1.6516  0.2926
  109MOL   C27435050   3.302   7.430   2.809  0.2106  0.9187 -0.6476
  109MOL   O27535051   3.259   7.299   2.826  0.3290  0.4189 -0.4625
  109MOL   C27635052   3.142   7.253   2.758  1.0111 -0.0394  0.0645
  109MOL   C27735053   3.027   7.259   2.857  0.4296 -0.3050  1.0779
  109MOL   C27835054   3.054   7.175   2.978 -0.4898  0.5056 -0.0296
  109MOL   C27935055   3.270   7.520   2.936 -0.0653  0.2794 -0.4247
  109MOL   H28035056   3.254   7.479   2.725 -0.2800 -0.1658 -1.0137
  109MOL   H28135057   3.126   7.315   2.669 -0.0193 -0.2922  0.0711
  109MOL   H28235058   3.149   7.148   2.729  2.1828 -0.5990  2.2572
  109MOL   H28335059   2.936   7.219   2.812  0.2248  1.0079  0.2865
  109MOL   H28435060   3.017   7.361   2.895 -0.1074 -0.2465  0.7785
  109MOL   H28535061   3.134   7.226   3.032 -1.0280  4.3741 -2.6943
  109MOL   H28635062   3.096   7.078   2.951  0.5291  0.3531  1.9516
  109MOL   H28735063   2.973   7.153   3.048  0.4004 -1.1598  0.5159
  109MOL   H28835064   3.182   7.475   2.981 -1.1318 -0.5332 -3.2236
  109MOL   H28935065   3.363   7.515   2.993  0.5369  1.9515 -1.2447
  109MOL   C29035066   3.224   7.669   2.909  0.3021 -0.4486  0.2732
  109MOL   O29135067   3.108   7.657   2.830  0.1013 -0.5068  0.0729
  109MOL   C29235068   3.098   7.750   2.724 -1.0212  0.6605 -0.2732
  109MOL   C29335069   2.986   7.707   2.634  0.3683  0.7896 -0.2218
  109MOL   C29435070   3.014   7.570   2.568  0.3898 -0.0734 -0.2869
  109MOL   C29535071   3.196   7.756   3.034 -1.3277 -0.4808 -0.3928
  109MOL   H29635072   3.308   7.715   2.856  1.6459 -4.0316 -0.8793
  109MOL   H29735073   3.083   0.026   2.752 -0.3569  0.4567  0.8416
  109MOL   H29835074   3.189   7.751   2.664  1.0786 -2.1413  2.7314
  109MOL   H29935075   2.970   7.786   2.560 -2.6091  0.7972  0.3378
  109MOL   H30035076   2.894   7.696   2.691  2.0307  0.1645  2.4110
  109MOL   H30135077   2.939   7.538   2.496 -0.2990 -1.8317  1.1517
  109MOL   H30235078   3.004   7.485   2.636 -1.7127 -1.0214 -1.7468
  109MOL   H30335079   3.116   7.558   2.532  0.0955  1.3262 -1.6020
  109MOL   H30435080   3.096   7.798   3.036 -0.9865  0.3079  1.5845
  109MOL   H30535081   3.202   7.692   3.122  1.1168  1.9843  1.3380
  109MOL   C30635082   3.311   0.041   3.047  0.0046  0.7177 -0.0041
  109MOL   O30735083   3.314   0.134   2.943 -0.1280  0.2464  0.4476
  109MOL   C30835084   3.432   0.208   2.930 -0.6193 -1.3537  0.1921
  109MOL   C30935085   3.465   0.248   2.783 -1.0690 -0.2630 -0.1719
  109MOL   C31035086   3.386   0.360   2.722 -0.0698  0.3658  0.9807
  109MOL   C31135087   3.282   0.123   3.173 -0.0355  0.4788 -0.2220
  109MOL   H31235088   3.409   7.822   3.055 -0.8815 -1.0321  0.7753
  109MOL   H31335089   3.438   0.293   2.997 -2.0714 -0.2640 -1.0051
  109MOL   H31435090   3.514   0.142   2.959  1.3378  0.4966 -1.0636
  109MOL   H31535091   3.445   0.161   2.721  0.1098 -1.2349  0.7778
  109MOL   H31635092   3.573   0.264   2.783 -0.7289 -2.3846 -0.7086
  109MOL   H31735093   3.403   0.451   2.779  2.6090 -1.4842  3.2851
  109MOL   H31835094   3.279   0.341   2.728 -0.6597  2.7069 -1.2765
  109MOL   H31935095   3.423   0.372   2.620 -1.7641 -1.1539  0.1609
  109MOL   H32035096   3.271   0.060   3.261  2.4509 -1.3552 -1.1660
  109MOL   H32135097   3.357   0.198   3.196  0.9501 -0.6346  0.2287
  109MOL   H32235098   3.184   0.172   3.173 -0.3441 -0.1295  0.3007
  110MOL     C135099   4.802   6.192   3.086  0.3711 -0.4874  0.0401
  110MOL     O235100   4.725   6.280   3.006 -0.1877  0.1120  0.3453
  110MOL     C335101   4.756   6.253   2.871  0.2517  0.1255 -0.1576
  110MOL     C435102   4.657   6.334   2.783 -0.2096  0.5519 -0.0957
  110MOL     C535103   4.669   6.292   2.640 -0.0604  0.1096 -0.1786
  110MOL     C635104   4.800   6.240   3.231 -0.5561  0.8158  0.4837
  110MOL     H735105   4.905   6.201   3.054  0.5218 -2.3893 -0.0930
  110MOL     H835106   4.861   6.279   2.858  1.1956 -2.7508  1.2425
  110MOL     H935107   4.750   6.145   2.857  2.0612 -0.1350  0.8798
  110MOL    H1035108   4.693   6.437   2.785 -1.0320  0.8633 -0.6681
  110MOL    H1135109   4.555   6.335   2.821 -0.0776 -1.0412  0.3225
  110MOL    H1235110   4.768   6.297   2.594 -0.4108  3.0068 -0.7135
  110MOL    H1335111   4.606   6.358   2.582  1.7715  2.1170  0.0300
  110MOL    H1435112   4.658   6.185   2.620 -0.0005  0.1323 -0.3265
  110MOL    H1535113   4.830   6.344   3.220 -0.1187  0.8162  1.5947
  110MOL    H1635114   4.701   6.230   3.275 -0.7711  3.7680  0.7925
  110MOL    H1735115   4.769   6.089   3.075 -2.1951  0.0903  1.8049
  110MOL    C1835116   4.899   6.170   3.328  0.8679  0.2703 -0.6263
  110MOL    O1935117   5.026   6.182   3.272  0.2427 -0.7289 -0.1348
  110MOL    C2035118   5.117   6.077   3.300 -0.6270  0.0873 -0.3727
  110MOL    C2135119   5.237   6.067   3.204 -0.9949  0.4196  0.1849
  110MOL    C2235120   5.182   6.028   3.064 -0.2311 -0.3129 -0.3525
  110MOL    C2335121   4.894   6.235   3.462 -0.0045 -0.2445  0.3263
  110MOL    H2435122   4.867   6.066   3.343  0.8832  0.4527  0.8195
  110MOL    H2535123   5.154   6.086   3.402 -0.2621  0.5230 -0.5422
  110MOL    H2635124   5.062   5.983   3.295 -0.6629  0.0658  0.4680
  110MOL    H2735125   5.303   5.990   3.243 -2.0727 -0.4000  0.4054
  110MOL    H2835126   5.282   6.166   3.209 -1.1784  0.7888 -3.7422
  110MOL    H2935127   5.257   6.003   2.989 -1.4360  0.2412 -1.7659
  110MOL    H3035128   5.111   6.104   3.031  0.4923 -0.0429 -1.3101
  110MOL    H3135129   5.121   5.938   3.062 -0.1261 -0.4173  0.7955
  110MOL    H3235130   4.984   6.205   3.516  0.8386 -1.0398 -1.4691
  110MOL    H3335131   4.913   6.342   3.446 -0.8731 -0.3861 -1.7260
  110MOL    C3435132   4.769   6.209   3.542 -0.6396 -0.5513  0.5481
  110MOL    O3535133   4.803   6.116   3.641  0.4662 -0.1960  0.5464
  110MOL    C3635134   4.811   5.978   3.602  0.6724  0.2820 -0.1222
  110MOL    C3735135   4.801   5.895   3.728  0.6936 -0.0399  1.1807
  110MOL    C3835136   4.799   5.742   3.704 -0.6213 -0.0074  0.5740
  110MOL    C3935137   4.709   6.327   3.610 -0.4304 -0.1361 -0.0113
  110MOL    H4035138   4.685   6.163   3.490 -0.1679 -3.5515  2.3267
  110MOL    H4135139   4.731   5.950   3.534  1.1055 -0.9195 -0.1480
  110MOL    H4235140   4.905   5.967   3.548  1.2230 -0.9348  1.0419
  110MOL    H4335141   4.717   5.919   3.793 -0.1070 -0.7091  0.4070
  110MOL    H4435142   4.884   5.917   3.795  1.9410  3.3695 -1.3133
  110MOL    H4535143   4.897   5.699   3.682  0.1577  2.0254 -0.0426
  110MOL    H4635144   4.729   5.728   3.622 -2.7100  1.0429  2.1212
  110MOL    H4735145   4.752   5.693   3.789 -0.4413  0.6355  1.0517
  110MOL    H4835146   4.769   6.352   3.698 -1.2211 -0.4995  0.6324
  110MOL    H4935147   4.736   6.410   3.545  0.5191  0.0543  0.6011
  110MOL    C5035148   4.561   6.326   3.651  0.0212  0.6209  0.3192
  110MOL    O5135149   4.529   6.440   3.729 -0.0836 -0.1763 -0.0341
  110MOL    C5235150   4.558   6.435   3.862 -1.0732 -0.3740 -0.3757
  110MOL    C5335151   4.536   6.568   3.928  0.2680  0.4655  0.8674
  110MOL    C5435152   4.532   6.549   4.081 -0.4739 -0.2728 -0.0932
  110MOL    C5535153   4.454   6.323   3.539  0.0382  0.2972 -0.8959
  110MOL    H5635154   4.538   6.242   3.716 -3.3418  1.7175  0.6179
  110MOL    H5735155   4.495   6.357   3.905  0.4446 -1.6324 -0.3999
  110MOL    H5835156   4.656   6.396   3.888 -0.6846  1.5879  1.1764
  110MOL    H5935157   4.442   6.599   3.882  0.5188 -0.4873 -0.3339
  110MOL    H6035158   4.610   6.642   3.901  0.6160 -0.5855 -1.1241
  110MOL    H6135159   4.448   6.486   4.108 -1.0325  0.1310 -0.8555
  110MOL    H6235160   4.506   6.645   4.125  1.3557  0.0613  0.3121
  110MOL    H6335161   4.632   6.511   4.102  1.0370  2.4222 -2.1102
  110MOL    H6435162   4.440   6.219   3.512  0.7447 -0.2074  0.6587
  110MOL    H6535163   4.360   6.354   3.584  0.0046 -0.6517 -0.3134
  110MOL    C6635164   4.475   6.399   3.400 -0.2050  0.3276 -0.2423
  110MOL    O6735165   4.374   6.361   3.313  0.2656 -0.1812  0.0568
  110MOL    C6835166   4.402   6.353   3.174  0.1652  0.0817 -0.7324
  110MOL    C6935167   4.282   6.321   3.084 -0.5191  0.1417  0.6574
  110MOL    C7035168   4.160   6.416   3.101 -0.0119 -0.5584  0.9147
  110MOL    C7135169   4.491   6.552   3.420 -0.1486  0.6552 -0.6008
  110MOL    H7235170   4.566   6.360   3.357 -0.5646 -1.0418  0.2103
  110MOL    H7335171   4.441   6.442   3.125 -1.4943  0.2558 -1.7616
  110MOL    H7435172   4.485   6.283   3.165 -0.2997 -0.9676  2.3937
  110MOL    H7535173   4.259   6.216   3.106 -1.4038  0.4719  1.3017
  110MOL    H7635174   4.321   6.314   2.982 -1.3607  1.6557  0.2250
  110MOL    H7735175   4.135   6.429   3.206  1.3738 -2.4805  1.5032
  110MOL    H7835176   4.074   6.374   3.050 -0.1424  1.4761 -0.6240
  110MOL    H7935177   4.167   6.515   3.055 -0.6255 -1.2174 -0.6063
  110MOL    H8035178   4.588   6.568   3.466 -1.1682  1.5594  1.3088
  110MOL    H8135179   4.496   6.606   3.326 -0.8187  1.9727  0.0948
  110MOL    C8235180   4.383   6.636   3.495  0.4082  0.6483 -0.0338
  110MOL    O8335181   4.433   6.771   3.510 -0.1758 -0.5853  0.0018
  110MOL    C8435182   4.553   6.779   3.592  0.7292 -0.5743 -0.5242
  110MOL    C8535183   4.554   6.930   3.632  0.2379 -0.4724  0.3334
  110MOL    C8635184   4.612   7.020   3.530 -0.3727 -0.1852  1.1210
  110MOL    C8735185   4.246   6.627   3.421 -0.4122  0.0767  0.3391
  110MOL    H8835186   4.377   6.606   3.600  0.6968  0.9305  0.0631
  110MOL    H8935187   4.543   6.718   3.681 -1.4060  0.1085 -0.2678
  110MOL    H9035188   4.649   6.757   3.545  0.3964 -0.4539 -1.2642
  110MOL    H9135189   4.607   6.942   3.726  0.6303  0.3111  0.0232
  110MOL    H9235190   4.449   6.950   3.655  0.6490 -0.2975  2.0845
  110MOL    H9335191   4.549   7.033   3.442  0.1778 -2.5115  0.3710
  110MOL    H9435192   4.710   6.987   3.497  0.6545 -1.0636  4.8686
  110MOL    H9535193   4.628   7.115   3.581 -0.3136  0.6839 -0.4856
  110MOL    H9635194   4.268   6.662   3.320 -0.1944 -0.1274  0.3150
  110MOL    H9735195   4.205   6.527   3.408  1.0949 -0.2392 -2.4383
  110MOL    C9835196   4.137   6.722   3.469  0.6013 -1.0447  0.2078
  110MOL    O9935197   4.022   6.697   3.391  0.2050 -0.7121 -0.0740
  110MOL   C10035198   4.017   6.756   3.265  0.3567 -0.1177  0.4857
  110MOL   C10135199   3.877   6.738   3.208  0.2687  0.9528  0.5983
  110MOL   C10235200   3.840   6.591   3.215 -0.6246 -0.1165 -0.2803
  110MOL   C10335201   4.081   6.691   3.610  0.5297 -0.7099 -0.0628
  110MOL   H10435202   4.168   6.826   3.459 -0.4830 -0.7481 -0.0565
  110MOL   H10535203   4.049   6.860   3.266  1.6579 -0.4890 -0.8055
  110MOL   H10635204   4.069   6.702   3.186  0.6087 -1.7217  1.7245
  110MOL   H10735205   3.878   6.771   3.105  0.1139 -0.2533  0.2028
  110MOL   H10835206   3.804   6.805   3.254  0.6628  1.0698  1.0675
  110MOL   H10935207   3.834   6.556   3.318 -1.4511 -0.0677 -0.3046
  110MOL   H11035208   3.919   6.531   3.169 -0.3242 -0.6473  0.9141
  110MOL   H11135209   3.742   6.563   3.176 -1.1268  1.6821 -0.3296
  110MOL   H11235210   4.064   6.583   3.608 -1.0782 -0.4747  0.2627
  110MOL   H11335211   4.159   6.717   3.681 -0.2650 -2.8482  1.6303
  110MOL   C11435212   3.954   6.766   3.660  0.3617 -0.1551 -0.5102
  110MOL   O11535213   3.941   6.727   3.798 -0.0430 -0.0293  0.1421
  110MOL   C11635214   3.813   6.749   3.850  0.0137  0.1443 -0.2339
  110MOL   C11735215   3.805   6.740   4.003  0.5650 -0.0417 -0.2859
  110MOL   C11835216   3.666   6.771   4.051  0.3681 -0.2755 -0.1396
  110MOL   C11935217   3.942   6.914   3.640 -0.3918 -0.0081 -0.3647
  110MOL   H12035218   3.876   6.711   3.607  0.0918 -0.4756  0.1954
  110MOL   H12135219   3.766   6.841   3.815  0.7148 -0.1027 -1.8669
  110MOL   H12235220   3.743   6.671   3.821 -0.2465  0.2955 -0.0144
  110MOL   H12335221   3.880   6.809   4.043  0.3837  2.1981 -3.6355
  110MOL   H12435222   3.827   6.638   4.034 -2.1804 -0.8233 -0.7545
  110MOL   H12535223   3.594   6.701   4.008  1.7377 -0.9081 -1.4701
  110MOL   H12635224   3.627   6.871   4.033  0.7278  0.4507  2.9709
  110MOL   H12735225   3.669   6.759   4.159  0.3274  0.1136 -0.0973
  110MOL   H12835226   3.997   6.941   3.550  0.0840  0.9397  0.1977
  110MOL   H12935227   3.836   6.933   3.622 -0.4884 -0.6260 -0.4544
  110MOL   C13035228   4.000   7.006   3.749 -0.3241 -0.5320 -0.6579
  110MOL   O13135229   4.137   6.991   3.772  0.3310  0.0202  0.7506
  110MOL   C13235230   4.182   7.021   3.906  0.3719  0.1654 -0.3462
  110MOL   C13335231   4.329   7.040   3.904 -0.2229  0.2326 -0.7078
  110MOL   C13435232   4.384   7.052   4.044  0.4917 -0.5068  0.0017
  110MOL   C13535233   3.982   7.150   3.698  0.1316 -0.0679  0.2235
  110MOL   H13635234   3.941   6.997   3.841  1.0127 -2.9172  0.0229
  110MOL   H13735235   4.126   7.108   3.939  1.8150  0.6646  0.8007
  110MOL   H13835236   4.145   6.944   3.974  0.4181  0.5053  0.0598
  110MOL   H13935237   4.357   7.128   3.846 -0.2873 -0.1211 -1.2737
  110MOL   H14035238   4.383   6.953   3.868 -0.8086 -0.2703 -0.3726
  110MOL   H14135239   4.339   7.140   4.089 -0.4207 -0.4574 -0.9653
  110MOL   H14235240   4.492   7.057   4.036  0.6919 -2.0211  1.4570
  110MOL   H14335241   4.365   6.960   4.099  0.6643 -0.0871  0.7551
  110MOL   H14435242   4.043   7.214   3.761  0.2850  0.9549 -0.9351
  110MOL   H14535243   4.037   7.156   3.604 -0.1326 -0.5815  0.0324
  110MOL   C14635244   3.831   7.206   3.704 -0.4904 -0.5193  0.3697
  110MOL   O14735245   3.810   7.247   3.839 -0.1172  0.6590  0.0232
  110MOL   C14835246   3.709   7.163   3.904  0.0833  0.2948 -0.1638
  110MOL   C14935247   3.707   7.192   4.058 -0.7100 -0.6077  0.2800
  110MOL   C15035248   3.841   7.163   4.123 -0.3246  0.8213  0.1422
  110MOL   C15135249   3.819   7.331   3.615  0.3463 -0.2215  0.3100
  110MOL   H15235250   3.754   7.135   3.675 -1.1277  1.4699 -3.0655
  110MOL   H15335251   3.612   7.195   3.866 -0.5692 -0.9169  0.4396
  110MOL   H15435252   3.724   7.059   3.877  0.8202  1.2154 -3.5379
  110MOL   H15535253   3.629   7.129   4.100 -1.7097 -0.4680 -1.3091
  110MOL   H15635254   3.682   7.296   4.081  1.4230 -0.1324  0.5553
  110MOL   H15735255   3.845   7.207   4.222  0.5632  1.5099 -0.1988
  110MOL   H15835256   3.924   7.212   4.073  1.2505 -1.2007  0.7162
  110MOL   H15935257   3.857   7.056   4.114 -0.5723  0.8919 -1.2718
  110MOL   H16035258   3.869   7.417   3.660  0.2554  1.3115 -2.4543
  110MOL   H16135259   3.859   7.313   3.515 -1.7666 -0.6529 -0.4791
  110MOL   C16235260   3.675   7.379   3.590 -0.2650  0.3547  0.2749
  110MOL   O16335261   3.677   7.510   3.531 -0.2085 -0.7554  0.2592
  110MOL   C16435262   3.647   7.619   3.616  0.3416  0.7308 -0.1262
  110MOL   C16535263   3.643   7.747   3.531  0.6614 -0.2894  0.1739
  110MOL   C16635264   3.604   0.041   3.603  0.0135 -0.0662 -0.3122
  110MOL   C16735265   3.595   7.283   3.495  0.2439  0.8687 -0.4152
  110MOL   H16835266   3.628   7.385   3.689 -1.2836  0.4749 -0.2099
  110MOL   H16935267   3.548   7.608   3.661 -0.2698 -0.3722 -1.6739
  110MOL   H17035268   3.722   7.630   3.694  1.7375  2.3496 -1.6620
  110MOL   H17135269   3.567   7.718   3.459  0.3764 -0.3485  0.5002
  110MOL   H17235270   3.738   7.771   3.483 -0.1344 -0.8652 -1.7479
  110MOL   H17335271   3.587   0.124   3.534  2.1611  1.5185  0.9814
  110MOL   H17435272   3.689   0.081   3.659  0.5517 -0.4714 -0.8228
  110MOL   H17535273   3.519   0.015   3.665  0.2786 -2.5517 -0.9452
  110MOL   H17635274   3.646   7.293   3.399  0.6587  2.8887 -0.0001
  110MOL   H17735275   3.597   7.180   3.532 -1.8808  1.8589  2.6225
  110MOL   C17835276   3.437   7.317   3.481 -0.0823 -0.1247  0.2636
  110MOL   O17935277   3.388   7.243   3.368  0.2236 -0.5995  0.9989
  110MOL   C18035278   3.390   7.315   3.249  0.3124  0.0225  0.3987
  110MOL   C18135279   3.405   7.224   3.130 -0.0125 -0.3149  0.9242
  110MOL   C18235280   3.531   7.139   3.138 -0.4526 -0.1411 -0.4557
  110MOL   C18335281   3.361   7.291   3.609 -0.2959  0.0036 -0.3560
  110MOL   H18435282   3.432   7.424   3.465 -2.7572 -0.5340 -1.9422
  110MOL   H18535283   3.306   7.383   3.234  2.7234  2.7722 -1.1776
  110MOL   H18635284   3.476   7.382   3.251  0.8210 -0.5467 -1.8588
  110MOL   H18735285   3.403   7.271   3.032  0.3575  0.1036  1.1172
  110MOL   H18835286   3.314   7.163   3.135 -1.3756  1.5767 -0.1755
  110MOL   H18935287   3.549   7.062   3.063  0.6706 -1.9819  1.6405
  110MOL   H19035288   3.548   7.100   3.238 -4.5756 -2.1433 -0.4149
  110MOL   H19135289   3.624   7.194   3.126  0.1561 -0.8569  0.9218
  110MOL   H19235290   3.341   7.184   3.618  0.0275 -0.1514 -1.3756
  110MOL   H19335291   3.423   7.297   3.698 -2.7403  1.5110  1.2906
  110MOL   C19435292   3.241   7.373   3.624  0.3789  0.7071  0.3601
  110MOL   O19535293   3.181   7.333   3.747  0.0659  1.1602  0.3756
  110MOL   C19635294   3.056   7.256   3.740  0.1160 -0.5236 -0.4521
  110MOL   C19735295   3.009   7.216   3.877  0.2877  0.2271 -0.3638
  110MOL   C19835296   2.959   7.342   3.957 -0.3176  0.4065  0.6452
  110MOL   C19935297   3.264   7.523   3.654  0.0549  0.0223  0.6149
  110MOL   H20035298   3.166   7.347   3.548 -0.0532 -0.2320  1.0976
  110MOL   H20135299   2.974   7.319   3.705  0.1158 -0.1279  0.2619
  110MOL   H20235300   3.075   7.172   3.673  0.1492 -0.6378 -0.2979
  110MOL   H20335301   3.094   7.171   3.928 -0.8107 -0.5297  0.8239
  110MOL   H20435302   2.926   7.147   3.863 -0.1205  0.6322  0.0319
  110MOL   H20535303   3.049   7.372   4.011  1.7828  0.1086 -2.5638
  110MOL   H20635304   2.892   7.300   4.032 -0.1932  0.0997  0.5859
  110MOL   H20735305   2.919   7.421   3.893  0.3787  1.2528  1.2388
  110MOL   H20835306   3.331   7.547   3.737  1.0805  0.9156 -0.4612
  110MOL   H20935307   3.316   7.563   3.567  0.1659  0.7674  1.0162
  110MOL   C21035308   3.144   7.619   3.655  0.4136  0.2909 -0.0096
  110MOL   O21135309   3.192   7.753   3.661 -0.3656  0.6642 -0.3949
  110MOL   C21235310   3.180   7.819   3.787  0.0702 -0.6129  0.3122
  110MOL   C21335311   3.243   0.126   3.791 -0.2695  0.5351  0.7546
  110MOL   C21435312   3.231   0.193   3.923  0.0697  0.2986  0.2872
  110MOL   C21535313   3.046   7.601   3.540  0.8404  0.0108 -0.5217
  110MOL   H21635314   3.089   7.589   3.744  0.7331  0.0619  0.1110
  110MOL   H21735315   3.077   0.000   3.823  0.0691 -1.2857  0.4955
  110MOL   H21835316   3.228   7.753   3.859 -1.7224 -2.8317 -0.4559
  110MOL   H21935317   3.195   0.190   3.717 -0.4945 -1.2610 -0.7080
  110MOL   H22035318   3.345   0.113   3.754 -0.7385  0.5945 -0.5794
  110MOL   H22135319   3.215   0.298   3.900  1.1995  0.4417  0.1365
  110MOL   H22235320   3.313   0.190   3.995 -1.3154  0.8804  1.9385
  110MOL   H22335321   3.137   0.158   3.966  0.6542 -2.2039 -0.3652
  110MOL   H22435322   3.094   7.595   3.443  2.3642  2.5387  0.0327
  110MOL   H22535323   3.006   7.499   3.539  0.5155  0.1458 -1.3928
  110MOL   C22635324   2.927   7.702   3.544 -0.0849  0.2761 -0.4586
  110MOL   O22735325   2.860   7.707   3.420  0.5165  0.1477  0.5913
  110MOL   C22835326   2.923   7.790   3.322 -0.0383  0.6635  0.0124
  110MOL   C22935327   2.882   0.110   3.338 -0.2790  0.7925 -0.2437
  110MOL   C23035328   2.743   0.142   3.289 -0.2225  0.4994  0.2552
  110MOL   C23135329   2.819   7.678   3.657 -0.6284 -0.1975 -0.5569
  110MOL   H23235330   2.962   7.804   3.561 -0.2292  0.2944 -0.2712
  110MOL   H23335331   3.030   7.770   3.315 -0.2880 -0.1868 -1.7123
  110MOL   H23435332   2.878   7.757   3.228 -0.2149 -1.6771  0.8775
  110MOL   H23535333   2.960   0.172   3.293  0.1589  0.3344 -0.1311
  110MOL   H23635334   2.887   0.124   3.446 -0.3461 -3.7323  0.4340
  110MOL   H23735335   2.745   0.145   3.180  2.2706  1.6756  0.2802
  110MOL   H23835336   2.716   0.242   3.324 -2.4732 -0.7147  2.1140
  110MOL   H23935337   2.669   0.074   3.331 -2.1244  0.8725 -2.3845
  110MOL   H24035338   2.788   7.573   3.653 -0.1361 -0.3844  0.5383
  110MOL   H24135339   2.874   7.683   3.751 -3.0701 -0.7032  0.9337
  110MOL   C24235340   2.690   7.755   3.647 -0.5156  0.1468  0.2268
  110MOL   O24335341   2.575   7.674   3.641 -0.2240  0.0551  0.2913
  110MOL   C24435342   2.531   7.634   3.509  0.0470 -0.2721  0.0095
  110MOL   C24535343   2.402   7.552   3.512 -0.4042  0.0153  0.7846
  110MOL   C24635344   2.392   7.463   3.390 -0.0701  0.0730 -0.1148
  110MOL   C24735345   2.665   0.020   3.766  0.5063  0.1754 -0.1354
  110MOL   H24835346   2.700   7.811   3.554 -0.2243 -0.5201 -0.1447
  110MOL   H24935347   2.519   7.722   3.446 -1.5134 -1.5237 -1.4696
  110MOL   H25035348   2.606   7.577   3.455 -1.0187 -1.0975 -0.6141
  110MOL   H25135349   2.326   7.629   3.524 -0.4101 -0.1271  1.6950
  110MOL   H25235350   2.402   7.490   3.601 -1.4084 -0.0856  0.7185
  110MOL   H25335351   2.424   7.504   3.294  1.8835 -1.0666  0.0234
  110MOL   H25435352   2.287   7.439   3.370  0.5326 -0.4711 -2.7002
  110MOL   H25535353   2.459   7.377   3.395 -1.2753 -0.9175 -0.7524
  110MOL   H25635354   2.570   0.069   3.748 -0.1487 -0.8877  0.3805
  110MOL   H25735355   2.643   7.785   3.853 -4.1349 -1.1492 -2.1553
  110MOL   C25835356   2.772   0.125   3.809  1.1374 -0.6064  1.1154
  110MOL   O25935357   2.776   0.216   3.701 -0.0159  0.0074 -0.2398
  110MOL   C26035358   2.891   0.297   3.691 -0.5123  0.1898 -0.3403
  110MOL   C26135359   2.863   0.383   3.570 -0.1104 -0.5560  0.4783
  110MOL   C26235360   2.971   0.477   3.524 -0.0555 -0.0241  0.5211
  110MOL   C26335361   2.744   0.183   3.948 -0.4344  0.1169 -0.2847
  110MOL   H26435362   2.870   0.077   3.799  1.6375  0.6982 -0.3991
  110MOL   H26535363   2.909   0.348   3.785 -0.3423 -1.4858  0.5570
  110MOL   H26635364   2.981   0.237   3.682 -1.6213 -1.5642 -0.0901
  110MOL   H26735365   2.772   0.439   3.595  0.5117  0.6005  0.2023
  110MOL   H26835366   2.840   0.324   3.482  1.0201  1.5247 -1.2761
  110MOL   H26935367   3.004   0.547   3.601  0.2405  1.2974 -0.7832
  110MOL   H27035368   2.932   0.529   3.437  0.3647  0.7630  0.7972
  110MOL   H27135369   3.052   0.410   3.494  1.5295  1.6558  0.9023
  110MOL   H27235370   2.773   0.287   3.959 -1.6339  0.7194 -2.7154
  110MOL   H27335371   2.637   0.183   3.968 -0.4608  0.3388 -0.4338
  110MOL   C27435372   2.825   0.114   4.056 -0.1954  1.3964  0.1022
  110MOL   O27535373   2.801   0.180   4.180 -0.0946  0.9045 -0.5877
  110MOL   C27635374   2.904   0.248   4.242 -0.4502 -0.4349  0.1472
  110MOL   C27735375   2.851   0.282   4.388 -0.0929  0.0934 -1.1639
  110MOL   C27835376   2.924   0.401   4.443  0.0369 -0.1189  0.3871
  110MOL   C27935377   2.792   7.790   4.078  1.0398  0.1657 -0.3057
  110MOL   H28035378   2.927   0.131   4.022  0.3196 -1.5577  0.0264
  110MOL   H28135379   2.996   0.190   4.252 -0.3564 -0.7897 -2.4435
  110MOL   H28235380   2.917   0.333   4.177 -0.9300  0.0441  0.6683
  110MOL   H28335381   2.869   0.190   4.444 -0.7606 -0.0072 -1.1089
  110MOL   H28435382   2.745   0.302   4.397  0.1310  0.4856  0.7972
  110MOL   H28535383   2.930   0.482   4.370 -1.6543 -1.0073 -0.7460
  110MOL   H28635384   3.026   0.376   4.473  0.8368  1.5017 -0.8355
  110MOL   H28735385   2.869   0.439   4.529  0.3123  1.2838 -0.0397
  110MOL   H28835386   2.683   7.788   4.084  1.1300  1.4229  2.9794
  110MOL   H28935387   2.805   7.743   3.981 -1.8656 -0.5508 -0.3848
  110MOL   C29035388   2.869   7.725   4.197  0.1238  0.4830  0.2458
  110MOL   O29135389   2.809   7.591   4.193  0.0566 -0.3012  0.0647
  110MOL   C29235390   2.682   7.578   4.256  0.0073 -0.5275 -0.4481
  110MOL   C29335391   2.605   7.448   4.226  0.6826 -0.0853  0.2537
  110MOL   C29435392   2.674   7.327   4.301  0.2171  0.2415 -0.1420
  110MOL   C29535393   3.024   7.717   4.166 -0.1028  0.4388  0.2939
  110MOL   H29635394   2.847   7.773   4.292  1.3513  0.2411  0.6679
  110MOL   H29735395   2.702   7.578   4.364 -1.6272 -0.0850 -0.1432
  110MOL   H29835396   2.611   7.660   4.245 -0.4220 -0.7839  0.3638
  110MOL   H29935397   2.616   7.438   4.118  0.2445  0.4025  0.1638
  110MOL   H30035398   2.500   7.457   4.253  0.2496 -1.5384 -0.8990
  110MOL   H30135399   2.782   7.319   4.291  0.3054  1.3645 -0.2383
  110MOL   H30235400   2.644   7.234   4.254  2.2870  0.0231 -1.0649
  110MOL   H30335401   2.646   7.345   4.405 -0.2148  0.0575 -0.2248
  110MOL   H30435402   3.015   7.662   4.072 -1.5096 -0.4108  0.9156
  110MOL   H30535403   3.079   7.809   4.145  2.0083 -1.4674 -3.0939
  110MOL   C30635404   3.114   7.642   4.263  0.3133 -0.2572  0.0558
  110MOL   O30735405   3.240   7.619   4.207  0.7731  0.0505 -0.7607
  110MOL   C30835406   3.315   7.504   4.251  0.2564  0.1431  0.2583
  110MOL   C30935407   3.450   7.499   4.175 -0.6108  0.6367  0.1011
  110MOL   C31035408   3.441   7.457   4.027  0.1205  0.0966 -0.3712
  110MOL   C31135409   3.136   7.714   4.397 -0.5712 -0.5067  0.5850
  110MOL   H31235410   3.066   7.545   4.267 -0.4585 -0.0231 -2.5102
  110MOL   H31335411   3.335   7.505   4.358  1.5689  0.5231  0.0280
  110MOL   H31435412   3.258   7.413   4.230  1.2127 -0.1593 -1.0757
  110MOL   H31535413   3.516   7.436   4.235 -0.4286  0.7761  0.0457
  110MOL   H31635414   3.485   7.599   4.199 -0.1188  0.6747 -0.7721
  110MOL   H31735415   3.389   7.533   3.969 -1.5199  0.3716  1.3927
  110MOL   H31835416   3.391   7.360   4.021  0.7022 -0.3372  1.5490
  110MOL   H31935417   3.541   7.448   3.985  0.2707 -2.5622  0.5025
  110MOL   H32035418   3.178   7.814   4.384 -0.7036 -0.8088 -2.3362
  110MOL   H32135419   3.042   7.727   4.451  1.6231  0.1979  4.4647
  110MOL   H32235420   3.205   7.655   4.458  2.1016  1.2987 -0.5617
  111MOL     C135421   5.590   0.004   3.830 -0.2571 -0.2913 -0.2106
  111MOL     O235422   5.446   0.013   3.836  0.4178 -0.0417 -0.4193
  111MOL     C335423   5.392   0.141   3.863  0.5479 -0.3502 -0.3494
  111MOL     C435424   5.245   0.148   3.816  0.5501  0.1631 -0.2177
  111MOL     C535425   5.221   0.140   3.660  0.4169  0.1779 -0.0819
  111MOL     C635426   5.625   7.686   3.799 -0.2719 -0.4912  0.1868
  111MOL     H735427   5.639   0.032   3.924 -1.1326  0.3611  0.0558
  111MOL     H835428   5.394   0.154   3.971 -1.5191 -0.7251 -0.2355
  111MOL     H935429   5.456   0.220   3.825  0.9378  0.9485  2.8547
  111MOL    H1035430   5.211   0.248   3.842  3.8478  1.5151 -0.8526
  111MOL    H1135431   5.191   0.063   3.859 -0.6021  1.2338  0.4518
  111MOL    H1235432   5.258   0.228   3.607 -0.3556  1.8963  2.1508
  111MOL    H1335433   5.114   0.137   3.635  0.5381  2.5016 -1.0680
  111MOL    H1435434   5.275   0.061   3.609 -0.5153 -0.0739 -0.7021
  111MOL    H1535435   5.595   7.624   3.883  0.6409 -0.8254  0.2707
  111MOL    H1635436   5.564   7.661   3.712  0.4831  0.5340 -0.6519
  111MOL    H1735437   5.629   0.068   3.751 -0.9731  1.4722  0.8469
  111MOL    C1835438   5.775   7.648   3.773  0.2262  0.1132  0.5504
  111MOL    O1935439   5.848   7.653   3.894  0.0427  0.2141  0.5365
  111MOL    C2035440   5.903   7.776   3.931  0.6372  0.0834 -0.2384
  111MOL    C2135441   5.914   7.768   4.090 -0.6029 -0.6168  0.0203
  111MOL    C2235442   5.976   0.055   4.168 -0.0180  0.1641 -0.0684
  111MOL    C2335443   5.796   7.509   3.705  0.3927  0.1514  0.0462
  111MOL    H2435444   5.813   7.722   3.702  1.8072 -2.7331 -1.6303
  111MOL    H2535445   6.006   7.774   3.896  0.9694 -0.8715  0.7680
  111MOL    H2635446   5.853   0.041   3.905 -0.3878 -0.2505  0.4993
  111MOL    H2735447   5.961   7.672   4.113 -0.2418 -0.2291  0.9084
  111MOL    H2835448   5.818   7.737   4.130  0.4218 -1.1307  2.1383
  111MOL    H2935449   5.955   0.041   4.274 -2.2799  0.0211 -0.5157
  111MOL    H3035450   5.923   0.147   4.142 -0.5765 -0.6623 -1.9678
  111MOL    H3135451   6.082   0.074   4.149  0.5723 -1.8292  1.0826
  111MOL    H3235452   5.749   7.442   3.777 -1.0753  0.8503 -0.2424
  111MOL    H3335453   5.737   7.492   3.615  2.1675  0.0913 -1.1250
  111MOL    C3435454   5.943   7.481   3.675 -0.7902 -0.7493 -0.7930
  111MOL    O3535455   5.962   7.347   3.619 -0.3209  0.3390  0.2494
  111MOL    C3635456   5.929   7.234   3.705 -0.2606  0.3818  0.4033
  111MOL    C3735457   5.945   7.095   3.644 -0.4251 -0.0959  0.0350
  111MOL    C3835458   6.083   7.051   3.597  1.0621  0.4517  0.5275
  111MOL    C3935459   6.013   7.574   3.568 -0.1326 -0.1153  0.5712
  111MOL    H4035460   5.998   7.485   3.769 -0.5413 -0.1275 -0.9685
  111MOL    H4135461   5.995   7.234   3.792  0.6228  1.7153 -0.2631
  111MOL    H4235462   5.826   7.249   3.740 -0.4905 -0.1366 -0.0464
  111MOL    H4335463   5.880   7.078   3.558 -0.5322 -2.5035  0.5631
  111MOL    H4435464   5.904   7.019   3.710  0.2070 -0.2148  0.2913
  111MOL    H4535465   6.138   6.989   3.667  0.1554 -0.9637  0.0076
  111MOL    H4635466   6.146   7.131   3.559  0.3011  0.5862 -0.4667
  111MOL    H4735467   6.088   6.973   3.521 -1.8730 -1.4201  2.1224
  111MOL    H4835468   6.022   7.672   3.614 -0.4874  1.5060 -2.6680
  111MOL    H4935469   6.114   7.534   3.565  0.3773  1.1458  0.3413
  111MOL    C5035470   5.950   7.583   3.420  0.0756 -0.0257 -0.9390
  111MOL    O5135471   5.850   7.685   3.419 -0.2163 -0.3384 -0.3712
  111MOL    C5235472   5.749   7.670   3.323  0.5498 -0.2624  0.7973
  111MOL    C5335473   5.667   7.799   3.288 -0.5963 -0.2138  0.2621
  111MOL    C5435474   5.573   0.020   3.390 -0.0667 -0.2648 -0.2489
  111MOL    C5535475   6.053   7.628   3.313 -0.4125 -0.6332 -0.4533
  111MOL    H5635476   5.905   7.487   3.394  2.0952 -1.6982  1.5770
  111MOL    H5735477   5.780   7.632   3.226  1.0934  0.9324  0.4940
  111MOL    H5835478   5.680   7.589   3.348  0.3102 -0.3250 -0.0679
  111MOL    H5935479   5.605   7.775   3.202 -1.4013  2.6282 -0.0098
  111MOL    H6035480   5.743   0.038   3.247 -0.3097  0.0909  1.2857
  111MOL    H6135481   5.591   0.125   3.410 -2.2438  0.2034 -0.5762
  111MOL    H6235482   5.572   7.787   3.480  0.6492  0.6480  0.3867
  111MOL    H6335483   5.473   0.016   3.346 -0.2116  2.6471 -0.2770
  111MOL    H6435484   6.018   7.676   3.222  1.0498 -3.9846 -2.8788
  111MOL    H6535485   6.106   7.708   3.366 -2.4249  0.9795 -0.8085
  111MOL    C6635486   6.155   7.521   3.273  1.2025 -0.0287 -0.2364
  111MOL    O6735487   6.088   7.408   3.223  0.8619 -0.3835  0.2155
  111MOL    C6835488   6.134   7.282   3.247  0.9832 -0.5394  0.2009
  111MOL    C6935489   6.056   7.178   3.158 -0.6269  0.3989  0.3366
  111MOL    C7035490   6.094   7.201   3.008 -0.0162  0.2246  0.1917
  111MOL    C7135491   6.250   7.562   3.161 -0.8262 -0.1874  0.1976
  111MOL    H7235492   6.216   7.491   3.359  2.6963  2.8622 -0.2149
  111MOL    H7335493   6.243   7.282   3.243  1.0378  0.3574  1.4392
  111MOL    H7435494   6.112   7.269   3.353 -2.5440 -1.5845 -0.5904
  111MOL    H7535495   5.952   7.210   3.152 -0.2737  1.0837 -2.6975
  111MOL    H7635496   6.066   7.074   3.188 -1.5083  0.4947  0.9869
  111MOL    H7735497   6.063   7.117   2.946 -0.0423 -0.0541  0.5734
  111MOL    H7835498   6.199   7.229   3.007  0.3223 -0.8596  1.9205
  111MOL    H7935499   6.043   7.289   2.969 -1.8741 -1.3343 -1.0126
  111MOL    H8035500   6.329   7.487   3.159 -1.8798 -1.3103 -0.0626
  111MOL    H8135501   6.196   7.568   3.067 -0.9268  2.9115  0.3897
  111MOL    C8235502   6.329   7.693   3.177  0.0329 -0.2741  0.0482
  111MOL    O8335503   6.247   7.809   3.183 -0.2686  0.1720 -0.9436
  111MOL    C8435504   6.192   0.027   3.064  0.1265  0.4476  0.4320
  111MOL    C8535505   6.117   0.162   3.076 -0.1933 -0.0833  0.7134
  111MOL    C8635506   6.030   0.183   3.202 -0.6898  0.1348  0.3528
  111MOL    C8735507   6.426   7.690   3.303  0.2015  0.7795  0.0912
  111MOL    H8835508   6.383   7.699   3.082 -0.2424  0.4361 -0.0604
  111MOL    H8935509   6.279   0.039   3.000 -0.5114  4.7330  0.2581
  111MOL    H9035510   6.128   7.779   3.019  0.7467 -0.0232  0.3335
  111MOL    H9135511   6.042   0.160   2.997  0.2052  0.5690  0.3186
  111MOL    H9235512   6.193   0.239   3.066  0.9537 -1.1461  1.0668
  111MOL    H9335513   5.964   0.097   3.215 -2.2951  1.1016 -1.1554
  111MOL    H9435514   5.972   0.274   3.189  1.0315  1.8241  3.8157
  111MOL    H9535515   6.095   0.197   3.288 -0.3772  0.1792  0.1106
  111MOL    H9635516   6.367   7.666   3.392 -0.0201 -0.2219 -0.3100
  111MOL    H9735517   6.497   7.608   3.286 -0.2090  0.3903  0.2357
  111MOL    C9835518   6.496   7.821   3.329  0.3702 -0.2184  0.1910
  111MOL    O9935519   6.571   0.030   3.215 -0.7305  0.0426  0.2446
  111MOL   C10035520   6.705   7.823   3.221  0.4889  0.3590 -0.0628
  111MOL   C10135521   6.767   0.091   3.114  0.4882 -0.2061  0.8365
  111MOL   C10235522   6.802   0.230   3.166  1.0312 -0.6910  0.2207
  111MOL   C10335523   6.408   0.109   3.365  0.4252 -0.0584 -0.4352
  111MOL   H10435524   6.564   7.803   3.413  1.8193 -0.1398 -0.9578
  111MOL   H10535525   6.764   0.020   3.310  2.6347 -0.2662 -1.2781
  111MOL   H10635526   6.723   7.716   3.213  2.3555  0.7236 -0.9277
  111MOL   H10735527   6.706   0.097   3.024 -0.2211  3.1764  1.4676
  111MOL   H10835528   6.858   0.038   3.089  0.6835  0.7184 -0.4662
  111MOL   H10935529   6.711   0.275   3.206  0.9731  0.1896 -0.8625
  111MOL   H11035530   6.847   0.300   3.095 -1.1993 -0.8068 -1.3564
  111MOL   H11135531   6.874   0.231   3.248  1.0833  3.2581  0.2424
  111MOL   H11235532   6.359   0.149   3.276  0.2425 -0.3190 -0.4519
  111MOL   H11335533   6.329   0.076   3.432 -0.4658  0.4652 -1.2131
  111MOL   C11435534   6.495   0.221   3.436 -0.8228  0.7270 -0.2044
  111MOL   O11535535   6.420   0.335   3.436  0.1328 -0.2668 -0.1963
  111MOL   C11635536   6.443   0.409   3.307 -1.2200  0.6918 -0.3599
  111MOL   C11735537   6.357   0.541   3.317  0.4900  0.2242  1.0403
  111MOL   C11835538   6.391   0.628   3.192  0.0155 -0.1302 -0.0159
  111MOL   C11935539   6.525   0.171   3.578  0.6522  0.2987 -0.7332
  111MOL   H12035540   6.588   0.235   3.381 -0.3061 -0.5676  0.3133
  111MOL   H12135541   6.549   0.434   3.303 -0.9484 -0.5643 -1.3078
  111MOL   H12235542   6.406   0.347   3.225 -1.3938 -1.7882  1.5367
  111MOL   H12335543   6.370   0.584   3.416  0.4496  1.4778  0.5052
  111MOL   H12435544   6.254   0.506   3.306  0.4857  0.1913  1.1907
  111MOL   H12535545   6.312   0.703   3.197 -0.5335 -0.6502 -0.7827
  111MOL   H12635546   6.381   0.571   3.100 -0.0095 -1.6106  0.8952
  111MOL   H12735547   6.483   0.686   3.194  0.0709 -0.2544  1.1620
  111MOL   H12835548   6.432   0.135   3.623 -0.3817  1.4771 -1.8803
  111MOL   H12935549   6.585   0.080   3.585 -1.6144 -1.5079 -3.4804
  111MOL   C13035550   6.596   0.273   3.671  0.3118 -0.3614 -0.0685
  111MOL   O13135551   6.579   0.245   3.810 -0.1654 -0.4239 -0.1354
  111MOL   C13235552   6.438   0.250   3.850  0.8479  0.5215  0.3995
  111MOL   C13335553   6.427   0.326   3.988 -0.1077 -0.0647 -0.1022
  111MOL   C13435554   6.495   0.464   4.001 -0.1172  0.9740 -0.3171
  111MOL   C13535555   6.749   0.275   3.656  0.0678 -0.4772  0.3305
  111MOL   H13635556   6.556   0.371   3.646 -1.8291 -0.8136  1.4660
  111MOL   H13735557   6.381   0.294   3.769  0.0992 -0.4462  0.3900
  111MOL   H13835558   6.398   0.149   3.860  1.7559 -0.1055 -1.9764
  111MOL   H13935559   6.460   0.263   4.071 -0.8178  0.6151  0.7104
  111MOL   H14035560   6.325   0.340   4.023  0.3086  1.5548  0.5144
  111MOL   H14135561   6.459   0.532   3.924  1.5957  0.6743 -1.4134
  111MOL   H14235562   6.599   0.447   3.974  0.0872  0.1754  0.9099
  111MOL   H14335563   6.499   0.505   4.101  2.8056  0.8133 -0.3421
  111MOL   H14435564   6.792   0.176   3.669 -0.1139 -0.6227 -0.1948
  111MOL   H14535565   6.776   0.294   3.552 -0.0356 -2.9473 -0.1812
  111MOL   C14635566   6.817   0.385   3.747  0.1302  0.8805  0.7055
  111MOL   O14735567   6.952   0.342   3.751 -0.2353  0.3123 -0.4281
  111MOL   C14835568   6.969   0.246   3.851 -0.8647 -0.2292 -1.2728
  111MOL   C14935569   7.116   0.232   3.898 -0.3878 -0.4059  0.2817
  111MOL   C15035570   7.182   0.365   3.935 -0.2197 -0.1508 -0.6763
  111MOL   C15135571   6.799   0.520   3.678  0.4894 -0.2372 -0.6401
  111MOL   H15235572   6.768   0.395   3.843  0.2531 -1.2956  1.0185
  111MOL   H15335573   6.919   0.275   3.943 -0.5417 -1.2317 -0.7833
  111MOL   H15435574   6.936   0.150   3.813  0.9753 -1.9734  1.4263
  111MOL   H15535575   7.173   0.179   3.821  1.0825  1.9806 -0.3172
  111MOL   H15635576   7.117   0.166   3.985  0.1658 -0.4034  0.2770
  111MOL   H15735577   7.280   0.356   3.980 -0.8867  1.0274  1.0886
  111MOL   H15835578   7.126   0.414   4.015  2.2669  1.5672  0.0564
  111MOL   H15935579   7.189   0.436   3.852 -1.2703  1.7677  0.8340
  111MOL   H16035580   6.826   0.517   3.572  2.6580  1.2915 -0.1598
  111MOL   H16135581   6.693   0.542   3.666  0.1323 -1.7160 -0.3184
  111MOL   C16235582   6.873   0.634   3.753  0.3797  0.7362  0.3587
  111MOL   O16335583   6.909   0.739   3.655  0.8826  0.5909  0.5166
  111MOL   C16435584   7.041   0.734   3.595 -0.7657 -0.5078 -0.3141
  111MOL   C16535585   7.067   0.844   3.495 -0.4104  0.3443  0.4248
  111MOL   C16635586   7.022   0.980   3.545 -0.4467 -0.5918 -0.4490
  111MOL   C16735587   6.789   0.693   3.862 -0.1451 -0.3123  0.3409
  111MOL   H16835588   6.965   0.602   3.802  0.7088 -1.9175 -1.8569
  111MOL   H16935589   7.109   0.737   3.680 -0.4104  3.0718 -0.6376
  111MOL   H17035590   7.054   0.634   3.555  1.4724 -0.6731  0.7540
  111MOL   H17135591   7.027   0.818   3.397 -1.4510 -2.2617  1.5108
  111MOL   H17235592   7.174   0.847   3.471  0.9433 -1.1157  5.6578
  111MOL   H17335593   7.049   0.983   3.650  0.3150 -1.9271 -0.6000
  111MOL   H17435594   6.917   1.009   3.533 -0.5124 -1.2053 -1.3748
  111MOL   H17535595   7.068   1.074   3.515 -1.0715 -0.4364 -0.9430
  111MOL   H17635596   6.692   0.727   3.824  0.0085  0.9708  1.0858
  111MOL   H17735597   6.778   0.623   3.944  1.8148  1.3542  2.0746
  111MOL   C17835598   6.848   0.828   3.919  0.0825 -0.6704  0.2567
  111MOL   O17935599   6.758   0.895   4.008  0.7968 -0.3849 -0.5477
  111MOL   C18035600   6.774   1.043   4.008 -0.7949  0.1154  0.2430
  111MOL   C18135601   6.670   1.124   4.094 -0.3496  0.0895 -0.9202
  111MOL   C18235602   6.662   1.055   4.232 -0.0394  0.0510  0.1686
  111MOL   C18335603   6.989   0.823   3.988 -0.1786 -0.1545  0.0944
  111MOL   H18435604   6.854   0.891   3.831  0.1965 -0.7989  0.1728
  111MOL   H18535605   6.875   1.070   4.038 -0.4680  0.8800 -1.5168
  111MOL   H18635606   6.766   1.072   3.904 -0.6070 -0.8738 -0.0556
  111MOL   H18735607   6.570   1.127   4.051 -0.7725 -2.5875 -0.2525
  111MOL   H18835608   6.705   1.227   4.102  0.2402 -0.0170 -2.0594
  111MOL   H18935609   6.744   1.003   4.282 -1.0533 -0.6742  1.1217
  111MOL   H19035610   6.574   0.990   4.237  0.1953 -0.1828  1.7788
  111MOL   H19135611   6.631   1.130   4.306  2.8492  0.7745  0.6879
  111MOL   H19235612   7.045   0.770   3.911  0.3458  0.0038  0.3730
  111MOL   H19335613   7.038   0.920   3.993  1.4670 -0.9809  0.1297
  111MOL   C19435614   7.017   0.740   4.116 -0.9260 -0.4099 -0.6099
  111MOL   O19535615   7.154   0.755   4.157 -0.0059  0.4142 -0.0448
  111MOL   C19635616   7.250   0.663   4.103  0.4598  0.1405 -0.5385
  111MOL   C19735617   7.384   0.730   4.115 -0.2420 -0.2705 -0.5949
  111MOL   C19835618   7.503   0.642   4.084 -0.3389 -0.3100  0.0088
  111MOL   C19935619   6.946   0.782   4.247  0.1087  0.0928  1.0866
  111MOL   H20035620   6.989   0.637   4.094 -0.9851 -0.3322 -0.9094
  111MOL   H20135621   7.242   0.573   4.164 -1.5049  1.9454  1.9451
  111MOL   H20235622   7.228   0.639   3.999  2.7112 -1.4381 -0.6909
  111MOL   H20335623   7.395   0.765   4.218  0.3987  1.7812 -1.3392
  111MOL   H20435624   7.388   0.823   4.060 -3.6895  1.1810  1.4520
  111MOL   H20535625   7.497   0.597   3.985  1.5321 -2.3274  0.7558
  111MOL   H20635626   7.509   0.561   4.157 -3.2181 -0.9397 -0.4117
  111MOL   H20735627   7.597   0.695   4.065  0.5270 -1.9634 -0.4038
  111MOL   H20835628   6.978   0.882   4.276  0.2681  0.5019 -0.4541
  111MOL   H20935629   6.841   0.778   4.218  0.1895  0.6695  0.6977
  111MOL   C21035630   6.955   0.689   4.370 -0.3718  0.2762  0.3577
  111MOL   O21135631   6.920   0.552   4.349 -0.2128 -0.1817  0.1516
  111MOL   C21235632   6.780   0.521   4.356  0.5317 -0.3270  0.8618
  111MOL   C21335633   6.768   0.367   4.330 -0.4237 -0.0255  0.2706
  111MOL   C21435634   6.808   0.322   4.185 -0.3134  0.2099  0.0825
  111MOL   C21535635   7.098   0.679   4.429 -0.3229 -0.2700 -0.1806
  111MOL   H21635636   6.886   0.739   4.438  1.1786  2.8567  0.1057
  111MOL   H21735637   6.742   0.541   4.456  0.5069 -0.3461  0.8561
  111MOL   H21835638   6.746   0.576   4.268  1.7803 -1.5256 -0.4201
  111MOL   H21935639   6.668   0.333   4.357  0.0559 -2.4994 -0.9397
  111MOL   H22035640   6.831   0.312   4.400  2.5522  0.1393 -2.1832
  111MOL   H22135641   6.893   0.255   4.188  1.5269  2.5296  0.8835
  111MOL   H22235642   6.826   0.415   4.131  1.2883 -0.0565  0.1466
  111MOL   H22335643   6.717   0.284   4.138 -0.6546  0.6134  0.4126
  111MOL   H22435644   7.169   0.633   4.360 -1.6412  0.3328 -1.9717
  111MOL   H22535645   7.136   0.780   4.442 -0.3753 -0.1241 -1.1389
  111MOL   C22635646   7.128   0.608   4.573  0.4654 -0.2455  0.4467
  111MOL   O22735647   7.271   0.601   4.584 -0.4581 -0.0175  0.5084
  111MOL   C22835648   7.330   0.481   4.637  0.0599  0.5232  0.0969
  111MOL   C22935649   7.478   0.497   4.638 -0.4133 -0.3222 -0.6501
  111MOL   C23035650   7.533   0.610   4.727 -0.0939 -0.2103 -0.0756
  111MOL   C23135651   7.077   0.671   4.702  0.3645 -0.0131  0.1054
  111MOL   H23235652   7.088   0.507   4.571  0.7336 -0.3433 -0.2580
  111MOL   H23335653   7.299   0.467   4.741 -1.5111 -1.7396 -0.6374
  111MOL   H23435654   7.292   0.411   4.563  0.8043  1.5685 -1.2988
  111MOL   H23535655   7.506   0.522   4.536 -2.4013  1.3419 -0.8060
  111MOL   H23635656   7.523   0.399   4.657  0.3268  0.0523 -0.4341
  111MOL   H23735657   7.484   0.704   4.703  0.8001  0.8603  2.1805
  111MOL   H23835658   7.642   0.613   4.721 -0.1026 -0.4034 -0.3500
  111MOL   H23935659   7.488   0.593   4.825  1.4491  2.9416  1.2308
  111MOL   H24035660   6.972   0.642   4.708  0.7486 -1.4554  0.1004
  111MOL   H24135661   7.113   0.621   4.791 -1.0958 -1.0967  0.0947
  111MOL   C24235662   7.091   0.817   4.731  0.1984 -0.3666  0.2714
  111MOL   O24335663   6.993   0.885   4.661  0.1348 -0.2923 -0.6473
  111MOL   C24435664   7.042   1.016   4.608  0.2813  0.4474  0.1692
  111MOL   C24535665   6.914   1.094   4.580  0.7066 -0.0276  0.0260
  111MOL   C24635666   6.935   1.234   4.518  0.2491  0.2311  0.2394
  111MOL   C24735667   7.063   0.862   4.876 -0.5117  0.4562 -0.5317
  111MOL   H24835668   7.190   0.849   4.700 -0.4017  0.5644 -0.6804
  111MOL   H24935669   7.109   1.066   4.678  1.9574 -2.1391  0.5013
  111MOL   H25035670   7.100   1.007   4.516  0.8418  0.6686  0.5003
  111MOL   H25135671   6.852   1.102   4.669  0.4142  1.5161 -0.2993
  111MOL   H25235672   6.858   1.024   4.518  0.4810 -2.7751  3.1920
  111MOL   H25335673   7.037   1.267   4.542  0.9316 -1.7708  0.1372
  111MOL   H25435674   6.861   1.302   4.559  0.4124 -0.0233  0.9767
  111MOL   H25535675   6.936   1.241   4.409 -0.2994 -1.0448  0.1503
  111MOL   H25635676   7.020   0.962   4.871  0.1268  0.8077  0.6663
  111MOL   H25735677   6.980   0.796   4.901 -1.5377  1.3543 -1.5468
  111MOL   C25835678   7.180   0.865   4.977  0.1228  0.6865 -0.6352
  111MOL   O25935679   7.266   0.971   4.946  0.1163 -0.4874 -0.7356
  111MOL   C26035680   7.405   0.952   4.971 -0.3427 -0.9243  0.4512
  111MOL   C26135681   7.471   1.094   4.979  0.1833  0.4180 -0.3688
  111MOL   C26235682   7.436   1.157   5.116  0.4967  0.0456 -0.5610
  111MOL   C26335683   7.123   0.877   5.122 -0.0107 -0.5706  0.5672
  111MOL   H26435684   7.238   0.774   4.961  0.5507  0.4557  1.8902
  111MOL   H26535685   7.425   0.910   5.069  1.2775 -1.4571 -0.0945
  111MOL   H26635686   7.443   0.897   4.885 -1.7511 -2.6451  0.9173
  111MOL   H26735687   7.433   1.168   4.908 -0.7538  2.0291  1.7609
  111MOL   H26835688   7.574   1.095   4.945  1.2803 -4.0683  2.4773
  111MOL   H26935689   7.447   1.265   5.123 -0.0173  0.3877 -4.0291
  111MOL   H27035690   7.490   1.108   5.197 -1.5587  0.6366  1.2298
  111MOL   H27135691   7.332   1.133   5.140  0.7123 -1.3361 -0.9917
  111MOL   H27235692   7.203   0.904   5.191  0.5446 -0.2911 -0.1782
  111MOL   H27335693   7.061   0.966   5.128 -1.7530 -1.7225  0.0613
  111MOL   C27435694   7.068   0.750   5.187  0.1747  0.6129 -0.1724
  111MOL   O27535695   7.179   0.666   5.207 -0.0966 -0.4697 -0.2630
  111MOL   C27635696   7.154   0.526   5.215  0.5426 -0.2820  0.5803
  111MOL   C27735697   7.265   0.437   5.164 -1.0491  0.4054  0.3050
  111MOL   C27835698   7.286   0.447   5.018  0.1198 -0.0169  0.5368
  111MOL   C27935699   6.995   0.767   5.320 -0.7104 -0.4777  0.0409
  111MOL   H28035700   6.999   0.708   5.115 -0.9151  1.2428  0.4853
  111MOL   H28135701   7.144   0.526   5.323  2.4462 -0.7076  0.7751
  111MOL   H28235702   7.063   0.490   5.168  0.0330 -0.5949  1.7910
  111MOL   H28335703   7.245   0.332   5.182 -0.7445  0.0419 -1.4687
  111MOL   H28435704   7.351   0.454   5.229 -0.6307 -0.9936  0.1244
  111MOL   H28535705   7.201   0.411   4.959  0.8898 -0.5683 -0.2525
  111MOL   H28635706   7.365   0.379   4.986  0.0622  0.1799 -0.0170
  111MOL   H28735707   7.312   0.548   4.989 -0.3117  0.4206  1.6802
  111MOL   H28835708   6.964   0.667   5.352  0.0264 -0.7205  0.0072
  111MOL   H28935709   7.061   0.801   5.401 -0.0044  2.6188 -1.7763
  111MOL   C29035710   6.870   0.868   5.307 -0.7173  0.5581  0.3000
  111MOL   O29135711   6.770   0.810   5.224 -0.4248  0.1441  0.3003
  111MOL   C29235712   6.672   0.904   5.178 -0.4790  0.6545  0.4876
  111MOL   C29335713   6.707   0.974   5.055  0.5126  0.2492  0.6387
  111MOL   C29435714   6.707   0.879   4.930 -0.1287  0.0765 -0.1085
  111MOL   C29535715   6.810   0.891   5.451 -0.0614  0.1434  0.6043
  111MOL   H29635716   6.895   0.964   5.263  1.9811  0.2367  1.0443
  111MOL   H29735717   6.580   0.848   5.158 -1.4442  2.1459  0.6719
  111MOL   H29835718   6.658   0.985   5.249 -0.2797  0.1593  1.0913
  111MOL   H29935719   6.801   1.029   5.065  0.1019  0.8129  1.4678
  111MOL   H30035720   6.636   1.056   5.041  0.1424 -0.2073 -0.2024
  111MOL   H30135721   6.761   0.927   4.849  1.3571 -1.4358 -0.0488
  111MOL   H30235722   6.607   0.857   4.892 -0.0664  0.5041 -0.5162
  111MOL   H30335723   6.767   0.790   4.947  2.8485  2.7209  4.3430
  111MOL   H30435724   6.721   0.954   5.446 -0.7210 -0.5988  2.6436
  111MOL   H30535725   6.767   0.800   5.491 -1.4253  0.7087  0.4607
  111MOL   C30635726   6.903   0.956   5.557 -0.0100 -0.1774 -0.1469
  111MOL   O30735727   6.835   1.071   5.611 -0.3759  0.0728 -0.2351
  111MOL   C30835728   6.919   1.169   5.676  0.4608 -0.2944 -0.1369
  111MOL   C30935729   6.833   1.228   5.791  0.2304 -0.7469  0.4759
  111MOL   C31035730   6.752   1.114   5.870  0.2900 -0.8613 -0.0952
  111MOL   C31135731   6.920   0.852   5.667  0.2188 -0.4586  0.5024
  111MOL   H31235732   6.995   0.999   5.518 -0.0947 -0.6942 -0.9171
  111MOL   H31335733   7.008   1.118   5.713 -0.2684 -3.3994 -2.3912
  111MOL   H31435734   6.968   1.241   5.611  0.9157  1.6757  2.3476
  111MOL   H31535735   6.756   1.294   5.752 -0.2427  0.5819  3.5259
  111MOL   H31635736   6.888   1.300   5.852 -1.2252  1.3881 -0.6519
  111MOL   H31735737   6.702   1.158   5.956 -0.5571 -1.3282 -0.3413
  111MOL   H31835738   6.828   1.048   5.912  1.1704  1.0750  1.4267
  111MOL   H31935739   6.674   1.067   5.809  1.4051 -1.6920 -0.9072
  111MOL   H32035740   6.823   0.840   5.713 -0.4607 -2.2517 -1.2879
  111MOL   H32135741   6.957   0.759   5.623  0.2531  0.9187 -2.4983
  111MOL   H32235742   6.994   0.889   5.738  0.8412 -1.1649  0.2386
  112MOL     C135743   6.885   1.562   4.312  0.5901  0.0911  0.4235
  112MOL     O235744   6.752   1.514   4.343 -0.3099 -0.1289 -0.1690
  112MOL     C335745   6.702   1.556   4.473  0.1066  0.1782  0.0810
  112MOL     C435746   6.553   1.524   4.479 -0.4645  0.2224 -0.3593
  112MOL     C535747   6.467   1.610   4.386  0.3196  0.5543 -0.1377
  112MOL     C635748   6.927   1.487   4.189 -0.5822  1.0103  0.0438
  112MOL     H735749   6.956   1.538   4.391  1.4004  2.6045  0.5012
  112MOL     H835750   6.757   1.521   4.561  2.4057 -2.0943 -2.1837
  112MOL     H935751   6.708   1.665   4.479  0.8185  0.1640 -0.4144
  112MOL    H1035752   6.522   1.551   4.580 -1.6880  2.4002 -1.2742
  112MOL    H1135753   6.536   1.418   4.460 -2.6100  0.4588  0.1049
  112MOL    H1235754   6.361   1.597   4.405  0.2528  0.3131 -0.6803
  112MOL    H1335755   6.498   1.578   4.286  0.2910 -1.5420  0.5169
  112MOL    H1435756   6.499   1.715   4.391  1.6612  0.0852  1.5007
  112MOL    H1535757   6.885   1.386   4.189 -3.1517  2.0413  0.7400
  112MOL    H1635758   6.886   1.527   4.097  1.1062  0.2648 -1.0462
  112MOL    H1735759   6.899   1.669   4.301 -0.3197 -0.0799 -2.7675
  112MOL    C1835760   7.082   1.470   4.166  0.0041 -0.2863  0.0187
  112MOL    O1935761   7.117   1.359   4.081  0.0325 -0.0225 -0.1832
  112MOL    C2035762   7.120   1.246   4.150  0.5627  0.3899  0.1189
  112MOL    C2135763   7.203   1.147   4.068  0.1278  0.0368 -0.1468
  112MOL    C2235764   7.352   1.170   4.048  0.4697 -0.2936 -0.3614
  112MOL    C2335765   7.135   1.601   4.097 -0.0505 -0.1461  0.2345
  112MOL    H2435766   7.128   1.482   4.264 -1.2286  3.5412  0.2375
  112MOL    H2535767   7.164   1.244   4.250  1.0888  1.8298 -0.0776
  112MOL    H2635768   7.023   1.198   4.162 -0.0608  1.3452 -1.0252
  112MOL    H2735769   7.168   1.139   3.966  3.7549 -0.1969 -1.4699
  112MOL    H2835770   7.190   1.047   4.109  0.6637 -0.3032 -0.7910
  112MOL    H2935771   7.373   1.256   3.985  0.1350 -0.3253 -0.5167
  112MOL    H3035772   7.389   1.083   3.993  0.9965  0.2274 -0.8354
  112MOL    H3135773   7.400   1.182   4.145 -0.4997 -0.0568  0.0940
  112MOL    H3235774   7.102   1.592   3.993  0.6507 -0.5641  0.0409
  112MOL    H3335775   7.099   1.699   4.129  1.0261  0.6781 -0.9906
  112MOL    C3435776   7.287   1.600   4.107  0.3663  0.1216 -0.3600
  112MOL    O3535777   7.331   1.717   4.043 -0.5375  0.5907 -0.4404
  112MOL    C3635778   7.355   1.695   3.901 -0.7657 -0.1363 -0.2874
  112MOL    C3735779   7.426   1.821   3.850 -0.3635 -0.8242  0.5521
  112MOL    C3835780   7.460   1.818   3.700 -0.1226  0.1530  0.1714
  112MOL    C3935781   7.339   1.609   4.250  0.5291  0.0903  0.0864
  112MOL    H4035782   7.330   1.513   4.058 -3.0595 -0.6924 -2.0764
  112MOL    H4135783   7.421   1.610   3.884  1.0205  1.6566 -2.8586
  112MOL    H4235784   7.263   1.672   3.848 -0.2130 -0.2421 -1.2204
  112MOL    H4335785   7.521   1.829   3.903 -0.2263 -1.0841  0.3460
  112MOL    H4435786   7.366   1.912   3.858 -0.0488 -0.4909 -0.7595
  112MOL    H4535787   7.503   1.724   3.666 -1.7431 -0.5761  0.0684
  112MOL    H4635788   7.517   1.908   3.676  0.8522 -1.0017 -1.9239
  112MOL    H4735789   7.368   1.827   3.642 -0.1699  1.9430  0.4919
  112MOL    H4835790   7.297   1.696   4.300  0.8863  0.6685 -0.6129
  112MOL    H4935791   7.324   1.520   4.310 -1.0328 -0.9600 -1.8287
  112MOL    C5035792   7.493   1.619   4.257  0.1464  0.3954 -0.6943
  112MOL    O5135793   7.532   1.638   4.385 -0.6813 -0.2302 -0.1420
  112MOL    C5235794   7.580   1.767   4.422  0.8399  0.2947 -0.3770
  112MOL    C5335795   7.590   1.770   4.571 -0.1841  0.0826  0.0851
  112MOL    C5435796   7.727   1.715   4.623  0.2348 -0.9109  0.2986
  112MOL    C5535797   7.550   1.482   4.224 -0.6342  0.4471  0.5450
  112MOL    H5635798   7.538   1.697   4.196 -0.5183  1.2822 -0.0600
  112MOL    H5735799   7.671   1.793   4.367  1.6335  0.0365  0.7997
  112MOL    H5835800   7.506   1.837   4.383  0.5998  0.4014  0.2702
  112MOL    H5935801   7.508   1.726   4.628 -0.4996  0.7430  0.1517
  112MOL    H6035802   7.575   1.877   4.590  1.5627  0.4620 -0.5880
  112MOL    H6135803   7.814   1.746   4.565 -1.2576 -0.0411 -1.5419
  112MOL    H6235804   7.733   1.606   4.618 -2.3533 -1.0239 -0.9716
  112MOL    H6335805   7.733   1.742   4.729 -1.5672  0.5602  0.0547
  112MOL    H6435806   7.505   1.403   4.285  1.6780 -2.7561 -1.7058
  112MOL    H6535807   7.529   1.458   4.120  1.7354  1.9457 -0.3101
  112MOL    C6635808   7.702   1.464   4.217  0.3093 -0.8052  0.4608
  112MOL    O6735809   7.719   1.332   4.167 -0.0427  0.0054 -0.2862
  112MOL    C6835810   7.741   1.234   4.263 -0.0948 -0.3800  0.1924
  112MOL    C6935811   7.726   1.103   4.199 -0.0848  0.0361  0.0596
  112MOL    C7035812   7.803   1.078   4.069 -0.5350  0.2790 -0.2209
  112MOL    C7135813   7.776   1.554   4.115  1.1778  0.0088  1.0389
  112MOL    H7235814   7.749   1.484   4.313 -1.0593  0.1220  0.9405
  112MOL    H7335815   0.012   1.259   4.302  0.6933 -1.7579 -0.9109
  112MOL    H7435816   7.668   1.242   4.343  0.1548 -0.7008  0.4547
  112MOL    H7535817   7.622   1.083   4.173  0.2722 -0.6198 -0.9098
  112MOL    H7635818   7.745   1.018   4.265  0.9529  0.5566  0.4394
  112MOL    H7735819   7.776   1.152   3.993  2.4433  1.3352 -0.3195
  112MOL    H7835820   7.787   0.980   4.026  2.1547  1.5100 -4.3262
  112MOL    H7935821   0.079   1.097   4.096  0.0141 -1.9936 -0.6955
  112MOL    H8035822   7.726   1.536   4.019  2.2737  1.1279  0.2426
  112MOL    H8135823   7.766   1.657   4.146 -0.5499 -0.5173  2.3034
  112MOL    C8235824   0.095   1.514   4.094  0.9930 -0.0798  0.4697
  112MOL    O8335825   0.137   1.571   3.967 -0.1868 -0.2522  0.1684
  112MOL    C8435826   0.162   1.480   3.866  0.3262  0.0341 -0.0115
  112MOL    C8535827   0.210   1.549   3.731 -0.0076  0.6381  0.3510
  112MOL    C8635828   0.100   1.638   3.677 -0.9107  0.4034 -0.8096
  112MOL    C8735829   0.187   1.557   4.206  0.1834  0.6560  0.4883
  112MOL    H8835830   0.092   1.405   4.082 -0.6308 -0.1821  1.6270
  112MOL    H8935831   0.246   1.416   3.893  2.3237  2.0115 -1.2801
  112MOL    H9035832   0.078   1.413   3.852  1.1156 -0.9118 -0.2569
  112MOL    H9135833   0.224   1.467   3.660 -3.7079 -1.9744  2.4567
  112MOL    H9235834   0.309   1.594   3.744  0.8297 -1.0666  0.1158
  112MOL    H9335835   0.056   1.700   3.755 -2.2817 -0.1223 -1.1556
  112MOL    H9435836   0.024   1.586   3.619  0.3396 -0.1880 -1.9368
  112MOL    H9535837   0.150   1.705   3.608 -0.7877  0.0111 -1.1041
  112MOL    H9635838   0.173   1.660   4.238  1.5060  1.4042 -1.2781
  112MOL    H9735839   0.151   1.502   4.293 -0.3664  1.3859  0.7230
  112MOL    C9835840   0.337   1.511   4.195  0.1261  0.1260 -0.0919
  112MOL    O9935841   0.412   1.590   4.281 -0.3114  0.0416 -0.3278
  112MOL   C10035842   0.449   1.715   4.222 -0.8597 -0.7772  0.1504
  112MOL   C10135843   0.542   1.791   4.326  0.0656  0.1827  0.2008
  112MOL   C10235844   0.584   1.936   4.283  0.1343 -0.7807 -0.1636
  112MOL   C10335845   0.357   1.367   4.237  0.0823  0.2009 -0.2633
  112MOL   H10435846   0.361   1.528   4.090  0.8343  0.9742  0.2027
  112MOL   H10535847   0.496   1.685   4.128 -2.5183  0.3004 -1.0380
  112MOL   H10635848   0.363   1.776   4.196 -0.6233 -0.7774 -0.6524
  112MOL   H10735849   0.628   1.728   4.348 -0.5203 -1.7584 -2.7607
  112MOL   H10835850   0.498   1.802   4.425 -0.8451  0.6455 -0.2474
  112MOL   H10935851   0.643   1.940   4.191  0.5579  2.9958  0.1780
  112MOL   H11035852   0.632   1.983   4.368 -0.5503  0.3447 -0.3797
  112MOL   H11135853   0.496   1.996   4.260  0.6242 -0.9051 -2.4868
  112MOL   H11235854   0.354   1.370   4.346  0.3244  0.9068 -0.2735
  112MOL   H11335855   0.289   1.290   4.203 -0.0689  1.2277 -2.3805
  112MOL   C11435856   0.495   1.314   4.194 -0.3028 -0.5255 -0.4641
  112MOL   O11535857   0.558   1.225   4.283 -0.5382  0.4537  0.6330
  112MOL   C11635858   0.630   1.285   4.393  0.8986 -0.3712  0.2171
  112MOL   C11735859   0.706   1.185   4.489 -0.2782 -0.5777  0.8036
  112MOL   C11835860   0.771   1.066   4.417  0.6466  0.4315  0.8683
  112MOL   C11935861   0.490   1.253   4.055 -0.0676 -0.3714 -0.1737
  112MOL   H12035862   0.568   1.395   4.204  1.3679 -2.2984  2.2505
  112MOL   H12135863   0.704   1.353   4.352  0.0187 -1.0587 -2.6320
  112MOL   H12235864   0.566   1.342   4.460  0.0948 -0.9359 -0.0613
  112MOL   H12335865   0.634   1.149   4.562 -0.7310  2.3798  1.8988
  112MOL   H12435866   0.791   1.232   4.539 -0.7735  1.4205 -0.1489
  112MOL   H12535867   0.852   1.017   4.471  2.0688  0.8198 -0.8786
  112MOL   H12635868   0.823   1.112   4.333 -0.4106 -1.3840 -0.8212
  112MOL   H12735869   0.712   0.985   4.374  1.1181 -0.2409  1.4894
  112MOL   H12835870   0.449   1.153   4.070 -1.7271  0.4967  1.1407
  112MOL   H12935871   0.413   1.301   3.995  0.8862  0.8307 -0.4547
  112MOL   C13035872   0.615   1.254   3.970 -0.4898  0.0683 -0.4668
  112MOL   O13135873   0.622   1.125   3.911 -0.7722  0.0157  0.0527
  112MOL   C13235874   0.748   1.050   3.934  0.3637  0.9395  0.6923
  112MOL   C13335875   0.733   0.909   3.893  0.2187  0.6502 -0.2026
  112MOL   C13435876   0.860   0.843   3.844 -0.0926 -0.0420  0.7335
  112MOL   C13535877   0.617   1.356   3.863  0.1220 -0.5959  0.2542
  112MOL   H13635878   0.701   1.265   4.035 -0.9325  3.2590 -0.3453
  112MOL   H13735879   0.832   1.088   3.876 -1.3111 -0.0681 -2.4897
  112MOL   H13835880   0.779   1.061   4.038  0.2122  0.7633  0.7552
  112MOL   H13935881   0.680   0.911   3.798 -1.1027 -0.1080  0.4985
  112MOL   H14035882   0.677   0.851   3.967  1.9626  1.5073  1.8194
  112MOL   H14135883   0.925   0.919   3.801  0.7783 -0.7061  0.8596
  112MOL   H14235884   0.855   0.774   3.760  0.4460  1.2339 -0.3718
  112MOL   H14335885   0.913   0.796   3.927 -0.6567  0.0354  1.1429
  112MOL   H14435886   0.686   1.322   3.785  0.9032 -1.0249  1.1260
  112MOL   H14535887   0.528   1.342   3.802 -0.7678 -2.2259  1.8904
  112MOL   C14635888   0.646   1.498   3.912 -0.7008 -0.2444  0.4806
  112MOL   O14735889   0.768   1.501   3.986 -0.2303  0.0312 -0.4394
  112MOL   C14835890   0.785   1.605   4.071 -0.1248 -0.0265 -0.0344
  112MOL   C14935891   0.928   1.620   4.126  0.3620 -0.1839  0.3910
  112MOL   C15035892   0.943   1.732   4.226 -0.2516  0.2003 -0.1623
  112MOL   C15135893   0.638   1.599   3.791 -0.4335  1.2136  0.4447
  112MOL   H15235894   0.568   1.526   3.982 -0.5555  0.4984  0.3489
  112MOL   H15335895   0.767   1.701   4.022 -0.4872  0.5837  1.2650
  112MOL   H15435896   0.712   1.606   4.151  0.9169  0.8349  0.9279
  112MOL   H15535897   0.985   1.646   4.037 -2.2705  0.6191 -1.0967
  112MOL   H15635898   0.971   1.528   4.167  1.0202 -0.2059 -0.3435
  112MOL   H15735899   0.904   1.696   4.322  0.0245 -0.1175 -0.1676
  112MOL   H15835900   0.890   1.826   4.212  1.4144  1.0368 -0.9668
  112MOL   H15935901   1.046   1.762   4.247 -0.5137  0.8586  0.1940
  112MOL   H16035902   0.537   1.598   3.752 -0.9352  1.9993  1.7026
  112MOL   H16135903   0.637   1.697   3.837 -1.9270  1.3643  0.0937
  112MOL   C16235904   0.732   1.585   3.669 -0.9598  0.7246  0.1793
  112MOL   O16335905   0.668   1.483   3.582 -0.1880  0.0574  0.2759
  112MOL   C16435906   0.751   1.424   3.489  0.2119 -0.5999  0.3054
  112MOL   C16535907   0.661   1.313   3.433 -0.7184 -0.1991  0.0876
  112MOL   C16635908   0.651   1.199   3.529 -0.1070  0.1894 -0.7262
  112MOL   C16735909   0.741   1.723   3.590 -0.4640  0.6443  0.9137
  112MOL   H16835910   0.833   1.556   3.697 -0.5134 -0.8118 -2.8478
  112MOL   H16935911   0.768   1.494   3.407 -1.2813 -1.6612 -0.9450
  112MOL   H17035912   0.850   1.393   3.523  0.0245  1.2685  2.6932
  112MOL   H17135913   0.707   1.275   3.342 -0.4708  1.2669 -0.4176
  112MOL   H17235914   0.561   1.344   3.404 -0.9030 -0.1937  0.7308
  112MOL   H17335915   0.559   1.208   3.588 -0.3764  0.8542 -1.2400
  112MOL   H17435916   0.744   1.190   3.585 -0.3716  1.0333 -0.1246
  112MOL   H17535917   0.641   1.110   3.468  1.6565 -1.0106  0.6817
  112MOL   H17635918   0.780   1.698   3.491 -0.0523 -0.8449  1.4368
  112MOL   H17735919   0.640   1.756   3.563 -0.5504 -1.6997 -1.9234
  112MOL   C17835920   0.829   1.831   3.649  0.1575 -0.6644 -0.5525
  112MOL   O17935921   0.752   1.888   3.756 -0.2024 -0.3028  0.7872
  112MOL   C18035922   0.759   2.030   3.755  0.4891 -0.0434  0.3526
  112MOL   C18135923   0.712   2.078   3.896 -0.1577 -0.0214  0.3486
  112MOL   C18235924   0.815   2.048   4.005  0.3077  0.1091  0.2689
  112MOL   C18335925   0.963   1.789   3.717 -0.4058 -0.3869 -0.0635
  112MOL   H18435926   0.850   1.905   3.571  0.1752 -0.7946 -0.6713
  112MOL   H18535927   0.862   2.065   3.752 -0.2204  2.4417  2.6122
  112MOL   H18635928   0.700   2.064   3.670  0.5532 -3.3692 -1.0936
  112MOL   H18735929   0.619   2.030   3.926  0.8568 -2.4698 -0.2770
  112MOL   H18835930   0.695   2.185   3.905 -0.3304 -0.2581  3.0978
  112MOL   H18935931   0.780   2.097   4.096 -0.1756 -1.4451  0.9412
  112MOL   H19035932   0.915   2.091   4.000 -0.1883  1.4527  1.5510
  112MOL   H19135933   0.825   1.940   4.021 -1.5339  0.1824  1.9834
  112MOL   H19235934   0.997   1.881   3.766  0.7183  0.6476 -2.6743
  112MOL   H19335935   0.947   1.717   3.796  1.3321 -0.5067  0.1923
  112MOL   C19435936   1.061   1.732   3.610  1.6413 -0.2054  0.2149
  112MOL   O19535937   1.092   1.831   3.508  0.3301  0.0688 -0.1689
  112MOL   C19635938   1.130   1.781   3.380 -0.2778 -0.2201  0.4843
  112MOL   C19735939   1.147   1.897   3.283  0.5275 -0.3455 -0.9056
  112MOL   C19835940   1.140   1.865   3.137  0.3461 -0.5667 -0.1268
  112MOL   C19935941   1.196   1.677   3.675  0.4203  0.6042 -0.0035
  112MOL   H20035942   1.016   1.647   3.560  2.7254 -1.5289  1.4262
  112MOL   H20135943   1.214   1.713   3.389 -0.0606  0.1892  1.6615
  112MOL   H20235944   1.046   1.719   3.348  0.0408 -1.1177  1.3812
  112MOL   H20335945   1.233   1.958   3.311 -0.6663  0.3304  1.4488
  112MOL   H20435946   1.066   1.963   3.313  0.1576 -0.9464 -0.5610
  112MOL   H20535947   1.041   1.822   3.120  1.4024 -4.5102  2.9717
  112MOL   H20635948   1.219   1.798   3.104  1.5161 -0.1418  1.7598
  112MOL   H20735949   1.140   1.958   3.080 -0.7628 -0.0616  0.6768
  112MOL   H20835950   1.281   1.682   3.607 -0.3687  0.6229 -0.9908
  112MOL   H20935951   1.221   1.752   3.750 -1.1187  0.2823  0.8427
  112MOL   C21035952   1.172   1.538   3.740 -0.2992 -0.3923 -0.2981
  112MOL   O21135953   1.176   1.453   3.634  0.0080 -0.3059 -0.3839
  112MOL   C21235954   1.099   1.337   3.646 -0.4191 -0.3719 -0.5358
  112MOL   C21335955   1.097   1.247   3.518 -0.3448  0.8450  0.4717
  112MOL   C21435956   1.225   1.166   3.520  0.0081  0.0036 -0.3743
  112MOL   C21535957   1.273   1.507   3.853  0.0343 -0.0110  0.2861
  112MOL   H21635958   1.072   1.531   3.782 -0.3657 -1.6054 -0.6404
  112MOL   H21735959   1.124   1.278   3.734  0.6632  2.8455  1.4081
  112MOL   H21835960   0.996   1.370   3.660 -0.3474 -1.2311  2.2759
  112MOL   H21935961   1.088   1.292   3.420 -0.6489  3.1740  1.5287
  112MOL   H22035962   1.011   1.180   3.520  0.2824  0.0258  0.1172
  112MOL   H22135963   1.324   1.211   3.529  0.6739 -1.4911 -0.0339
  112MOL   H22235964   1.226   1.115   3.424  3.7837 -3.5680  1.4129
  112MOL   H22335965   1.222   1.100   3.607 -0.9595  1.5402  0.7897
  112MOL   H22435966   1.239   1.589   3.916 -0.7264  0.0189 -0.1561
  112MOL   H22535967   1.248   1.412   3.900 -2.7735  0.9867  0.9135
  112MOL   C22635968   1.423   1.533   3.827  0.0747 -0.7298 -0.4321
  112MOL   O22735969   1.476   1.546   3.954 -0.3150  0.2832  0.3024
  112MOL   C22835970   1.472   1.670   4.019 -0.1084 -0.9482 -0.7288
  112MOL   C22935971   1.569   1.674   4.141 -0.0979 -0.1892  0.2582
  112MOL   C23035972   1.517   1.600   4.264 -1.4402 -0.3657  0.4497
  112MOL   C23135973   1.499   1.415   3.765 -0.1537  0.2158  0.3760
  112MOL   H23235974   1.432   1.630   3.778 -1.2560 -1.0135 -1.2383
  112MOL   H23335975   1.518   1.748   3.958 -0.2273  2.2822  3.0811
  112MOL   H23435976   1.375   1.712   4.048  0.5073 -1.1991  1.7931
  112MOL   H23535977   1.599   1.773   4.174 -0.8927  0.0088  0.3987
  112MOL   H23635978   1.669   1.641   4.112 -0.2071  0.3167 -0.6988
  112MOL   H23735979   1.446   1.646   4.333 -1.0627 -0.7937  1.1305
  112MOL   H23835980   1.601   1.561   4.321 -1.5371  0.0200  0.8638
  112MOL   H23935981   1.471   1.506   4.233 -1.7225  0.3805 -1.4296
  112MOL   H24035982   1.480   1.329   3.830 -0.5283  0.1802  0.2207
  112MOL   H24135983   1.448   1.382   3.674  2.6737 -0.8623 -0.9015
  112MOL   C24235984   1.655   1.429   3.741 -0.1107 -0.5191 -0.2355
  112MOL   O24335985   1.706   1.314   3.675 -0.1073  0.1559 -0.1342
  112MOL   C24435986   1.712   1.189   3.748 -0.4531 -0.1299  0.2391
  112MOL   C24535987   1.838   1.179   3.833  0.0945  0.3226 -0.0441
  112MOL   C24635988   1.847   1.049   3.922  0.2343  0.4580  0.1518
  112MOL   C24735989   1.698   1.564   3.678 -0.1573  0.0909  0.0250
  112MOL   H24835990   1.699   1.419   3.840  0.8138  1.0572 -0.4799
  112MOL   H24935991   1.625   1.176   3.812  0.1735 -1.1713  0.8871
  112MOL   H25035992   1.720   1.107   3.676  2.4570  0.0433  0.3246
  112MOL   H25135993   1.841   1.265   3.901  0.3932  0.8597 -0.7354
  112MOL   H25235994   1.923   1.184   3.765  0.2040 -2.0432 -0.1270
  112MOL   H25335995   1.772   1.061   4.000  0.3353  0.2645  0.2764
  112MOL   H25435996   1.941   1.033   3.975  0.6908 -1.5634 -1.2122
  112MOL   H25535997   1.813   0.966   3.860  2.0306 -0.5511  0.5190
  112MOL   H25635998   1.658   1.649   3.734  1.1056  1.2260 -0.7557
  112MOL   H25735999   1.803   1.588   3.698 -0.9440  1.5654  2.6122
  112MOL   C25836000   1.672   1.601   3.532  0.2292  0.3518  0.3404
  112MOL   O25936001   1.672   1.740   3.512 -0.7612  0.3619  0.0982
  112MOL   C26036002   1.544   1.808   3.525 -0.1986 -0.3816 -0.6174
  112MOL   C26136003   1.574   1.961   3.540 -0.4212  0.7871 -0.2796
  112MOL   C26236004   1.454   2.060   3.540  0.0493 -0.0994 -0.3151
  112MOL   C26336005   1.787   1.553   3.443  0.3183 -0.0049  0.2108
  112MOL   H26436006   1.576   1.567   3.494 -0.5042  0.7416  1.8248
  112MOL   H26536007   1.479   1.792   3.440  1.2560  1.8907 -2.2081
  112MOL   H26636008   1.501   1.778   3.621 -1.8856  0.0904 -1.2101
  112MOL   H26736009   1.633   1.986   3.451 -0.4074 -0.0244 -0.5050
  112MOL   H26836010   1.638   1.977   3.626 -0.1520  1.9941 -0.6968
  112MOL   H26936011   1.399   2.053   3.634  1.1750 -0.9540  0.3018
  112MOL   H27036012   1.381   2.030   3.465  1.3276 -1.8607 -0.9093
  112MOL   H27136013   1.474   2.165   3.519  0.0229 -0.1382 -0.5324
  112MOL   H27236014   1.867   1.626   3.433 -1.3292  2.1455  2.0716
  112MOL   H27336015   1.841   1.471   3.489 -0.0325  0.7394  1.9716
  112MOL   C27436016   1.740   1.515   3.299 -0.7825 -0.5040 -0.8804
  112MOL   O27536017   1.856   1.503   3.214 -0.6672  0.0944  0.1860
  112MOL   C27636018   1.851   1.586   3.101  0.4301  0.0531  0.5546
  112MOL   C27736019   1.984   1.575   3.033 -0.5428  0.8391 -0.1019
  112MOL   C27836020   2.017   1.430   2.975 -0.5192 -0.0078  0.6894
  112MOL   C27936021   1.662   1.385   3.283 -0.1606 -0.8268  0.6928
  112MOL   H28036022   1.679   1.603   3.279 -1.7738 -1.8054 -3.9794
  112MOL   H28136023   1.771   1.555   3.035  0.8625  0.5382 -0.2025
  112MOL   H28236024   1.813   1.687   3.119  1.3509  0.0667  2.5508
  112MOL   H28336025   2.062   1.608   3.101 -0.4578 -0.8175  0.6287
  112MOL   H28436026   1.994   1.658   2.963 -2.2378  0.9845 -0.1752
  112MOL   H28536027   1.939   1.400   2.905 -1.1007  1.5259  0.6759
  112MOL   H28636028   2.028   1.352   3.051  2.4839 -1.8554 -1.5342
  112MOL   H28736029   2.113   1.431   2.923  0.7526 -0.7831  2.9334
  112MOL   H28836030   1.572   1.390   3.345  0.3620 -1.9707  1.5707
  112MOL   H28936031   1.627   1.382   3.180  1.0684  2.5179  0.1075
  112MOL   C29036032   1.727   1.251   3.309  0.7094 -0.0852 -0.5471
  112MOL   O29136033   1.646   1.151   3.251 -0.3288  0.2323 -0.5380
  112MOL   C29236034   1.532   1.117   3.326  0.3299 -0.1305  0.2482
  112MOL   C29336035   1.448   1.005   3.261 -0.6392  0.3396 -0.2501
  112MOL   C29436036   1.403   1.047   3.120 -0.4797 -0.3341  0.2788
  112MOL   C29536037   1.859   1.223   3.231 -0.1518  0.1486 -0.3990
  112MOL   H29636038   1.737   1.232   3.416 -1.9904 -2.0617 -0.6026
  112MOL   H29736039   1.556   1.099   3.431 -0.1689  0.1792  0.4111
  112MOL   H29836040   1.456   1.194   3.323 -0.8288 -1.3203 -1.4424
  112MOL   H29936041   1.373   0.969   3.332 -1.5403  1.6102 -0.5464
  112MOL   H30036042   1.529   0.933   3.256 -0.9874 -0.1179  0.5773
  112MOL   H30136043   1.337   0.977   3.070  0.6812 -1.7164  0.6654
  112MOL   H30236044   1.495   1.045   3.062 -0.8192 -0.4556 -0.2597
  112MOL   H30336045   1.360   1.148   3.118 -0.8875 -0.4945  0.7372
  112MOL   H30436046   1.837   1.236   3.125  1.7305 -2.6310 -1.1682
  112MOL   H30536047   1.930   1.303   3.254  0.4055  0.0517 -1.7504
  112MOL   C30636048   1.929   1.088   3.262  0.2891 -0.2644 -0.1624
  112MOL   O30736049   2.032   1.078   3.166 -0.3642  0.2909 -0.3728
  112MOL   C30836050   2.089   0.946   3.128 -0.2207 -0.4849 -0.4778
  112MOL   C30936051   2.184   0.969   3.005  0.2018 -0.0379  0.3982
  112MOL   C31036052   2.331   0.970   3.036 -0.1768  0.2363 -0.5129
  112MOL   C31136053   1.993   1.082   3.405 -0.8410 -0.3161  0.0111
  112MOL   H31236054   1.859   1.009   3.233  0.9903 -1.1100  0.4229
  112MOL   H31336055   2.141   0.888   3.205  0.7324  0.6928 -0.2171
  112MOL   H31436056   2.000   0.893   3.095 -0.5525  0.2481 -0.7708
  112MOL   H31536057   2.159   1.070   2.975  0.8029 -0.2820 -0.9803
  112MOL   H31636058   2.156   0.907   2.919  0.9684  0.5968 -0.3198
  112MOL   H31736059   2.354   0.872   3.078 -3.5885 -0.3123  0.2415
  112MOL   H31836060   2.377   1.045   3.100  1.6642 -0.5773 -0.8246
  112MOL   H31936061   2.383   0.974   2.940 -0.1513  1.8865 -0.4292
  112MOL   H32036062   2.069   1.005   3.421 -1.1774 -0.3684  1.3724
  112MOL   H32136063   2.047   1.176   3.419 -0.3088 -0.5645 -0.3685
  112MOL   H32236064   1.915   1.076   3.481  0.9160 -1.9002  1.7295
  113MOL     C136065   2.778   6.084   6.062  0.1098 -0.7802 -0.3605
  113MOL     O236066   2.901   6.155   6.041 -0.3688 -0.5806 -0.4929
  113MOL     C336067   2.909   6.214   5.914 -0.2484  0.2171 -0.2593
  113MOL     C436068   3.032   6.288   5.887 -0.5369  0.3707  0.5525
  113MOL     C536069   3.073   6.409   5.977  0.0464 -0.0339 -0.4595
  113MOL     C636070   2.787   6.004   6.190  0.0326  0.2556  0.1896
  113MOL     H736071   2.771   6.014   5.979 -0.4085  0.0279 -1.0187
  113MOL     H836072   2.898   6.139   5.837  0.2758  0.5141 -0.6288
  113MOL     H936073   2.828   6.285   5.896 -0.6575 -0.6510 -1.8670
  113MOL    H1036074   3.022   6.322   5.783  0.9495  0.0787  0.3136
  113MOL    H1136075   3.118   6.222   5.882 -0.9701 -0.0504 -2.5223
  113MOL    H1236076   3.181   6.421   5.979  0.1666 -1.1903  0.6380
  113MOL    H1336077   3.039   6.391   6.079 -1.0739  1.4976 -0.5346
  113MOL    H1436078   3.024   6.504   5.956  2.2496  1.4519  0.8752
  113MOL    H1536079   2.698   5.946   6.214  1.3672 -2.1107 -0.3762
  113MOL    H1636080   2.858   5.924   6.166 -1.2728 -0.5149 -1.2153
  113MOL    H1736081   2.697   6.156   6.073  1.0423  0.2815 -0.3291
  113MOL    C1836082   2.830   6.091   6.311  0.3589  0.1690  0.1524
  113MOL    O1936083   2.714   6.160   6.350  0.7262  0.2416  0.2770
  113MOL    C2036084   2.744   6.290   6.409 -0.5100 -0.3424 -0.5228
  113MOL    C2136085   2.777   6.386   6.299  0.5266  0.2673  0.3344
  113MOL    C2236086   2.657   6.426   6.207 -0.3734 -0.3402  1.2146
  113MOL    C2336087   2.883   6.002   6.422  0.4891  0.2306 -0.9371
  113MOL    H2436088   2.907   6.160   6.280 -1.1616  1.9390  0.2629
  113MOL    H2536089   2.659   6.327   6.467  1.4179  0.3325  1.9600
  113MOL    H2636090   2.832   6.288   6.473 -0.5395  0.1056 -0.4661
  113MOL    H2736091   2.849   6.339   6.233 -0.7652 -0.1744 -0.7839
  113MOL    H2836092   2.840   6.468   6.335  1.8406 -0.0070 -1.2839
  113MOL    H2936093   2.675   6.475   6.111  0.7632  1.2066  2.1959
  113MOL    H3036094   2.598   6.502   6.259  0.8977 -0.2003  2.4731
  113MOL    H3136095   2.595   6.339   6.186 -1.0657 -0.0043  1.8566
  113MOL    H3236096   2.898   6.059   6.513 -0.3141 -0.3960 -0.4110
  113MOL    H3336097   2.798   5.935   6.435 -0.5016  1.2830 -1.8011
  113MOL    C3436098   3.010   5.918   6.392  0.6795  0.7741 -0.0004
  113MOL    O3536099   3.120   6.005   6.380  0.2897  0.1636 -0.1393
  113MOL    C3636100   3.180   6.010   6.254  0.5219  0.9148  0.0647
  113MOL    C3736101   3.257   6.138   6.257  0.1180  0.1635 -0.3521
  113MOL    C3836102   3.330   6.158   6.128  0.3084  0.3861  0.5485
  113MOL    C3936103   3.047   5.812   6.498 -0.0875 -0.5870  0.5828
  113MOL    H4036104   2.993   5.863   6.299 -0.8720  0.0640  0.6920
  113MOL    H4136105   3.246   5.926   6.236  2.3926  2.1857  0.7908
  113MOL    H4236106   3.102   6.014   6.177 -0.5141 -0.1005  1.0423
  113MOL    H4336107   3.328   6.141   6.340  1.0189 -1.1783 -1.0644
  113MOL    H4436108   3.184   6.215   6.283  0.2448 -0.1691  1.0235
  113MOL    H4536109   3.285   6.133   6.032  0.7061  0.2026  0.4065
  113MOL    H4636110   3.425   6.105   6.123  1.3273  2.2292 -0.2323
  113MOL    H4736111   3.349   6.265   6.123  0.7450  0.2470 -1.6587
  113MOL    H4836112   3.144   5.763   6.488  0.2837  0.1289  0.7040
  113MOL    H4936113   3.049   5.867   6.592 -0.4314  1.7663 -0.7430
  113MOL    C5036114   2.947   5.702   6.522 -0.0711  0.5078 -0.0831
  113MOL    O5136115   2.960   5.629   6.401 -0.3676  0.4172 -0.2336
  113MOL    C5236116   2.872   5.515   6.388  0.0471 -0.3163  0.3022
  113MOL    C5336117   2.845   5.501   6.236 -0.3865  0.0307  0.7587
  113MOL    C5436118   2.973   5.463   6.162  0.0350 -0.3279 -0.1630
  113MOL    C5536119   2.976   5.616   6.649  0.1965 -0.1318 -0.2723
  113MOL    H5636120   2.846   5.743   6.529  0.0434  0.9755 -1.1753
  113MOL    H5736121   2.928   5.436   6.438 -0.2013 -0.4616  0.3529
  113MOL    H5836122   2.780   5.518   6.446  0.0201  0.9348  0.2017
  113MOL    H5936123   2.795   5.587   6.193  4.0225  2.1122 -0.5347
  113MOL    H6036124   2.771   5.421   6.230  0.6301 -0.8067 -1.0841
  113MOL    H6136125   3.052   5.523   6.206 -1.5125  0.6050  1.4103
  113MOL    H6236126   2.964   5.481   6.055 -1.3151 -0.3513 -0.0682
  113MOL    H6336127   3.003   5.360   6.182  2.4124  0.2377 -0.6308
  113MOL    H6436128   2.928   5.518   6.651 -1.2695  0.5731 -0.8332
  113MOL    H6536129   3.078   5.580   6.633 -0.4736 -2.4019  0.3820
  113MOL    C6636130   2.962   5.701   6.780 -0.0465 -0.0323 -0.3763
  113MOL    O6736131   2.815   5.723   6.808 -0.0221  0.4811  0.2407
  113MOL    C6836132   2.772   5.854   6.819 -0.4060 -0.2891  0.5049
  113MOL    C6936133   2.639   5.841   6.897 -0.8393  0.1916  0.8337
  113MOL    C7036134   2.648   5.749   7.024 -0.5509 -0.6590  0.2230
  113MOL    C7136135   3.024   5.636   6.899 -0.1657 -1.0079  0.5876
  113MOL    H7236136   3.001   5.803   6.781 -1.4705  0.5077  1.0327
  113MOL    H7336137   2.836   5.908   6.890 -1.5908 -3.4028  4.0968
  113MOL    H7436138   2.772   5.907   6.724 -3.1585  1.5925  1.4938
  113MOL    H7536139   2.564   5.795   6.833 -2.9853  0.9762  2.7074
  113MOL    H7636140   2.600   5.938   6.930 -1.6510  0.3934 -0.6701
  113MOL    H7736141   2.709   5.789   7.105 -1.7715 -0.4115  1.0223
  113MOL    H7836142   2.693   5.651   7.004  1.8835  0.3493  0.5570
  113MOL    H7936143   2.545   5.736   7.056 -1.2355  0.5746 -1.3809
  113MOL    H8036144   2.960   5.552   6.926 -0.3718 -1.1663 -0.3920
  113MOL    H8136145   3.106   5.578   6.857  1.0635  1.1831 -0.1071
  113MOL    C8236146   3.064   5.735   7.014 -0.1238  0.5669  0.7828
  113MOL    O8336147   3.076   5.662   7.136  0.6186 -0.2993 -0.4650
  113MOL    C8436148   2.957   5.628   7.202 -0.0599 -0.1282  0.4250
  113MOL    C8536149   2.970   5.560   7.340  1.0137  0.5414 -0.4430
  113MOL    C8636150   3.041   5.664   7.435  0.5001 -0.7115 -0.1379
  113MOL    C8736151   3.183   5.824   6.989 -0.1117 -0.5461  0.0016
  113MOL    H8836152   2.992   5.817   7.022 -0.8955 -0.1916  1.5486
  113MOL    H8936153   2.901   5.719   7.221 -0.5996 -0.5470  0.8761
  113MOL    H9036154   2.890   5.579   7.132  2.0550 -0.6699 -1.2711
  113MOL    H9136155   3.016   5.462   7.353 -0.6198  0.0106  1.5391
  113MOL    H9236156   2.866   5.553   7.372  0.3564  0.9013 -2.4324
  113MOL    H9336157   3.048   5.620   7.535 -1.5503  1.8502  1.1945
  113MOL    H9436158   2.979   5.753   7.432 -0.7568 -1.5864 -0.8202
  113MOL    H9536159   3.136   5.694   7.392 -0.5606  0.0895 -1.9782
  113MOL    H9636160   3.160   5.890   6.906 -0.1924 -1.6223 -0.8415
  113MOL    H9736161   3.209   5.877   7.081  0.0703  0.9293 -0.8874
  113MOL    C9836162   3.324   5.761   6.964 -0.3750 -0.1717 -0.2858
  113MOL    O9936163   3.319   5.697   6.836 -0.2855 -0.4980 -0.1297
  113MOL   C10036164   3.417   5.594   6.819  0.1584  0.4263  0.3907
  113MOL   C10136165   3.417   5.547   6.672  0.0981 -0.4044  0.3730
  113MOL   C10236166   3.430   5.659   6.565  0.4703  0.3248 -0.9255
  113MOL   C10336167   3.439   5.865   6.973  0.1313 -0.2045 -0.8799
  113MOL   H10436168   3.333   5.682   7.039  3.4850 -0.2010 -0.7008
  113MOL   H10536169   3.514   5.637   6.844 -0.8734  3.4828 -0.6329
  113MOL   H10636170   3.401   5.516   6.893 -1.9475 -1.8545 -2.3466
  113MOL   H10736171   3.314   5.512   6.660  0.1584  0.1910 -2.2223
  113MOL   H10836172   3.487   5.465   6.659  0.4315  0.3689 -3.3835
  113MOL   H10936173   3.349   5.730   6.582 -1.9807 -2.4153 -0.7387
  113MOL   H11036174   3.405   5.633   6.463 -0.8954  3.4763 -1.4305
  113MOL   H11136175   3.521   5.718   6.572  1.4912 -0.9836 -2.7687
  113MOL   H11236176   3.510   5.818   6.905  1.0295 -1.1590  0.6625
  113MOL   H11336177   3.402   5.959   6.932 -1.2242  1.3719  3.5511
  113MOL   C11436178   3.498   5.870   7.115 -0.4708 -0.1815 -0.4311
  113MOL   O11536179   3.581   5.760   7.129  0.2547  0.1625 -0.1091
  113MOL   C11636180   3.533   5.663   7.224 -0.4962 -0.6122 -0.1203
  113MOL   C11736181   3.647   5.571   7.233 -0.5496 -0.5046 -0.1685
  113MOL   C11836182   3.643   5.448   7.138 -0.7059  0.0177 -0.7511
  113MOL   C11936183   3.575   5.997   7.155 -0.3447  0.0741  0.1907
  113MOL   H12036184   3.410   5.863   7.178 -2.4256  1.3575 -2.9096
  113MOL   H12136185   3.511   5.703   7.323 -0.3095  0.1794 -0.3954
  113MOL   H12236186   3.449   5.603   7.189 -0.4212 -0.6383 -0.2538
  113MOL   H12336187   3.651   5.526   7.332 -0.7632 -1.9628 -0.8029
  113MOL   H12436188   3.743   5.622   7.227  1.0441 -3.5571 -2.3401
  113MOL   H12536189   3.543   5.405   7.153 -0.3126 -1.6774 -2.6405
  113MOL   H12636190   3.729   5.384   7.154 -0.7465  0.6999  2.3990
  113MOL   H12736191   3.638   5.482   7.034 -0.3593  0.1234 -0.7316
  113MOL   H12836192   3.620   5.966   7.250  0.3106 -0.2053 -0.2098
  113MOL   H12936193   3.652   6.010   7.079  0.1537 -0.7969  0.5363
  113MOL   C13036194   3.491   6.118   7.187  0.4678 -0.4827 -0.4368
  113MOL   O13136195   3.420   6.092   7.311 -0.6791 -0.4511 -0.0686
  113MOL   C13236196   3.285   6.138   7.307 -0.2610  0.3868 -0.2790
  113MOL   C13336197   3.220   6.112   7.445  0.0284  0.2393 -0.1792
  113MOL   C13436198   3.224   5.960   7.480 -0.6623  0.1889 -0.2972
  113MOL   C13536199   3.583   6.238   7.215 -0.5162 -0.3804  0.4705
  113MOL   H13636200   3.425   6.155   7.108 -1.5614 -1.8749  0.5610
  113MOL   H13736201   3.285   6.243   7.278 -2.7165  0.3750 -0.4546
  113MOL   H13836202   3.228   6.091   7.227 -1.4816 -0.6999  1.1937
  113MOL   H13936203   3.116   6.143   7.437 -0.1030  0.1011  0.8539
  113MOL   H14036204   3.261   6.157   7.536 -2.3503 -0.5170  1.3281
  113MOL   H14136205   3.157   5.900   7.418 -0.2706  0.3025 -0.8289
  113MOL   H14236206   3.192   5.953   7.584  2.1336 -1.8335  0.4817
  113MOL   H14336207   3.322   5.914   7.471  0.6857  2.7452  0.9147
  113MOL   H14436208   3.542   6.330   7.255 -0.1243 -0.6856  1.5879
  113MOL   H14536209   3.658   6.202   7.287 -0.1714 -0.9527 -0.1661
  113MOL   C14636210   3.666   6.287   7.091 -0.2679 -0.1609 -0.3815
  113MOL   O14736211   3.573   6.321   6.983 -0.3404  0.1850  0.4140
  113MOL   C14836212   3.627   6.261   6.865  0.0784 -0.6074  0.0915
  113MOL   C14936213   3.544   6.298   6.740 -0.0303 -1.0390  0.1089
  113MOL   C15036214   3.565   6.202   6.622 -0.1700 -0.4195 -0.1182
  113MOL   C15136215   3.742   6.414   7.123  0.4291 -0.3376  0.2508
  113MOL   H15236216   3.736   6.207   7.065 -1.7917 -1.4835 -0.5410
  113MOL   H15336217   3.729   6.295   6.847 -0.4119  0.9874  0.2332
  113MOL   H15436218   3.633   6.154   6.882 -1.6015 -0.7474 -0.1243
  113MOL   H15536219   3.554   6.401   6.704 -1.2698 -1.2359 -0.8505
  113MOL   H15636220   3.440   6.294   6.773  0.4808 -1.6935  1.6813
  113MOL   H15736221   3.482   6.211   6.552 -0.1447  0.7501 -0.0143
  113MOL   H15836222   3.587   6.097   6.643 -0.3670 -0.2721  0.8675
  113MOL   H15936223   3.656   6.230   6.569  1.4062 -1.0800  2.1687
  113MOL   H16036224   3.804   6.439   7.037 -1.2961 -2.6993 -1.7456
  113MOL   H16136225   3.679   6.502   7.128  1.1980  0.2987 -0.8263
  113MOL   C16236226   3.837   6.403   7.249 -0.7663 -0.4839  0.5704
  113MOL   O16336227   3.919   6.287   7.232 -0.0557 -0.0269  0.3171
  113MOL   C16436228   3.949   6.217   7.348 -0.0457  0.1738  0.1735
  113MOL   C16536229   4.061   6.121   7.321 -0.5251 -0.6018 -0.6069
  113MOL   C16636230   4.101   6.050   7.450 -0.6502  0.6535  0.1750
  113MOL   C16736231   3.920   6.535   7.264  0.7007  0.3523  0.8265
  113MOL   H16836232   3.775   6.384   7.337  1.7464 -2.7916  1.8935
  113MOL   H16936233   3.976   6.297   7.417  1.6081  0.4831 -0.8113
  113MOL   H17036234   3.858   6.169   7.387 -0.7896  1.5204  0.1218
  113MOL   H17136235   4.143   6.186   7.290  0.1946 -0.7185  1.0081
  113MOL   H17236236   4.030   6.064   7.233 -0.1133 -1.4618 -0.2001
  113MOL   H17336237   4.114   6.115   7.537  1.0721  0.6669 -0.0800
  113MOL   H17436238   4.192   5.996   7.424 -0.6793  0.7570 -0.1380
  113MOL   H17536239   4.026   5.980   7.488  1.2519  0.7616  4.4929
  113MOL   H17636240   3.987   6.535   7.350  0.1723 -0.8357  1.2437
  113MOL   H17736241   3.983   6.547   7.176  0.9322 -1.0934  0.7810
  113MOL   C17836242   3.832   6.661   7.280 -0.0438 -0.9040  0.4524
  113MOL   O17936243   3.856   6.713   7.410  0.3660 -0.4071  0.9470
  113MOL   C18036244   3.778   6.655   7.513 -0.0987 -0.5958 -0.1979
  113MOL   C18136245   3.870   6.672   7.632 -0.0590  0.1907 -0.1408
  113MOL   C18236246   3.980   6.570   7.658  0.1808  0.1559 -0.6113
  113MOL   C18336247   3.849   6.773   7.182  0.0657 -0.8782  0.0952
  113MOL   H18436248   3.725   6.640   7.283  0.1774 -2.1784 -0.0896
  113MOL   H18536249   3.690   6.716   7.534 -0.6818 -1.1672 -0.9337
  113MOL   H18636250   3.753   6.550   7.495  1.9587 -0.8759 -1.4863
  113MOL   H18736251   3.804   6.672   7.720 -0.2435 -0.1816 -0.2792
  113MOL   H18836252   3.907   6.774   7.625 -1.0692  0.8020  2.5525
  113MOL   H18936253   4.054   6.569   7.577 -0.0588 -0.8374 -0.8168
  113MOL   H19036254   3.941   6.471   7.680  2.0448 -0.8270 -1.5971
  113MOL   H19136255   4.035   6.603   7.746  1.6043 -0.6987 -1.1547
  113MOL   H19236256   3.945   6.824   7.173 -0.8899  0.5430 -2.6950
  113MOL   H19336257   3.831   6.744   7.078 -1.0597 -0.6624  0.2230
  113MOL   C19436258   3.752   6.897   7.198 -0.1179 -0.1524  0.2011
  113MOL   O19536259   3.743   6.958   7.067 -0.2594  0.1830 -0.1811
  113MOL   C19636260   3.851   7.035   7.033  0.3860  0.3292 -0.6833
  113MOL   C19736261   3.797   7.135   6.926 -0.3937  0.3478  0.7791
  113MOL   C19836262   3.906   7.225   6.880 -0.5546  0.2246  0.3139
  113MOL   C19936263   3.605   6.876   7.239  0.2080  0.7116  0.9838
  113MOL   H20036264   3.803   6.957   7.273  0.7385 -2.7062  1.7280
  113MOL   H20136265   3.875   7.089   7.124 -0.7581 -1.7783  0.8961
  113MOL   H20236266   3.936   6.980   6.994  0.4260 -1.3169  1.6564
  113MOL   H20336267   3.703   7.183   6.953 -0.7413 -1.7333  3.5176
  113MOL   H20436268   3.776   7.075   6.838  1.1198  1.7457 -0.5649
  113MOL   H20536269   3.929   7.300   6.956 -2.0031  0.0883  0.9136
  113MOL   H20636270   3.864   7.278   6.794  1.1917  0.1242 -0.6134
  113MOL   H20736271   4.000   7.183   6.846 -1.2334 -0.2496 -1.0244
  113MOL   H20836272   3.566   6.798   7.173 -0.6457  2.5700 -0.7736
  113MOL   H20936273   3.592   6.830   7.337  2.7081 -1.4716  0.3578
  113MOL   C21036274   3.517   7.001   7.235 -0.0670  0.2720  0.0490
  113MOL   O21136275   3.389   6.958   7.276 -0.0784 -0.4610  0.1393
  113MOL   C21236276   3.310   6.881   7.190  0.5507 -0.5595  0.6919
  113MOL   C21336277   3.175   6.954   7.205  0.2573 -0.8355 -0.3995
  113MOL   C21436278   3.064   6.900   7.105  0.2660  0.6831 -0.3720
  113MOL   C21536279   3.553   7.101   7.338 -0.1134  0.3640 -0.4662
  113MOL   H21636280   3.509   7.041   7.134  1.6570 -0.6983 -0.4798
  113MOL   H21736281   3.346   6.896   7.088  0.9862  1.1845  1.0832
  113MOL   H21836282   3.311   6.773   7.206  1.3181 -0.9615 -1.8035
  113MOL   H21936283   3.190   7.062   7.199  0.5512 -0.8305  0.3557
  113MOL   H22036284   3.133   6.941   7.304 -1.0585  0.1337 -0.8150
  113MOL   H22136285   3.066   6.794   7.129 -0.0219  1.6135  4.2511
  113MOL   H22236286   3.073   6.927   7.000 -0.4004 -0.9064 -0.8507
  113MOL   H22336287   2.966   6.933   7.140 -0.1011  0.8765 -1.5616
  113MOL   H22436288   3.566   7.054   7.435  1.2118  0.8816 -0.3844
  113MOL   H22536289   3.656   7.136   7.331  0.2485 -0.6641 -0.3114
  113MOL   C22636290   3.467   7.224   7.332  0.3186 -0.2775  0.2064
  113MOL   O22736291   3.455   7.267   7.470 -0.8567  0.7794  0.0889
  113MOL   C22836292   3.326   7.289   7.522 -0.5647 -0.5802 -0.5468
  113MOL   C22936293   3.346   7.336   7.670 -0.3869  0.0668  0.3396
  113MOL   C23036294   3.224   7.365   7.747  0.2940  0.8834 -0.4106
  113MOL   C23136295   3.535   7.345   7.267 -0.7542 -0.1208 -0.4788
  113MOL   H23236296   3.368   7.218   7.286  0.1832 -0.8052  0.5633
  113MOL   H23336297   3.276   7.369   7.467  0.8055  1.1411  0.6062
  113MOL   H23436298   3.267   7.198   7.512 -0.6522 -0.7420  1.3457
  113MOL   H23536299   3.407   7.426   7.666 -2.1557  1.2514 -1.7836
  113MOL   H23636300   3.395   7.252   7.720  1.8856  0.3885 -1.2977
  113MOL   H23736301   3.168   7.430   7.680  0.0500 -0.4189 -1.4949
  113MOL   H23836302   3.258   7.416   0.009 -1.7113  2.5980 -0.6028
  113MOL   H23936303   3.167   7.273   7.762  2.0071 -0.1094  0.1782
  113MOL   H24036304   3.502   7.432   7.324  2.7399 -0.6519  2.5608
  113MOL   H24136305   3.644   7.342   7.275 -0.6781  1.2881 -0.7870
  113MOL   C24236306   3.498   7.363   7.113  0.1856 -0.0664  0.0965
  113MOL   O24336307   3.355   7.357   7.097 -0.4879  0.0655 -0.5309
  113MOL   C24436308   3.294   7.473   7.146  0.5003  0.3746  0.7189
  113MOL   C24536309   3.145   7.491   7.112  0.1146  0.2382  0.2909
  113MOL   C24636310   3.056   7.397   7.196  0.2189 -0.8814  0.1718
  113MOL   C24736311   3.564   7.484   7.044 -0.3248  0.3456 -0.3923
  113MOL   H24836312   3.536   7.274   7.063 -0.9308  0.2842 -1.4057
  113MOL   H24936313   3.310   7.479   7.253  0.2348  1.1757  0.7142
  113MOL   H25036314   3.343   7.565   7.117 -0.0560  0.1061 -1.1390
  113MOL   H25136315   3.130   7.476   7.005 -0.4072  1.8407  0.1313
  113MOL   H25236316   3.121   7.591   7.148 -0.5250  0.5708 -1.0332
  113MOL   H25336317   2.955   7.408   7.159  0.9103  0.8675 -1.2537
  113MOL   H25436318   3.051   7.411   7.304  0.9459  0.7667  0.0017
  113MOL   H25536319   3.066   7.293   7.165  2.9697 -0.4011 -0.7546
  113MOL   H25636320   3.559   7.571   7.109  1.4654  0.5522 -0.4937
  113MOL   H25736321   3.670   7.458   7.042 -0.1636  0.8278  1.4334
  113MOL   C25836322   3.514   7.518   6.896  0.0597  0.5107 -0.5238
  113MOL   O25936323   3.586   7.632   6.831 -0.2073  0.5307 -0.5627
  113MOL   C26036324   3.550   7.757   6.879 -0.4769 -0.3509 -0.2976
  113MOL   C26136325   3.681   0.014   6.843  0.6671  0.5369  0.2853
  113MOL   C26236326   3.818   7.783   6.877  0.2604 -0.1711  0.4954
  113MOL   C26336327   3.526   7.397   6.798 -0.2010 -0.4918 -0.7533
  113MOL   H26436328   3.416   7.561   6.913 -0.5427 -1.5810  1.5151
  113MOL   H26536329   3.461   7.787   6.824 -2.1492 -1.0835  1.9673
  113MOL   H26636330   3.524   7.755   6.985 -1.0108 -0.8995 -0.4411
  113MOL   H26736331   3.674   0.116   6.882 -0.7340  0.3846  0.4475
  113MOL   H26836332   3.696   0.022   6.735  3.7119  1.9183  0.7772
  113MOL   H26936333   3.842   7.703   6.808 -0.4145  0.0497  0.0013
  113MOL   H27036334   3.821   7.743   6.979 -1.3615 -0.4181  0.4607
  113MOL   H27136335   3.903   0.024   6.874  0.6009 -0.6559 -1.9527
  113MOL   H27236336   3.629   7.364   6.782 -0.5484 -1.1860 -1.5948
  113MOL   H27336337   3.474   7.314   6.846  1.0562 -0.2591  1.0834
  113MOL   C27436338   3.478   7.425   6.653 -0.3374  0.0682  0.1467
  113MOL   O27536339   3.508   7.318   6.576 -0.1798 -0.1104 -0.2847
  113MOL   C27636340   3.637   7.290   6.526 -0.1573  0.2255  0.0843
  113MOL   C27736341   3.617   7.179   6.421  0.5783  0.7766  1.1440
  113MOL   C27836342   3.749   7.130   6.353  0.2137 -0.6959 -0.7069
  113MOL   C27936343   3.323   7.438   6.647  0.3079  0.2681  0.6613
  113MOL   H28036344   3.532   7.512   6.616  1.4312 -0.6400  0.9873
  113MOL   H28136345   3.681   7.375   6.474 -0.8902  1.0670  0.8232
  113MOL   H28236346   3.700   7.249   6.605  1.9001  1.1683 -1.0327
  113MOL   H28336347   3.555   7.214   6.338 -0.2102  0.8020  1.7366
  113MOL   H28436348   3.556   7.100   6.465  0.9829  0.6756  1.5167
  113MOL   H28536349   3.803   7.206   6.297 -0.7111  2.0131  1.9907
  113MOL   H28636350   3.729   7.037   6.298  1.6059 -1.6374  0.3343
  113MOL   H28736351   3.814   7.108   6.438 -0.5250 -0.3918 -0.0645
  113MOL   H28836352   3.281   7.340   6.671 -0.3263  1.0618  2.8916
  113MOL   H28936353   3.289   7.491   6.736  0.5386 -0.9814  1.4963
  113MOL   C29036354   3.266   7.484   6.510  0.6782  0.5680 -0.2307
  113MOL   O29136355   3.165   7.383   6.475  1.0234 -0.3820  0.4000
  113MOL   C29236356   3.195   7.332   6.345  0.1102 -0.3765 -0.7013
  113MOL   C29336357   3.059   7.263   6.306 -0.1052  0.1140  0.7833
  113MOL   C29436358   2.961   7.373   6.282 -0.0019 -0.1530 -0.7669
  113MOL   C29536359   3.188   7.617   6.523  0.1903 -0.0703  0.1979
  113MOL   H29636360   3.343   7.489   6.433  0.0641  0.6042 -0.8571
  113MOL   H29736361   3.242   7.392   6.268  1.0805  2.0882  1.7265
  113MOL   H29836362   3.261   7.248   6.368  0.8609  0.1961 -0.7217
  113MOL   H29936363   3.021   7.193   6.380  0.0830 -0.7198  0.1073
  113MOL   H30036364   3.080   7.206   6.215  1.1084 -1.1646  1.8569
  113MOL   H30136365   2.873   7.338   6.228  0.6673  0.3365 -2.2092
  113MOL   H30236366   3.016   7.445   6.221 -0.3520  3.1191  2.5938
  113MOL   H30336367   2.947   7.426   6.376 -0.3184 -0.0087 -0.8912
  113MOL   H30436368   3.114   7.633   6.444  0.7330 -1.6404 -0.6497
  113MOL   H30536369   3.114   7.606   6.603 -2.1653  1.5264 -1.7030
  113MOL   C30636370   3.281   7.742   6.541  0.9513  0.0791  0.2749
  113MOL   O30736371   3.348   7.771   6.414 -0.2110  0.4543  0.2596
  113MOL   C30836372   3.481   7.812   6.443  0.7647 -0.0066  0.4729
  113MOL   C30936373   3.556   0.015   6.308  0.3426 -0.4269 -0.4678
  113MOL   C31036374   3.579   7.730   6.214 -0.1957 -0.2958 -0.3148
  113MOL   C31136375   3.189   0.033   6.586  0.7705 -0.6280 -0.4189
  113MOL   H31236376   3.350   7.713   6.620 -0.3807 -0.6254  1.1803
  113MOL   H31336377   3.485   0.064   6.517 -3.1581 -0.6374  1.4769
  113MOL   H31436378   3.534   7.731   6.493 -1.4553 -0.7531  1.6911
  113MOL   H31536379   3.657   0.028   6.345 -0.1910  1.6570  0.3413
  113MOL   H31636380   3.517   0.103   6.255  3.3234  0.9622 -0.4596
  113MOL   H31736381   3.514   7.745   6.127  2.6340  2.0414 -2.1266
  113MOL   H31836382   3.555   7.636   6.263  0.8798  0.0163  0.8136
  113MOL   H31936383   3.678   7.731   6.169 -0.1176 -0.1491 -0.1382
  113MOL   H32036384   3.244   0.127   6.598 -0.7114  0.1273  0.6473
  113MOL   H32136385   3.108   0.051   6.516 -0.5313 -0.2240  1.1736
  113MOL   H32236386   3.156   0.019   6.689 -1.8061 -0.2046 -1.1536
  114MOL     C136387   4.590   5.595   5.414  0.2044  0.0768 -0.1835
  114MOL     O236388   4.599   5.729   5.459 -0.3631 -0.5193 -0.0334
  114MOL     C336389   4.694   5.754   5.563  0.1241 -0.1817  0.9017
  114MOL     C436390   4.829   5.774   5.496 -0.0413 -0.5185  0.0817
  114MOL     C536391   4.832   5.911   5.434  0.3945 -0.1698 -0.0890
  114MOL     C636392   4.495   5.592   5.288 -0.5521  0.9374  0.3358
  114MOL     H736393   4.544   5.533   5.491  0.5448  0.0392 -0.0102
  114MOL     H836394   4.672   5.847   5.614 -1.0852  0.5386 -0.9024
  114MOL     H936395   4.710   5.672   5.633  1.1712 -1.5373 -0.8793
  114MOL    H1036396   4.850   5.693   5.426  3.3909  0.7812 -0.5129
  114MOL    H1136397   4.912   5.765   5.566 -0.7587 -0.0792  0.9949
  114MOL    H1236398   4.934   5.920   5.399 -0.2243  0.1538 -1.8425
  114MOL    H1336399   4.826   5.990   5.508  2.1427  0.7343 -0.8856
  114MOL    H1436400   4.757   5.927   5.356 -1.3817 -0.5822  1.4839
  114MOL    H1536401   4.402   5.639   5.322 -1.2291 -0.3546  0.3226
  114MOL    H1636402   4.538   5.654   5.211 -1.2162 -0.6145 -1.3279
  114MOL    H1736403   4.687   5.554   5.387  0.9904 -0.5561  3.4158
  114MOL    C1836404   4.464   5.454   5.227  0.1204  0.0981  0.1031
  114MOL    O1936405   4.587   5.383   5.216 -0.4545 -0.2931  0.0662
  114MOL    C2036406   4.655   5.398   5.092  0.0443 -0.1229 -0.5908
  114MOL    C2136407   4.805   5.384   5.117 -0.7055  0.3989 -0.4600
  114MOL    C2236408   4.885   5.437   4.997 -0.0197  1.4355  0.6864
  114MOL    C2336409   4.362   5.369   5.305 -0.2844  0.4513  0.4780
  114MOL    H2436410   4.427   5.466   5.125  4.7081 -1.4119 -1.8560
  114MOL    H2536411   4.623   5.332   5.011 -0.7412 -0.9279  0.3698
  114MOL    H2636412   4.650   5.504   5.070  1.8672  0.2329  0.6415
  114MOL    H2736413   4.844   5.285   5.140 -0.7296  0.0592 -1.8843
  114MOL    H2836414   4.824   5.434   5.212 -2.1168 -1.4314  0.8213
  114MOL    H2936415   4.986   5.466   5.026  0.7310  0.6354 -1.0685
  114MOL    H3036416   4.832   5.522   4.956  0.4141  1.6635  0.5924
  114MOL    H3136417   4.898   5.369   4.913  2.3931  1.8922  0.6456
  114MOL    H3236418   4.409   5.332   5.396 -0.5237  1.5184  1.0320
  114MOL    H3336419   4.274   5.427   5.332  0.3559  1.5393  0.2475
  114MOL    C3436420   4.298   5.250   5.223 -0.2661 -0.7147 -0.4522
  114MOL    O3536421   4.229   5.171   5.319  0.1172  0.2213  0.0478
  114MOL    C3636422   4.287   5.039   5.342  0.5058 -0.0333 -0.2407
  114MOL    C3736423   4.213   4.953   5.448 -0.1427  0.0849 -0.3697
  114MOL    C3836424   4.199   5.020   5.587  0.7148  0.6599 -0.1344
  114MOL    C3936425   4.184   5.297   5.125  0.2155 -0.2698  0.5150
  114MOL    H4036426   4.370   5.184   5.176  0.9258  1.1978 -1.4060
  114MOL    H4136427   4.285   4.974   5.255  2.1360  0.3871 -0.5987
  114MOL    H4236428   4.390   5.054   5.375 -0.1926  0.6726  1.7149
  114MOL    H4336429   4.255   4.854   5.464  0.9179  0.3735 -1.3287
  114MOL    H4436430   4.111   4.934   5.414 -0.5108  0.6771  0.3864
  114MOL    H4536431   4.174   5.126   5.577 -0.2699  0.6941  2.3568
  114MOL    H4636432   4.291   5.010   5.645  2.0810  1.5663 -2.0554
  114MOL    H4736433   4.116   4.971   5.637  1.4201 -0.9885 -0.5464
  114MOL    H4836434   4.094   5.235   5.138  1.3106 -1.7676  1.1059
  114MOL    H4936435   4.153   5.400   5.144  1.9876  0.0793  1.5965
  114MOL    C5036436   4.228   5.287   4.969 -0.1747 -0.5622 -0.4324
  114MOL    O5136437   4.259   5.151   4.943 -0.0918  0.0960 -0.1201
  114MOL    C5236438   4.349   5.124   4.839  0.0105  0.2286  0.3616
  114MOL    C5336439   4.378   4.976   4.820 -0.1644 -0.4923  0.1903
  114MOL    C5436440   4.241   4.889   4.829  0.0841  0.2054 -0.2090
  114MOL    C5536441   4.113   5.320   4.870 -0.2577  0.7172 -0.1437
  114MOL    H5636442   4.318   5.347   4.956  0.0831 -1.2558 -1.9478
  114MOL    H5736443   4.309   5.155   4.742 -2.4571 -2.7436  0.3788
  114MOL    H5836444   4.439   5.185   4.848  0.8070 -0.7528 -0.7464
  114MOL    H5936445   4.463   4.942   4.879  2.4555  2.7072 -1.5221
  114MOL    H6036446   4.421   4.963   4.721  1.9303  1.3139  0.8028
  114MOL    H6136447   4.159   4.926   4.767 -0.1149 -0.6417 -0.4584
  114MOL    H6236448   4.210   4.882   4.933  0.1217  0.0302 -0.2091
  114MOL    H6336449   4.254   4.783   4.806 -2.5872 -0.0573 -0.6676
  114MOL    H6436450   4.149   5.311   4.768  0.0903 -1.4938  0.1467
  114MOL    H6536451   4.032   5.247   4.884 -0.5124  1.1030  0.4117
  114MOL    C6636452   4.047   5.457   4.891 -0.3526 -0.0049  0.5629
  114MOL    O6736453   4.134   5.567   4.882 -0.0635 -0.1778  0.1041
  114MOL    C6836454   4.082   5.689   4.934  0.3462  0.5777 -0.4924
  114MOL    C6936455   4.193   5.793   4.966 -0.3098 -0.2779  0.9722
  114MOL    C7036456   4.281   5.733   5.079 -0.0988 -0.0545 -0.2076
  114MOL    C7136457   3.924   5.478   4.799  0.4403 -0.2122 -0.4011
  114MOL    H7236458   4.001   5.451   4.990  1.0359  1.5227  1.3200
  114MOL    H7336459   4.004   5.723   4.866  0.7658  0.7074 -0.9039
  114MOL    H7436460   4.025   5.664   5.024 -2.4448  0.1954 -2.2880
  114MOL    H7536461   4.155   5.890   4.995 -3.3027 -1.2461  0.4105
  114MOL    H7636462   4.253   5.801   4.875 -0.5658  0.2650  0.8512
  114MOL    H7736463   4.374   5.789   5.089  0.9225 -1.0879 -3.3791
  114MOL    H7836464   4.318   5.632   5.062  2.0644  0.1823  2.7031
  114MOL    H7936465   4.229   5.715   5.174 -0.2428 -1.2172 -0.5022
  114MOL    H8036466   3.940   5.576   4.754  0.0570  0.1604  0.2603
  114MOL    H8136467   3.925   5.411   4.712 -0.4294 -0.2067 -0.4198
  114MOL    C8236468   3.795   5.464   4.875 -0.4055  0.4518  0.0424
  114MOL    O8336469   3.764   5.585   4.937 -0.3604 -1.0760  0.1988
  114MOL    C8436470   3.712   5.569   5.069 -0.1179  0.3836 -0.0594
  114MOL    C8536471   3.652   5.694   5.126  0.2151  0.3501  0.7747
  114MOL    C8636472   3.603   5.669   5.268  0.0924  0.0169  0.4295
  114MOL    C8736473   3.671   5.417   4.797  0.3437  0.3929 -0.0058
  114MOL    H8836474   3.815   5.386   4.949  1.4029 -0.3068 -1.2240
  114MOL    H8936475   3.627   5.500   5.064 -0.6802  0.7823  2.9897
  114MOL    H9036476   3.773   5.501   5.129 -1.8701 -0.3429  0.9524
  114MOL    H9136477   3.570   5.724   5.061  0.3351 -2.3475 -0.7080
  114MOL    H9236478   3.728   5.772   5.121 -0.7693  1.2155 -1.1852
  114MOL    H9336479   3.547   5.576   5.269  0.2211 -0.1156 -1.8603
  114MOL    H9436480   3.543   5.750   5.309 -1.2946 -1.7503  1.9924
  114MOL    H9536481   3.688   5.652   5.335 -0.7196 -1.6567  1.0481
  114MOL    H9636482   3.702   5.325   4.748  1.5965  0.0149  1.4671
  114MOL    H9736483   3.592   5.398   4.869  0.8108 -1.4373  0.0571
  114MOL    C9836484   3.618   5.513   4.693 -0.3414 -0.2270 -0.0193
  114MOL    O9936485   3.529   5.450   4.596 -0.5218 -0.1269 -0.4430
  114MOL   C10036486   3.592   5.382   4.488 -0.7575 -0.8476  0.0365
  114MOL   C10136487   3.489   5.315   4.397  0.3986  0.0549  0.0036
  114MOL   C10236488   3.452   5.416   4.281 -0.2711  0.4252  0.0662
  114MOL   C10336489   3.522   5.617   4.751 -0.8086 -0.1680 -0.2650
  114MOL   H10436490   3.706   5.554   4.643 -0.7887  1.1188  0.2818
  114MOL   H10536491   3.647   5.457   4.431 -1.5351  0.2926  0.7728
  114MOL   H10636492   3.665   5.310   4.525 -1.3692 -0.5884  1.7969
  114MOL   H10736493   3.404   5.288   4.460  0.5301 -3.0125 -1.0441
  114MOL   H10836494   3.524   5.217   4.364  1.7643  1.0887 -1.7274
  114MOL   H10936495   3.371   5.376   4.220 -0.5653  1.4299 -0.2031
  114MOL   H11036496   3.540   5.433   4.218  0.0369 -1.1098  0.0535
  114MOL   H11136497   3.404   5.505   4.320 -1.1157  1.3077 -2.8641
  114MOL   H11236498   3.440   5.564   4.799 -4.0606  2.3084 -2.8240
  114MOL   H11336499   3.570   5.674   4.831  0.9631  0.2024 -1.5469
  114MOL   C11436500   3.454   5.710   4.646  0.1850  0.2285  0.0307
  114MOL   O11536501   3.317   5.726   4.687 -1.1236 -0.6599  0.4436
  114MOL   C11636502   3.238   5.618   4.639  0.1735 -0.4766  0.4441
  114MOL   C11736503   3.104   5.622   4.712  0.3549  0.2685  0.0682
  114MOL   C11836504   3.108   5.582   4.851  0.2533  0.0545 -0.1901
  114MOL   C11936505   3.537   5.837   4.629  0.5374  0.5421 -0.4540
  114MOL   H12036506   3.440   5.662   4.549  0.1452 -1.1326  0.6979
  114MOL   H12136507   3.232   5.635   4.532 -0.6646 -0.4229  0.4960
  114MOL   H12236508   3.273   5.516   4.655 -1.1053 -0.9939  0.0099
  114MOL   H12336509   3.041   5.542   4.672  0.7731  0.3100 -0.6976
  114MOL   H12436510   3.054   5.719   4.708 -0.4069 -0.0071  2.3579
  114MOL   H12536511   3.176   5.496   4.860  0.5844  0.5068  2.2311
  114MOL   H12636512   3.005   5.558   4.878 -0.3000  0.5254 -1.8446
  114MOL   H12736513   3.148   5.659   4.917 -0.2990 -0.3658  0.6509
  114MOL   H12836514   3.495   5.897   4.709 -1.7010 -2.0031  0.3641
  114MOL   H12936515   3.640   5.817   4.660 -0.3946 -2.1272  1.0687
  114MOL   C13036516   3.540   5.903   4.491 -0.1121 -0.4880  0.3399
  114MOL   O13136517   3.579   5.822   4.383  0.1731  0.3713  0.2366
  114MOL   C13236518   3.719   5.789   4.383 -0.3349  0.2098  0.5069
  114MOL   C13336519   3.747   5.699   4.255 -0.6632  0.0938 -0.9399
  114MOL   C13436520   3.724   5.781   4.125 -0.4364 -0.1244  0.4334
  114MOL   C13536521   3.394   5.953   4.452 -0.9470 -0.0805 -0.4778
  114MOL   H13636522   3.608   5.988   4.492 -1.7904  0.8949  0.4604
  114MOL   H13736523   3.772   5.884   4.382 -1.5966  0.9114 -0.2741
  114MOL   H13836524   3.766   5.744   4.471  0.2914  0.5302  0.3385
  114MOL   H13936525   3.665   5.627   4.262  0.1635 -0.9456 -1.7355
  114MOL   H14036526   3.852   5.670   4.257 -0.5170  0.7006  0.2710
  114MOL   H14136527   3.781   5.874   4.127 -0.1627 -0.2665 -0.7200
  114MOL   H14236528   3.617   5.802   4.117 -0.3077  0.5081  0.3779
  114MOL   H14336529   3.766   5.723   4.043  1.4852  0.6560  0.8435
  114MOL   H14436530   3.327   5.867   4.446 -0.4518 -0.5717  0.9466
  114MOL   H14536531   3.364   6.013   4.537  2.3567 -0.7013  1.2159
  114MOL   C14636532   3.398   6.044   4.326  0.1878  0.2241 -0.2413
  114MOL   O14736533   3.266   6.043   4.284 -0.0857  0.3265 -0.0475
  114MOL   C14836534   3.236   5.925   4.206 -0.1180  0.1021 -0.1117
  114MOL   C14936535   3.094   5.883   4.234 -0.7703 -0.1470  0.6992
  114MOL   C15036536   3.076   5.782   4.344  0.6966 -0.3464 -0.2834
  114MOL   C15136537   3.443   6.184   4.363 -0.1074  0.1425  0.1793
  114MOL   H15236538   3.472   6.011   4.252  0.9316 -0.7828  0.9377
  114MOL   H15336539   3.223   5.963   4.105 -0.8568 -0.1306 -0.1092
  114MOL   H15436540   3.311   5.847   4.218  1.0589  1.1986 -0.2607
  114MOL   H15536541   3.061   5.841   4.139 -0.3683  2.3063 -0.5811
  114MOL   H15636542   3.025   5.967   4.247  0.2471  0.6245  1.1268
  114MOL   H15736543   2.971   5.752   4.348  0.7237 -0.2890  0.8212
  114MOL   H15836544   3.104   5.824   4.440  0.6293  1.2778 -0.9683
  114MOL   H15936545   3.128   5.688   4.322  1.1740 -0.5979  1.8356
  114MOL   H16036546   3.393   6.221   4.453 -0.9564 -0.8805  0.1428
  114MOL   H16136547   3.543   6.170   4.405  0.3942  1.7129 -0.4827
  114MOL   C16236548   3.439   6.299   4.255  0.2143  0.7042  0.3459
  114MOL   O16336549   3.307   6.350   4.225  0.0819  0.0081 -0.3876
  114MOL   C16436550   3.289   6.401   4.091 -0.2151 -0.7407  0.2754
  114MOL   C16536551   3.145   6.443   4.079  0.1813 -0.3629 -0.2671
  114MOL   C16636552   3.050   6.328   4.119  0.3109 -0.0606 -0.0816
  114MOL   C16736553   3.525   6.416   4.294 -0.0819  0.0411 -0.2213
  114MOL   H16836554   3.472   6.249   4.163 -1.8413 -0.0181 -0.0193
  114MOL   H16936555   3.362   6.479   4.069 -2.7739  2.3805  2.5798
  114MOL   H17036556   3.300   6.323   4.015  0.3741 -0.0703 -0.3410
  114MOL   H17136557   3.113   6.507   3.996 -0.0636  1.4647  1.1885
  114MOL   H17236558   3.129   6.512   4.162 -0.1953  0.9774 -1.4319
  114MOL   H17336559   3.080   6.269   4.205  0.0355  0.9181  0.7063
  114MOL   H17436560   3.038   6.268   4.029  3.4906  0.0893 -0.6491
  114MOL   H17536561   2.955   6.377   4.143  0.4306  0.8154 -1.3427
  114MOL   H17636562   3.500   6.511   4.246  1.1133  0.6985  0.4403
  114MOL   H17736563   3.495   6.423   4.398 -0.7015  0.1662 -0.4052
  114MOL   C17836564   3.680   6.391   4.288 -0.1079  0.1286 -0.2503
  114MOL   O17936565   3.710   6.375   4.151 -0.1481  0.6616 -0.0142
  114MOL   C18036566   3.766   6.252   4.105 -0.3542 -0.0411  0.0581
  114MOL   C18136567   3.805   6.261   3.956 -0.2559  0.0434 -0.3443
  114MOL   C18236568   3.873   6.141   3.898  0.1435 -0.2332  0.5472
  114MOL   C18336569   3.770   6.491   4.369  0.4652 -0.3333  0.5505
  114MOL   H18436570   3.700   6.293   4.330 -2.2908 -0.7803 -1.2429
  114MOL   H18536571   3.851   6.231   4.171  1.0635  2.4985 -0.8956
  114MOL   H18636572   3.710   6.161   4.128 -2.0750  0.8485 -0.5829
  114MOL   H18736573   3.864   6.352   3.944 -1.8325  1.2229  0.6229
  114MOL   H18836574   3.714   6.273   3.896  1.1504  0.4795 -2.4506
  114MOL   H18936575   3.976   6.127   3.930  0.1558 -2.6386 -0.4982
  114MOL   H19036576   3.876   6.151   3.790  1.1234 -1.0751  0.4872
  114MOL   H19136577   3.814   6.051   3.915 -0.2831  0.2229  1.5865
  114MOL   H19236578   3.872   6.460   4.346  0.8584  0.9066  0.6028
  114MOL   H19336579   3.755   6.589   4.324  1.6582 -1.1206 -1.6127
  114MOL   C19436580   3.760   6.506   4.523  0.4444 -0.4998  0.1826
  114MOL   O19536581   3.740   6.375   4.581 -0.8278  0.7998 -0.0534
  114MOL   C19636582   3.676   6.373   4.706 -0.0938 -0.3892 -0.3269
  114MOL   C19736583   3.580   6.251   4.733 -0.0126  0.0774 -0.3286
  114MOL   C19836584   3.541   6.240   4.876  0.0502 -0.2017  0.1748
  114MOL   C19936585   3.885   6.577   4.578  0.0755  0.2753 -0.0252
  114MOL   H20036586   3.672   6.564   4.549  1.2306  1.4009 -1.2607
  114MOL   H20136587   3.763   6.387   4.771  0.0598  1.2772 -0.8794
  114MOL   H20236588   3.629   6.467   4.733 -0.4374 -0.5175 -0.4884
  114MOL   H20336589   3.629   6.159   4.700  1.6133  0.4221  1.0457
  114MOL   H20436590   3.485   6.252   4.680 -0.4120 -0.4723  0.3678
  114MOL   H20536591   3.472   6.322   4.896 -1.1443 -1.0944 -0.2013
  114MOL   H20636592   3.627   6.243   4.943 -0.0133 -1.7994  0.3587
  114MOL   H20736593   3.485   6.150   4.906 -0.7747  0.5013  0.7758
  114MOL   H20836594   3.896   6.556   4.685  3.6004  0.1583 -0.3549
  114MOL   H20936595   3.970   6.526   4.534  0.6840 -2.1511  3.7388
  114MOL   C21036596   3.891   6.729   4.560  0.0280 -0.6263 -0.7163
  114MOL   O21136597   3.922   6.769   4.424  0.2056  0.4844  0.1213
  114MOL   C21236598   4.064   6.758   4.389  0.5595  0.1474  0.5114
  114MOL   C21336599   4.087   6.855   4.276 -0.2590  0.0339 -0.0171
  114MOL   C21436600   4.073   7.003   4.316 -0.1956  0.0362 -0.0003
  114MOL   C21536601   3.765   6.808   4.611 -0.3881  0.2184  0.4645
  114MOL   H21636602   3.978   6.758   4.620 -0.3701 -0.3014 -0.2917
  114MOL   H21736603   4.133   6.770   4.473  0.3613  0.6895  0.5933
  114MOL   H21836604   4.092   6.661   4.346 -0.7272 -0.3410  0.7769
  114MOL   H21936605   4.017   6.843   4.193  0.2509  1.0681 -0.6037
  114MOL   H22036606   4.185   6.849   4.230 -0.4191  0.4925 -0.4179
  114MOL   H22136607   4.099   7.069   4.233 -0.8139  1.9069  1.2736
  114MOL   H22236608   4.148   7.013   4.395 -0.3219 -0.9669  0.2507
  114MOL   H22336609   3.975   7.033   4.353 -0.0257 -1.3853  1.6611
  114MOL   H22436610   3.773   6.916   4.608  2.4221  0.0589  0.4507
  114MOL   H22536611   3.679   6.785   4.549 -1.7965  1.4292  1.9379
  114MOL   C22636612   3.710   6.772   4.746  0.0658 -0.1214 -0.5882
  114MOL   O22736613   3.811   6.801   4.838 -0.6839 -0.3453 -0.0574
  114MOL   C22836614   3.830   6.717   4.953 -0.2729  0.3437 -0.4302
  114MOL   C22936615   3.963   6.764   5.015  0.2291  0.1983  0.4901
  114MOL   C23036616   3.968   6.909   5.048 -0.3051 -0.0366  0.1491
  114MOL   C23136617   3.595   6.854   4.799  0.1164 -0.0091  0.4203
  114MOL   H23236618   3.692   6.665   4.744 -1.7199  0.1055  1.4652
  114MOL   H23336619   3.752   6.729   5.027  2.2772 -0.5097  2.4949
  114MOL   H23436620   3.836   6.611   4.928  2.6028 -0.6105  3.7419
  114MOL   H23536621   4.045   6.737   4.949  0.0505 -0.4022  0.5170
  114MOL   H23636622   3.975   6.696   5.099  1.4139 -2.1433 -1.4882
  114MOL   H23736623   3.912   6.922   5.141 -0.2438  0.6788  0.0860
  114MOL   H23836624   3.937   6.973   4.965 -3.0557 -1.1545  0.2398
  114MOL   H23936625   4.064   6.947   5.081 -0.3546 -0.8355  1.2394
  114MOL   H24036626   3.584   6.852   4.908 -0.0753 -2.4930  0.3861
  114MOL   H24136627   3.616   6.958   4.776  1.5275  0.2876  2.8255
  114MOL   C24236628   3.460   6.820   4.729  0.1954 -0.2637  0.4926
  114MOL   O24336629   3.436   6.676   4.723  0.4040  0.4318  0.9712
  114MOL   C24436630   3.334   6.651   4.625  0.1015 -0.7428 -0.5086
  114MOL   C24536631   3.304   6.503   4.636  0.4033 -0.2368  0.4256
  114MOL   C24636632   3.179   6.471   4.555 -0.4496  0.5811  0.2286
  114MOL   C24736633   3.338   6.903   4.785 -0.0132  0.3742 -0.2697
  114MOL   H24836634   3.467   6.862   4.628  0.8228  1.3008  1.1693
  114MOL   H24936635   3.240   6.701   4.649 -0.0087 -0.9086 -0.5877
  114MOL   H25036636   3.365   6.689   4.528 -0.0133  0.5436 -0.0583
  114MOL   H25136637   3.295   6.476   4.742  2.9932 -0.8459  0.5383
  114MOL   H25236638   3.392   6.448   4.604  1.4965  0.3645  2.2862
  114MOL   H25336639   3.087   6.509   4.598 -0.9160  0.4899 -0.6702
  114MOL   H25436640   3.162   6.363   4.548  0.0711  0.5903 -1.5929
  114MOL   H25536641   3.182   6.502   4.450  1.2032 -0.7546 -0.1435
  114MOL   H25636642   3.350   7.010   4.772  1.5273  0.3958  1.2239
  114MOL   H25736643   3.260   6.889   4.709  0.9055 -0.4483 -1.0706
  114MOL   C25836644   3.281   6.863   4.923 -0.8020 -0.0319 -0.9773
  114MOL   O25936645   3.361   6.920   5.027  0.4434  0.2208 -0.0299
  114MOL   C26036646   3.403   6.827   5.129 -0.1954  0.3842 -0.2006
  114MOL   C26136647   3.465   6.905   5.250 -0.1250 -0.3091  0.0328
  114MOL   C26236648   3.573   6.996   5.206 -0.4802 -0.3018 -0.3712
  114MOL   C26336649   3.133   6.900   4.951  0.4685 -0.0213 -0.0074
  114MOL   H26436650   3.291   6.754   4.923  0.8314  0.1054 -0.0297
  114MOL   H26536651   3.324   6.767   5.174 -0.0676  1.3921  1.4280
  114MOL   H26636652   3.474   6.756   5.089  0.3756  1.0864 -0.4417
  114MOL   H26736653   3.503   6.835   5.325  1.8523 -0.6401 -1.2473
  114MOL   H26836654   3.383   6.956   5.300 -0.6791 -1.8238  0.7018
  114MOL   H26936655   3.643   6.927   5.159 -0.4794 -2.5549  2.7806
  114MOL   H27036656   3.624   7.039   5.292 -0.7683 -0.9178  0.1128
  114MOL   H27136657   3.546   7.062   5.124 -1.9578  0.3396  0.6124
  114MOL   H27236658   3.125   6.919   5.058  1.5308 -1.9939  0.4570
  114MOL   H27336659   3.133   7.001   4.909 -0.4677 -0.6679 -1.5797
  114MOL   C27436660   3.030   6.813   4.876 -0.0472 -0.1612 -0.1412
  114MOL   O27536661   2.983   6.715   4.970 -0.4684  0.1623 -0.4744
  114MOL   C27636662   3.039   6.586   4.945  0.1426  0.0650  0.1762
  114MOL   C27736663   2.970   6.475   5.028 -0.4991  0.0234  0.4681
  114MOL   C27836664   2.813   6.483   5.033  0.2049  0.0559  0.2209
  114MOL   C27936665   2.917   6.896   4.813 -0.5802 -0.3503 -0.4883
  114MOL   H28036666   3.074   6.769   4.786 -0.0273  3.4523 -1.9990
  114MOL   H28136667   3.024   6.558   4.841  0.5237 -3.0590  0.9235
  114MOL   H28236668   3.148   6.585   4.957  0.2318 -0.1478 -0.6399
  114MOL   H28336669   3.009   6.486   5.129  3.7163  1.3045 -1.2160
  114MOL   H28436670   2.997   6.375   4.994 -2.5796 -0.6550  0.7180
  114MOL   H28536671   2.772   6.399   5.089 -0.4508 -0.2607 -0.7214
  114MOL   H28636672   2.772   6.498   4.933 -0.6372  1.6424  0.7917
  114MOL   H28736673   2.772   6.564   5.093 -0.1347 -1.6376  2.3114
  114MOL   H28836674   2.853   6.931   4.895 -2.7218 -0.2139 -2.1642
  114MOL   H28936675   2.953   6.989   4.768 -1.7178 -0.3630 -1.4484
  114MOL   C29036676   2.836   6.811   4.706 -0.1222 -0.0913 -0.2353
  114MOL   O29136677   2.713   6.887   4.691 -0.1034 -0.2976 -0.0786
  114MOL   C29236678   2.596   6.804   4.700  0.0246  0.4039  0.0223
  114MOL   C29336679   2.473   6.851   4.622  0.0471 -0.6612 -0.4345
  114MOL   C29436680   2.481   6.827   4.464 -0.2502 -0.2615  0.0129
  114MOL   C29536681   2.903   6.801   4.567 -0.5339  0.3558  0.1898
  114MOL   H29636682   2.812   6.711   4.744 -0.5444 -0.1336 -0.6096
  114MOL   H29736683   2.622   6.709   4.653  1.7262  0.9166 -0.1084
  114MOL   H29836684   2.580   6.800   4.808 -0.1140  0.0516 -0.0096
  114MOL   H29936685   2.454   6.957   4.641 -2.2693 -0.8122 -1.7760
  114MOL   H30036686   2.385   6.799   4.660  0.3039 -1.2076 -0.5785
  114MOL   H30136687   2.490   6.724   4.429  1.9668  0.1558 -0.7498
  114MOL   H30236688   2.576   6.869   4.430  1.3659 -0.9957  3.4318
  114MOL   H30336689   2.394   6.860   4.406  1.1276  2.3159 -0.6951
  114MOL   H30436690   2.990   6.736   4.577  0.1660  1.6021  2.6556
  114MOL   H30536691   2.835   6.745   4.503  0.0290  0.8664 -0.8866
  114MOL   C30636692   2.937   6.936   4.497  0.0918  0.4565 -0.1206
  114MOL   O30736693   3.033   6.895   4.404 -0.3810 -0.8329  0.1293
  114MOL   C30836694   3.131   6.991   4.364 -0.0048 -0.3922 -0.7833
  114MOL   C30936695   3.205   6.929   4.245  0.1763 -0.1659 -0.0375
  114MOL   C31036696   3.300   6.830   4.295 -0.3479 -0.2886 -0.7107
  114MOL   C31136697   2.813   7.011   4.432 -0.1365 -1.0393 -0.2020
  114MOL   H31236698   2.996   7.000   4.563  1.1521 -1.8397  1.2381
  114MOL   H31336699   3.069   7.075   4.333 -1.3116 -1.3134 -0.6867
  114MOL   H31436700   3.200   7.013   4.445  1.2716 -1.3331 -1.5880
  114MOL   H31536701   3.252   7.003   4.180 -1.7152  1.0044 -0.1062
  114MOL   H31636702   3.125   6.885   4.186  0.2344  0.7314 -0.7981
  114MOL   H31736703   3.342   6.862   4.391 -0.4352 -0.3452 -0.6554
  114MOL   H31836704   3.361   6.817   4.206  1.0217  0.5731  0.0742
  114MOL   H31936705   3.244   6.742   4.326  1.6797 -0.4635  2.8230
  114MOL   H32036706   2.756   7.065   4.508  0.6649 -1.5027  0.7417
  114MOL   H32136707   2.853   7.086   4.363 -1.2726  0.9446  1.2580
  114MOL   H32236708   2.751   6.942   4.377  0.0713 -1.6098  0.2738
  115MOL     C136709   2.576   3.999   4.870  0.5135  0.1414 -0.3207
  115MOL     O236710   2.579   4.042   5.009  0.4060 -0.4450  0.9118
  115MOL     C336711   2.682   4.125   5.047 -0.1427  0.5304 -0.1260
  115MOL     C436712   2.655   4.193   5.187  0.5428 -0.1007 -0.4334
  115MOL     C536713   2.764   4.280   5.239 -0.4845 -0.8051  0.0088
  115MOL     C636714   2.424   3.970   4.836  1.0573  1.1842  0.4848
  115MOL     H736715   2.632   3.905   4.862  0.9412  0.3555  0.1399
  115MOL     H836716   2.765   4.058   5.067  0.0243  1.0478  1.0106
  115MOL     H936717   2.706   4.203   4.975  0.3183  0.2954 -0.2277
  115MOL    H1036718   2.628   4.108   5.249 -2.5401  1.9789  1.1612
  115MOL    H1136719   2.559   4.244   5.192  0.9070  1.2002 -4.5059
  115MOL    H1236720   2.859   4.227   5.231 -1.0390 -1.6964 -0.8099
  115MOL    H1336721   2.756   4.310   5.343 -0.2445  1.6853 -0.6705
  115MOL    H1436722   2.751   4.365   5.172 -0.2436  0.9688  2.1785
  115MOL    H1536723   2.397   3.886   4.899  0.7957 -1.9683 -3.6003
  115MOL    H1636724   2.350   4.049   4.856 -0.4341  0.0134 -0.2908
  115MOL    H1736725   2.625   4.071   4.805 -1.1266 -0.3751 -2.1588
  115MOL    C1836726   2.406   3.909   4.695  0.3640 -0.2201 -0.0949
  115MOL    O1936727   2.517   3.819   4.686 -0.2689 -0.4451 -0.4470
  115MOL    C2036728   2.556   3.793   4.556 -0.0266 -0.9433 -0.8038
  115MOL    C2136729   2.701   3.750   4.540 -0.1467 -0.6947  0.1807
  115MOL    C2236730   2.757   3.637   4.633  0.1374 -0.5837  0.0758
  115MOL    C2336731   2.282   3.833   4.678  0.8367  0.5002 -0.1963
  115MOL    H2436732   2.413   3.998   4.632 -1.7490 -0.3377 -0.5331
  115MOL    H2536733   2.491   3.711   4.526 -0.2366 -0.6603 -1.1159
  115MOL    H2636734   2.519   3.870   4.488 -0.7292  0.6537  1.3194
  115MOL    H2736735   2.768   3.836   4.553 -0.4840 -0.0612 -2.0101
  115MOL    H2836736   2.707   3.723   4.434 -4.3301  1.0271 -0.5968
  115MOL    H2936737   2.854   3.591   4.612  0.6907  0.6370 -0.0344
  115MOL    H3036738   2.684   3.557   4.617 -2.1953  1.4114  0.5572
  115MOL    H3136739   2.772   3.667   4.737 -0.5373 -2.2918  0.6933
  115MOL    H3236740   2.278   3.777   4.584  0.2317 -1.0318  0.7220
  115MOL    H3336741   2.268   3.764   4.762 -2.4695  1.7361  0.3555
  115MOL    C3436742   2.158   3.917   4.665 -0.6425  0.7236 -0.9570
  115MOL    O3536743   2.163   3.982   4.540  1.1616 -0.6324 -0.2539
  115MOL    C3636744   2.154   4.120   4.553 -0.2741 -0.9214  0.2348
  115MOL    C3736745   2.129   4.190   4.417  0.4879 -0.4787 -0.1925
  115MOL    C3836746   2.009   4.140   4.342  0.3217 -0.5204  0.5410
  115MOL    C3936747   2.031   3.827   4.664  0.3438 -0.6160 -0.2115
  115MOL    H4036748   2.141   3.977   4.755 -2.2735 -0.0073 -0.7470
  115MOL    H4136749   2.073   4.153   4.618 -1.3243 -0.5935 -1.2040
  115MOL    H4236750   2.244   4.160   4.599  0.2323 -0.7675 -0.8619
  115MOL    H4336751   2.209   4.170   4.345  1.3461 -0.3709  0.7305
  115MOL    H4436752   2.135   4.296   4.440  1.2369 -0.8835  1.5660
  115MOL    H4536753   1.923   4.138   4.409 -0.2946  2.6489 -0.0482
  115MOL    H4636754   2.030   4.037   4.315 -0.4551 -0.4368 -0.4139
  115MOL    H4736755   1.980   4.194   4.251  1.5666  1.2129  1.1424
  115MOL    H4836756   1.949   3.859   4.599 -0.6591 -2.7515 -0.0374
  115MOL    H4936757   2.053   3.729   4.622  1.1747 -0.1085 -0.9655
  115MOL    C5036758   1.978   3.809   4.809  0.2846 -0.5189 -1.4252
  115MOL    O5136759   1.926   3.943   4.841 -0.4628 -0.0132  0.0792
  115MOL    C5236760   1.962   3.991   4.972 -0.6310  0.4967  1.0237
  115MOL    C5336761   1.841   4.069   5.015 -0.4621 -0.4906 -0.0302
  115MOL    C5436762   1.871   4.181   5.117  0.6205  0.0426 -0.3952
  115MOL    C5536763   1.864   3.703   4.807  0.3570 -0.2335  0.5640
  115MOL    H5636764   2.054   3.774   4.878 -1.4774 -1.0855  0.2601
  115MOL    H5736765   1.978   3.913   5.046 -0.6946  0.8814  1.4480
  115MOL    H5836766   2.052   4.053   4.970  0.5395 -1.0868  2.4260
  115MOL    H5936767   1.761   4.009   5.059  0.4148 -1.4775  0.2573
  115MOL    H6036768   1.797   4.118   4.929 -0.0742 -1.0137 -0.5319
  115MOL    H6136769   1.902   4.159   5.219 -3.4849 -0.3595  0.8359
  115MOL    H6236770   1.787   4.245   5.145 -0.2604 -1.1979 -0.2112
  115MOL    H6336771   1.940   4.249   5.067 -1.7797  1.6699 -1.5707
  115MOL    H6436772   1.809   3.710   4.901  0.8780  1.5963  0.7550
  115MOL    H6536773   1.789   3.726   4.732  0.2380 -1.3321  0.3400
  115MOL    C6636774   1.916   3.556   4.790 -0.1893  0.0346  0.3767
  115MOL    O6736775   1.946   3.520   4.924 -0.5623  0.1358 -0.5514
  115MOL    C6836776   2.069   3.454   4.957  0.7333  0.0233 -0.4655
  115MOL    C6936777   2.100   3.466   5.098 -0.3602 -0.5114 -0.4729
  115MOL    C7036778   1.999   3.398   5.191  0.0935 -0.1383 -0.5109
  115MOL    C7136779   1.799   3.464   4.755 -0.0209  0.3693 -0.4045
  115MOL    H7236780   1.999   3.547   4.720 -2.4782  0.6722 -2.5370
  115MOL    H7336781   2.063   3.347   4.936 -0.0229  0.0343 -0.2981
  115MOL    H7436782   2.157   3.491   4.904 -0.2624  0.4969 -1.8229
  115MOL    H7536783   2.098   3.570   5.128  0.4095 -0.8200  0.6886
  115MOL    H7636784   2.201   3.430   5.122 -0.4508 -1.1715 -1.0659
  115MOL    H7736785   2.009   3.412   5.299 -0.3200  0.3877 -0.5424
  115MOL    H7836786   1.999   3.290   5.176  0.3086 -0.1288 -0.5781
  115MOL    H7936787   1.897   3.425   5.164 -0.4390 -3.0178 -1.6292
  115MOL    H8036788   1.843   3.365   4.741  0.2128  0.1935  1.4929
  115MOL    H8136789   1.729   3.451   4.837  1.5990  0.1272  0.9665
  115MOL    C8236790   1.728   3.496   4.621 -0.1080  0.5014 -0.8578
  115MOL    O8336791   1.833   3.535   4.536  0.1325 -0.3593 -0.6569
  115MOL    C8436792   1.796   3.639   4.445 -0.3076 -0.8002  0.7326
  115MOL    C8536793   1.877   3.634   4.318 -0.0985 -0.3492  0.1958
  115MOL    C8636794   1.837   3.502   4.240  0.6380 -0.1940 -0.2596
  115MOL    C8736795   1.653   3.379   4.558 -0.4859  0.0730  0.4155
  115MOL    H8836796   1.651   3.572   4.634  0.9062  0.9839  2.9808
  115MOL    H8936797   1.688   3.631   4.430 -0.4897  1.6179  0.6256
  115MOL    H9036798   1.818   3.735   4.491 -0.8614  0.1318 -0.8741
  115MOL    H9136799   1.981   3.637   4.350 -0.3300 -1.2863  1.0495
  115MOL    H9236800   1.845   3.721   4.262 -1.9303 -0.8907  0.3851
  115MOL    H9336801   1.897   3.488   4.150  1.1847  1.5770 -0.1882
  115MOL    H9436802   1.736   3.519   4.204  0.0646  0.4896  1.6445
  115MOL    H9536803   1.856   3.416   4.305 -1.4828 -1.0334 -0.7259
  115MOL    H9636804   1.608   3.416   4.466 -0.6021 -1.3081 -0.1007
  115MOL    H9736805   1.720   3.299   4.525  0.2430  0.9364 -0.2147
  115MOL    C9836806   1.543   3.324   4.643  1.0004  0.1631  0.0943
  115MOL    O9936807   1.425   3.408   4.618 -0.1482  0.4489  0.7738
  115MOL   C10036808   1.337   3.422   4.725 -0.0244  0.1298 -0.1739
  115MOL   C10136809   1.219   3.487   4.659  0.2309 -0.2361 -0.0238
  115MOL   C10236810   1.179   3.405   4.534  0.4138 -0.5411  0.6640
  115MOL   C10336811   1.504   3.180   4.608  0.4807 -0.1707  0.1316
  115MOL   H10436812   1.578   3.329   4.746  0.7031  0.4302  0.1825
  115MOL   H10536813   1.302   3.330   4.771  0.9146  0.0943  0.4910
  115MOL   H10636814   1.381   3.483   4.804  4.3289 -1.1509 -1.4759
  115MOL   H10736815   1.238   3.588   4.622  3.5414 -0.1429  1.7898
  115MOL   H10836816   1.131   3.486   4.724 -0.5234 -0.4600 -1.0349
  115MOL   H10936817   1.075   3.430   4.513  0.8282  0.8222  0.1468
  115MOL   H11036818   1.188   3.299   4.557 -1.4483 -1.4462 -2.6237
  115MOL   H11136819   1.245   3.412   4.448  1.2097 -1.4091  1.1977
  115MOL   H11236820   1.425   3.152   4.677 -0.8690  2.1257 -0.4381
  115MOL   H11336821   1.446   3.169   4.517 -1.5146 -1.4697  1.5215
  115MOL   C11436822   1.614   3.075   4.624  0.0731 -0.1150  0.2271
  115MOL   O11536823   1.646   3.068   4.764  0.5598 -0.2104  0.1576
  115MOL   C11636824   1.775   3.012   4.797 -0.2142  0.2552 -0.3209
  115MOL   C11736825   1.819   3.061   4.933  0.4337  0.1110 -0.1770
  115MOL   C11836826   1.942   2.987   4.985 -0.2380 -0.3482  0.0257
  115MOL   C11936827   1.584   2.939   4.565  0.4389  0.5874  0.2628
  115MOL   H12036828   1.697   3.109   4.561  1.1251 -1.9781  0.5747
  115MOL   H12136829   1.768   2.903   4.792  1.1708  0.1850 -1.0501
  115MOL   H12236830   1.845   3.044   4.719 -1.4200  2.5959 -0.4948
  115MOL   H12336831   1.742   3.050   5.009  1.6535 -2.2810  0.7917
  115MOL   H12436832   1.842   3.168   4.928  3.1275 -0.4211  0.1400
  115MOL   H12536833   2.040   3.027   4.958 -0.1187 -0.4513  0.3055
  115MOL   H12636834   1.949   2.880   4.966  1.3498 -0.2406 -0.0786
  115MOL   H12736835   1.947   2.992   5.094  0.2002 -0.9858  0.0390
  115MOL   H12836836   1.626   2.853   4.617  1.7583  0.6722 -0.6247
  115MOL   H12936837   1.477   2.917   4.566  0.7228 -0.8342  2.0368
  115MOL   C13036838   1.638   2.932   4.417  0.2881 -0.3802  0.1999
  115MOL   O13136839   1.781   2.939   4.425  0.2798  0.9345 -0.0276
  115MOL   C13236840   1.856   2.961   4.305  0.1678  0.0618 -0.6445
  115MOL   C13336841   2.006   3.002   4.346  0.3530  0.1648 -0.1693
  115MOL   C13436842   2.005   3.112   4.445 -0.2165 -0.1199  0.0047
  115MOL   C13536843   1.603   2.798   4.351  0.4339  0.6231  0.0542
  115MOL   H13636844   1.610   3.022   4.362  0.9886  0.3240  0.9809
  115MOL   H13736845   1.858   2.878   4.234  0.2623  0.8359 -1.5635
  115MOL   H13836846   1.820   3.050   4.253 -0.3102  1.5884  2.2166
  115MOL   H13936847   2.060   3.027   4.255 -1.0888  2.2837 -0.4883
  115MOL   H14036848   2.057   2.919   4.394  0.5130  0.3527 -0.0091
  115MOL   H14136849   2.093   3.177   4.440 -1.0687  1.1066  0.8378
  115MOL   H14236850   1.998   3.072   4.546  2.6528  1.1117  0.7467
  115MOL   H14336851   1.917   3.173   4.429  0.0862 -0.0437 -1.4379
  115MOL   H14436852   1.667   2.785   4.264 -1.9698 -1.0592 -1.5440
  115MOL   H14536853   1.635   2.713   4.411  0.9065  0.3402 -0.5911
  115MOL   C14636854   1.453   2.782   4.314 -0.0098 -0.2928 -0.1545
  115MOL   O14736855   1.413   2.886   4.220  0.1325  0.9119 -0.2549
  115MOL   C14836856   1.317   2.980   4.277  0.0077  0.2250  0.3346
  115MOL   C14936857   1.298   3.098   4.182 -0.0274 -0.1547 -0.1122
  115MOL   C15036858   1.428   3.178   4.172  0.2439  0.1772 -0.2096
  115MOL   C15136859   1.426   2.645   4.231  0.4468 -0.3154 -0.7307
  115MOL   H15236860   1.389   2.786   4.402 -0.6807 -1.3717 -0.5854
  115MOL   H15336861   1.214   2.943   4.278  0.4136 -0.9520 -0.3158
  115MOL   H15436862   1.339   3.006   4.380 -0.3495 -2.1421  1.0216
  115MOL   H15536863   1.225   3.169   4.222  1.1145  0.6118  0.6469
  115MOL   H15636864   1.262   3.051   4.091 -0.5598  2.2955 -1.2030
  115MOL   H15736865   1.511   3.119   4.132  0.8130 -0.8933  2.3992
  115MOL   H15836866   1.461   3.220   4.267 -1.2666 -1.0486  0.8792
  115MOL   H15936867   1.414   3.256   4.098  0.6252 -0.6748 -1.2016
  115MOL   H16036868   1.326   2.649   4.187 -0.1467  0.0295  0.6236
  115MOL   H16136869   1.487   2.640   4.140  1.4586  1.3279 -0.1560
  115MOL   C16236870   1.435   2.519   4.322 -0.4822 -0.1393 -0.1919
  115MOL   O16336871   1.329   2.531   4.415 -0.5234  0.7972 -0.2274
  115MOL   C16436872   1.365   2.550   4.555  0.4106  0.1096 -0.1641
  115MOL   C16536873   1.235   2.590   4.635 -0.0913  0.2368 -0.4353
  115MOL   C16636874   1.118   2.493   4.611 -0.1577  0.6427  0.0013
  115MOL   C16736875   1.415   2.388   4.242  0.2433  0.0805 -0.3835
  115MOL   H16836876   1.534   2.505   4.364 -0.7715  0.3088  0.6485
  115MOL   H16936877   1.421   2.465   4.594 -1.9074 -1.5741 -0.3761
  115MOL   H17036878   1.434   2.634   4.567  0.3732 -0.1307  1.8155
  115MOL   H17136879   1.201   2.691   4.612 -2.3642  0.3338  3.0217
  115MOL   H17236880   1.258   2.574   4.741  0.5859  0.2255 -0.5797
  115MOL   H17336881   1.035   2.547   4.656  2.0771  2.6002  1.8970
  115MOL   H17436882   1.135   2.397   4.658 -0.2778 -0.3999 -2.0447
  115MOL   H17536883   1.093   2.479   4.505  2.8246  3.3565 -1.1231
  115MOL   H17636884   1.306   2.383   4.235  0.2605 -1.0241 -0.0190
  115MOL   H17736885   1.472   2.389   4.150 -0.6509  0.8081 -0.9413
  115MOL   C17836886   1.458   2.263   4.313 -0.0346 -0.0244  0.7107
  115MOL   O17936887   1.387   2.147   4.258 -0.5426  0.1234  0.6745
  115MOL   C18036888   1.261   2.117   4.303  0.8908  0.5792  0.3041
  115MOL   C18136889   1.217   1.975   4.270  0.0720  0.3505  0.2065
  115MOL   C18236890   1.212   1.943   4.124  0.5545 -0.2609 -0.0787
  115MOL   C18336891   1.610   2.228   4.326  0.2679  0.0484  0.7986
  115MOL   H18436892   1.416   2.279   4.413 -0.3023  3.0458  0.1565
  115MOL   H18536893   1.243   2.132   4.410 -0.8586  0.8648 -0.0080
  115MOL   H18636894   1.193   2.183   4.250  0.5513 -0.1701 -0.2015
  115MOL   H18736895   1.121   1.968   4.322  0.1070 -0.9483  0.1087
  115MOL   H18836896   1.284   1.910   4.327  2.5983  2.9218  0.2722
  115MOL   H18936897   1.310   1.959   4.079  0.0070  0.8702 -0.8871
  115MOL   H19036898   1.152   2.003   4.056 -2.7043 -1.8543  1.2895
  115MOL   H19136899   1.172   1.842   4.108 -1.6630  0.5179  0.3297
  115MOL   H19236900   1.655   2.230   4.227 -0.5435  1.7968  0.4502
  115MOL   H19336901   1.669   2.308   4.372 -0.8105  1.2582  0.1225
  115MOL   C19436902   1.632   2.098   4.402  0.0126  0.4742 -0.5856
  115MOL   O19536903   1.763   2.055   4.372  0.3125  0.2829  0.3144
  115MOL   C19636904   1.771   1.931   4.298 -0.2513  0.1274  0.0234
  115MOL   C19736905   1.911   1.867   4.320  0.5184 -0.3213  0.0663
  115MOL   C19836906   1.938   1.824   4.465 -0.4160  0.3103 -0.3810
  115MOL   C19936907   1.620   2.112   4.550 -0.2822 -0.5569  0.1398
  115MOL   H20036908   1.561   2.025   4.365 -0.9075  1.4572 -0.7773
  115MOL   H20136909   1.704   1.851   4.331  0.1600  0.1394  0.9101
  115MOL   H20236910   1.750   1.949   4.193  0.1865  1.7681  0.1992
  115MOL   H20336911   1.985   1.934   4.276 -0.0726  0.4036  0.1697
  115MOL   H20436912   1.913   1.772   4.267  2.4325 -0.0789 -0.3272
  115MOL   H20536913   1.954   1.894   4.547  1.5521  0.7331 -1.1156
  115MOL   H20636914   2.028   1.764   4.472 -0.2289  0.4032 -1.9340
  115MOL   H20736915   1.851   1.766   4.496  1.2471 -1.4504  1.1208
  115MOL   H20836916   1.680   2.195   4.589 -0.4051 -0.6050  0.4359
  115MOL   H20936917   1.517   2.144   4.562 -0.9650 -1.6801 -2.4967
  115MOL   C21036918   1.628   1.984   4.639  0.2876 -0.3454 -0.1345
  115MOL   O21136919   1.613   2.008   4.776 -0.2654  0.4032  0.2893
  115MOL   C21236920   1.722   2.058   4.856 -0.4010 -0.3988 -0.2397
  115MOL   C21336921   1.746   2.208   4.851  0.1813  0.7860  0.5609
  115MOL   C21436922   1.863   2.250   4.935  0.2168 -0.0379  0.3685
  115MOL   C21536923   1.524   1.879   4.599 -0.2525  0.0121 -0.0468
  115MOL   H21636924   1.727   1.941   4.625  1.1890  1.2613  1.1074
  115MOL   H21736925   1.691   2.035   4.958  1.0464  1.7587  0.7081
  115MOL   H21836926   1.812   1.997   4.851  0.2147  0.6111 -2.0394
  115MOL   H21936927   1.656   2.263   4.881  0.1579  0.4591  1.0758
  115MOL   H22036928   1.780   2.243   4.753  3.3056  0.7394  1.5989
  115MOL   H22136929   1.850   2.222   5.039 -0.8245  0.1257  0.2922
  115MOL   H22236930   1.883   2.357   4.932  2.2298 -0.4106 -0.1039
  115MOL   H22336931   1.953   2.205   4.893  0.7131 -0.0565  1.4401
  115MOL   H22436932   1.428   1.929   4.615 -0.2140 -0.5193  1.8763
  115MOL   H22536933   1.535   1.860   4.492  1.1801 -2.5688  0.5312
  115MOL   C22636934   1.518   1.750   4.680 -0.0876 -0.3803  0.4379
  115MOL   O22736935   1.426   1.659   4.640 -0.0336 -0.3367  0.3634
  115MOL   C22836936   1.296   1.674   4.697 -0.2985  0.0012  0.6382
  115MOL   C22936937   1.224   1.542   4.672  0.3083  0.2746  0.4913
  115MOL   C23036938   1.082   1.561   4.720  0.3051 -0.4630  0.3127
  115MOL   C23136939   1.639   1.659   4.674 -0.0353  0.1166  0.1923
  115MOL   H23236940   1.497   1.776   4.784  2.0915 -0.1979  0.8714
  115MOL   H23336941   1.318   1.683   4.804  0.2648  1.1977  0.4306
  115MOL   H23436942   1.249   1.763   4.655 -1.6282 -1.0153 -0.0627
  115MOL   H23536943   1.273   1.462   4.727  0.3535  0.4727  0.7421
  115MOL   H23636944   1.229   1.522   4.564  3.9307  1.0388  0.4610
  115MOL   H23736945   1.026   1.467   4.716 -0.1782 -0.3644  3.3856
  115MOL   H23836946   1.036   1.631   4.650  0.1507 -1.5917 -0.7528
  115MOL   H23936947   1.074   1.602   4.820  1.0564  3.1145 -1.0258
  115MOL   H24036948   1.645   1.615   4.575  3.2245 -0.8091  0.7528
  115MOL   H24136949   1.728   1.720   4.689  0.2316 -0.3912  0.7112
  115MOL   C24236950   1.641   1.557   4.796  0.1702  0.3360 -0.4252
  115MOL   O24336951   1.693   1.430   4.749 -0.2170 -0.3895 -0.4137
  115MOL   C24436952   1.597   1.364   4.661  0.6680  0.8614 -0.0064
  115MOL   C24536953   1.637   1.215   4.660  0.5756  0.1692  0.4551
  115MOL   C24636954   1.637   1.147   4.801 -0.2886  0.1086 -0.3930
  115MOL   C24736955   1.713   1.592   4.920 -0.6556  0.3995 -0.0967
  115MOL   H24836956   1.540   1.533   4.829  0.6551 -3.5851 -1.4946
  115MOL   H24936957   1.500   1.375   4.709  0.0112 -1.0433 -0.8810
  115MOL   H25036958   1.582   1.404   4.560  0.4479  1.2223  0.1707
  115MOL   H25136959   1.742   1.212   4.630  0.4046  2.1111 -0.4383
  115MOL   H25236960   1.568   1.160   4.596 -1.2239  2.9270 -0.0991
  115MOL   H25336961   1.537   1.114   4.831 -0.0310 -2.5619 -2.2647
  115MOL   H25436962   1.697   1.213   4.863  0.8691 -0.2945 -1.0810
  115MOL   H25536963   1.685   1.050   4.809  1.9626  1.2257 -0.0997
  115MOL   H25636964   1.708   1.506   4.987  0.8642 -0.5018 -1.0883
  115MOL   H25736965   1.819   1.597   4.893 -0.7885 -2.0362 -1.2824
  115MOL   C25836966   1.685   1.730   4.989  0.5468 -0.1610 -1.2526
  115MOL   O25936967   1.559   1.710   5.046 -0.1257  0.4832  0.4786
  115MOL   C26036968   1.479   1.826   5.066  0.7334 -0.4409 -0.1207
  115MOL   C26136969   1.355   1.793   5.143 -0.5355  0.4216 -0.5247
  115MOL   C26236970   1.228   1.880   5.119 -0.3387  0.8039 -0.0490
  115MOL   C26336971   1.774   1.765   5.102 -0.4691 -0.1103 -0.2485
  115MOL   H26436972   1.672   1.809   4.915 -1.2318  0.4508 -0.3270
  115MOL   H26536973   1.532   1.908   5.114 -2.2758  0.3285  2.0302
  115MOL   H26636974   1.447   1.860   4.967  0.9228 -0.8943 -0.3353
  115MOL   H26736975   1.382   1.785   5.248  0.4158  0.9603 -0.7199
  115MOL   H26836976   1.328   1.691   5.114  1.0100 -0.3360  0.5997
  115MOL   H26936977   1.144   1.836   5.172 -1.2276  0.8377 -1.4081
  115MOL   H27036978   1.202   1.881   5.013 -1.6973 -1.2311  0.2351
  115MOL   H27136979   1.234   1.986   5.146  1.6007  0.9433 -0.9328
  115MOL   H27236980   1.866   1.799   5.055 -0.0626 -1.2414 -0.2823
  115MOL   H27336981   1.743   1.862   5.141 -0.3755 -0.4268  0.6278
  115MOL   C27436982   1.791   1.653   5.210  0.0331  0.4533  0.2195
  115MOL   O27536983   1.902   1.574   5.170  0.9267  0.1904  0.5681
  115MOL   C27636984   1.901   1.441   5.217 -0.2412  0.1219  0.3329
  115MOL   C27736985   1.995   1.353   5.136 -0.8249 -0.1765 -0.2423
  115MOL   C27836986   2.117   1.434   5.096 -0.7694 -0.7156  0.0402
  115MOL   C27936987   1.810   1.707   5.355  0.4810  0.4816  0.9350
  115MOL   H28036988   1.694   1.605   5.215 -0.1308  0.6890 -0.6775
  115MOL   H28136989   1.939   1.453   5.319  0.4991 -0.9865  0.1976
  115MOL   H28236990   1.803   1.394   5.225  1.9309 -4.7416  0.0946
  115MOL   H28336991   1.952   1.324   5.041  1.0756 -3.1820 -0.2327
  115MOL   H28436992   2.017   1.264   5.195  1.2137  0.1967 -0.3816
  115MOL   H28536993   2.101   1.518   5.028  1.0011  0.2516  0.7900
  115MOL   H28636994   2.197   1.376   5.049  0.9510 -0.1313  2.1868
  115MOL   H28736995   2.167   1.467   5.187 -0.4206  0.2712 -0.4909
  115MOL   H28836996   1.910   1.673   5.380  0.2730 -0.8550  0.0303
  115MOL   H28936997   1.814   1.815   5.365 -0.2387  0.7610 -1.3838
  115MOL   C29036998   1.722   1.647   5.464  0.6175  0.0302 -0.3021
  115MOL   O29136999   1.799   1.662   5.587  0.2039 -0.0245  0.1423
  115MOL   C29237000   1.851   1.544   5.648  0.0069  0.0641  0.7061
  115MOL   C29337001   1.746   1.470   5.725  0.0106  0.3473 -0.0813
  115MOL   C29437002   1.657   1.548   5.822 -0.2814  0.5693  0.6234
  115MOL   C29537003   1.580   1.711   5.475  0.9105  0.3261 -0.2984
  115MOL   H29637004   1.712   1.542   5.435 -0.9247  0.8057 -2.7306
  115MOL   H29737005   1.897   1.477   5.577 -1.0365 -1.5221  1.4978
  115MOL   H29837006   1.932   1.590   5.704  0.5927  1.6379 -1.3548
  115MOL   H29937007   1.790   1.389   5.783  1.1791  0.7065 -0.4486
  115MOL   H30037008   1.683   1.418   5.653  2.0160  0.4472 -1.9638
  115MOL   H30137009   1.701   1.542   5.921 -2.2759 -0.2165  1.4877
  115MOL   H30237010   1.558   1.507   5.839 -0.8370  0.9817 -1.4631
  115MOL   H30337011   1.635   1.652   5.797  1.1095  0.4569 -1.1561
  115MOL   H30437012   1.528   1.691   5.382 -0.7855  1.9123  0.2745
  115MOL   H30537013   1.530   1.667   5.561  1.3299 -0.4540 -0.4502
  115MOL   C30637014   1.576   1.861   5.505  0.7668 -0.0471 -0.1529
  115MOL   O30737015   1.555   1.925   5.378 -0.0241  0.3265  0.2662
  115MOL   C30837016   1.630   2.043   5.358 -1.1126 -0.1508  0.0604
  115MOL   C30937017   1.557   2.143   5.272 -0.2853 -0.0637 -0.1982
  115MOL   C31037018   1.619   2.284   5.270  0.0833 -0.1488 -0.0625
  115MOL   C31137019   1.451   1.899   5.576 -0.9486 -0.5155  0.6400
  115MOL   H31237020   1.664   1.903   5.553  1.4459 -0.4929 -0.9985
  115MOL   H31337021   1.646   2.092   5.453 -0.1401 -0.8482  0.2631
  115MOL   H31437022   1.729   2.028   5.315 -2.0007 -1.9165 -1.4440
  115MOL   H31537023   1.455   2.144   5.311  0.0912  0.1211  0.7942
  115MOL   H31637024   1.546   2.096   5.174  1.3239 -0.2661 -0.3037
  115MOL   H31737025   1.567   2.348   5.198  2.2808  0.5706 -1.0466
  115MOL   H31837026   1.723   2.278   5.240  0.0020 -0.2684 -0.3250
  115MOL   H31937027   1.611   2.326   5.370  0.7621  3.3783 -1.4470
  115MOL   H32037028   1.360   1.866   5.527 -1.3770  0.6086  0.6737
  115MOL   H32137029   1.456   1.834   5.663 -3.3573 -0.5533  0.7764
  115MOL   H32237030   1.431   2.003   5.603 -2.3708 -0.2113 -1.4505
  116MOL     C137031   7.021   5.182   4.502  0.3223  0.6415 -0.0466
  116MOL     O237032   6.951   5.122   4.394  0.2581 -0.1368  0.2053
  116MOL     C337033   6.812   5.144   4.386  0.0043  0.3497 -0.3674
  116MOL     C437034   6.769   5.140   4.239  0.1804  0.3495 -0.5086
  116MOL     C537035   6.859   5.219   4.147 -0.0695 -0.0286  0.1325
  116MOL     C637036   7.158   5.122   4.511 -0.0180  0.1173 -0.5146
  116MOL     H737037   6.962   5.148   4.586 -0.6897 -1.0805 -1.4198
  116MOL     H837038   6.763   5.070   4.449 -1.3407  0.8776 -0.7779
  116MOL     H937039   6.794   5.244   4.426  1.2891  0.3357  0.2665
  116MOL    H1037040   6.666   5.175   4.235 -0.6197 -2.0160 -1.7680
  116MOL    H1137041   6.772   5.036   4.206 -0.5590  0.2471 -0.2727
  116MOL    H1237042   6.792   5.252   4.068 -1.2863 -0.3147  1.0401
  116MOL    H1337043   6.942   5.169   4.096 -0.7806 -1.3211  0.2350
  116MOL    H1437044   6.894   5.310   4.196 -0.7156  0.2986 -0.0095
  116MOL    H1537045   7.139   5.015   4.519 -1.4785  0.1336 -3.2040
  116MOL    H1637046   7.220   5.138   4.424 -1.1104  1.1039 -1.1262
  116MOL    H1737047   7.026   5.291   4.504 -2.2214  0.7970 -0.7218
  116MOL    C1837048   7.223   5.177   4.639 -0.5525  0.8258  0.2776
  116MOL    O1937049   7.143   5.126   4.753  0.0729 -0.2900 -0.4153
  116MOL    C2037050   7.141   5.220   4.863  0.6088  0.8506 -0.7542
  116MOL    C2137051   6.994   5.218   4.908  0.0923 -0.3359  0.2305
  116MOL    C2237052   6.962   5.104   5.003 -0.3313  0.3419  0.4399
  116MOL    C2337053   7.362   5.102   4.659  0.0648  0.1975  0.3385
  116MOL    H2437054   7.236   5.285   4.633  1.9870  0.4710 -1.8445
  116MOL    H2537055   7.203   5.168   4.936 -0.7611 -0.1166 -0.2702
  116MOL    H2637056   7.182   5.313   4.824 -0.8030  1.1372 -1.5607
  116MOL    H2737057   6.932   5.211   4.818 -1.0232  1.1797  0.8662
  116MOL    H2837058   6.961   5.309   4.957 -1.2906 -0.2655 -0.7918
  116MOL    H2937059   6.854   5.108   5.019  0.0196  3.0123  2.5419
  116MOL    H3037060   7.022   5.108   5.094  1.5534 -0.8519 -0.7449
  116MOL    H3137061   6.980   5.008   4.955  0.9094  0.6624  0.2485
  116MOL    H3237062   7.384   5.089   4.765  1.0543  0.2017  0.1384
  116MOL    H3337063   7.359   4.998   4.627  1.3885 -0.2287  1.5847
  116MOL    C3437064   7.486   5.175   4.599  0.3188 -0.2179  0.0394
  116MOL    O3537065   7.537   5.275   4.685 -0.2235  0.0106 -0.3265
  116MOL    C3637066   7.606   5.381   4.614  0.1778  0.1364 -0.0307
  116MOL    C3737067   7.674   5.482   4.718  0.2507  0.2673 -0.2134
  116MOL    C3837068   7.773   5.406   4.807  0.2848  0.6902 -0.1602
  116MOL    C3937069   7.607   5.082   4.584  0.2326  0.2135 -0.3176
  116MOL    H4037070   7.468   5.219   4.501 -2.1950 -1.8653 -0.2585
  116MOL    H4137071   7.682   5.341   4.547 -1.3181 -1.4746 -0.8286
  116MOL    H4237072   7.542   5.428   4.538  2.0177 -0.6489 -2.1142
  116MOL    H4337073   7.595   5.521   4.782 -1.7195 -1.9333 -1.2515
  116MOL    H4437074   7.726   5.565   4.669 -1.4995  1.4419 -0.1196
  116MOL    H4537075   7.730   5.325   4.867 -0.0174  0.5510 -0.5632
  116MOL    H4637076   7.816   5.478   4.877 -1.6595  2.5906 -0.8709
  116MOL    H4737077   0.024   5.367   4.743 -0.8895  0.3093 -1.3819
  116MOL    H4837078   7.703   5.133   4.594  0.4979  0.1871 -2.4913
  116MOL    H4937079   7.594   5.006   4.660  0.4355 -1.5732 -2.0282
  116MOL    C5037080   7.626   5.013   4.448 -0.0738 -0.3441 -0.2610
  116MOL    O5137081   7.667   5.099   4.349  0.0457  0.5982 -0.4781
  116MOL    C5237082   7.575   5.131   4.246 -0.2927  0.2904 -0.5804
  116MOL    C5337083   7.632   5.239   4.158  0.0310 -0.3046 -0.5117
  116MOL    C5437084   7.665   5.368   4.232  0.3604 -0.4616 -0.4183
  116MOL    C5537085   7.729   4.897   4.455 -0.1807 -0.0875  0.0630
  116MOL    H5637086   7.531   4.963   4.427 -0.0365 -0.2099 -0.7619
  116MOL    H5737087   7.543   5.041   4.195 -0.6230 -0.7191  1.3728
  116MOL    H5837088   7.501   5.172   4.315 -1.2020 -0.7638 -0.9220
  116MOL    H5937089   7.560   5.261   4.079 -0.2025 -0.7030 -0.4135
  116MOL    H6037090   7.721   5.189   4.119  0.3303  0.5608 -0.9349
  116MOL    H6137091   7.696   5.449   4.166 -2.8029  1.8714  0.8340
  116MOL    H6237092   7.750   5.354   4.298  0.9655  1.0660 -0.8490
  116MOL    H6337093   7.582   5.397   4.296  3.7480  1.3308  3.3401
  116MOL    H6437094   0.001   4.942   4.458  0.0476 -0.5635 -0.4426
  116MOL    H6537095   7.711   4.839   4.546  0.9409  0.2152  0.4910
  116MOL    C6637096   7.726   4.803   4.333  0.7424 -0.2360 -0.5117
  116MOL    O6737097   0.013   4.720   4.351 -0.1462 -0.3292  0.6924
  116MOL    C6837098   0.125   4.743   4.262  0.6800  0.3214  0.1790
  116MOL    C6937099   0.254   4.698   4.326  0.2657 -0.4768  0.3688
  116MOL    C7037100   0.270   4.547   4.339 -0.0169 -0.1998 -0.1745
  116MOL    C7137101   7.607   4.704   4.339  0.5488 -0.0684 -0.9971
  116MOL    H7237102   7.731   4.861   4.241  0.1205 -0.9047 -0.9736
  116MOL    H7337103   0.119   4.689   4.168 -0.2197  0.5541  0.0939
  116MOL    H7437104   0.138   4.848   4.234 -0.0766  0.3109 -0.2137
  116MOL    H7537105   0.261   4.732   4.430  0.1771  1.2580 -0.1774
  116MOL    H7637106   0.340   4.740   4.276 -2.2633  1.0339 -2.8937
  116MOL    H7737107   0.312   4.512   4.245 -0.8346 -2.0675  0.1257
  116MOL    H7837108   0.180   4.492   4.366 -1.4752  0.9589 -2.5308
  116MOL    H7937109   0.343   4.531   4.419  0.6361  1.7854 -0.3592
  116MOL    H8037110   7.601   4.659   4.439  2.1310  0.0291 -0.8516
  116MOL    H8137111   7.506   4.738   4.319  0.0882 -0.5803  0.3561
  116MOL    C8237112   7.609   4.583   4.239  0.6426 -0.1641  0.1093
  116MOL    O8337113   7.551   4.472   4.302  0.0260  0.4402  0.3877
  116MOL    C8437114   7.646   4.402   4.378  0.5500  0.0271 -0.3940
  116MOL    C8537115   7.573   4.306   4.466 -0.0132 -0.1315 -0.3799
  116MOL    C8637116   7.667   4.218   4.542 -0.2092  0.1030  0.3217
  116MOL    C8737117   7.518   4.593   4.114  0.0640  0.7348  0.2393
  116MOL    H8837118   7.705   4.557   4.194  0.0810  2.8413 -2.9713
  116MOL    H8937119   7.714   4.340   4.319  0.5985 -1.0483  0.7579
  116MOL    H9037120   7.712   4.464   4.439  1.0540 -1.7515  0.9132
  116MOL    H9137121   7.513   4.245   4.398 -0.6331  1.2655 -1.1279
  116MOL    H9237122   7.508   4.365   4.531 -0.6547  2.8721 -3.5591
  116MOL    H9337123   7.746   4.274   4.593  0.8743  1.6281 -2.9125
  116MOL    H9437124   7.725   4.156   4.474 -0.8601 -0.9966  0.7577
  116MOL    H9537125   7.619   4.154   4.617 -2.9746  1.9463  0.2163
  116MOL    H9637126   7.538   4.504   4.055  1.7559  0.8693  0.5867
  116MOL    H9737127   7.412   4.589   4.140 -0.6575  0.6211 -2.5933
  116MOL    C9837128   7.558   4.717   4.019  0.2468 -0.4813 -0.0073
  116MOL    O9937129   7.692   4.696   3.968 -0.2746  0.3052  0.2910
  116MOL   C10037130   7.765   4.815   3.948 -0.3475 -0.4185  1.2278
  116MOL   C10137131   0.028   4.782   3.828  0.1820 -0.0662  0.0143
  116MOL   C10237132   0.137   4.677   3.850 -0.1985  0.4073 -0.2467
  116MOL   C10337133   7.469   4.732   3.897 -0.1269 -0.4699  0.9310
  116MOL   H10437134   7.559   4.811   4.073  1.8381 -1.0259  0.9179
  116MOL   H10537135   7.690   4.890   3.924 -0.1888 -0.7461 -0.3343
  116MOL   H10637136   7.824   4.836   4.037  0.2153 -1.1174  1.0331
  116MOL   H10737137   0.068   4.875   3.789  0.7979 -0.7652 -1.0663
  116MOL   H10837138   7.784   4.755   3.750  2.0533 -2.3705 -0.9716
  116MOL   H10937139   0.218   4.726   3.904  1.0408 -0.7729 -1.0043
  116MOL   H11037140   0.185   4.642   3.759 -0.0374 -0.2015  0.0649
  116MOL   H11137141   0.108   4.593   3.914 -0.3156  0.2093 -0.5606
  116MOL   H11237142   7.507   4.813   3.833 -1.8909  2.1777  3.1498
  116MOL   H11337143   7.469   4.645   3.831  2.2164 -1.0834  1.6595
  116MOL   C11437144   7.319   4.768   3.930  0.1093  0.0090  0.7718
  116MOL   O11537145   7.307   4.883   4.020 -0.5349  0.2961 -0.0762
  116MOL   C11637146   7.186   4.893   4.078  0.4942  0.1814  0.2949
  116MOL   C11737147   7.173   5.014   4.175 -0.6953 -0.1075 -0.1193
  116MOL   C11837148   7.210   5.150   4.126 -0.1928  0.0130  0.1013
  116MOL   C11937149   7.253   4.797   3.789 -0.4799  0.1120  0.2812
  116MOL   H12037150   7.263   4.692   3.983 -0.5158  0.5908  0.9599
  116MOL   H12137151   7.105   4.908   4.007 -0.0074  0.8936  1.0075
  116MOL   H12237152   7.162   4.812   4.148  3.4351 -0.6894  0.3651
  116MOL   H12337153   7.236   4.984   4.259 -1.3338 -0.9050  0.0749
  116MOL   H12437154   7.072   4.999   4.213 -0.3813 -1.9143  0.0593
  116MOL   H12537155   7.148   5.181   4.042 -0.7436  0.3772  0.6270
  116MOL   H12637156   7.316   5.154   4.102 -0.1061 -0.1802  0.4504
  116MOL   H12737157   7.186   5.228   4.198  3.0811  0.5002  0.7307
  116MOL   H12837158   7.178   4.876   3.792  0.0366  0.6306 -0.3002
  116MOL   H12937159   7.323   4.843   3.720 -0.6733  0.2075  0.1453
  116MOL   C13037160   7.190   4.662   3.721 -0.2210 -0.5575  0.5535
  116MOL   O13137161   7.108   4.599   3.822 -0.5089 -0.1231  0.3839
  116MOL   C13237162   7.086   4.457   3.812 -0.3263 -0.2794  0.2521
  116MOL   C13337163   7.001   4.419   3.927  0.0046  0.5246  0.3990
  116MOL   C13437164   7.045   4.483   4.056 -0.3861  0.4363  0.4686
  116MOL   C13537165   7.119   4.681   3.585  0.4571  0.4920 -0.5684
  116MOL   H13637166   7.278   4.598   3.709  0.1142  0.5706 -4.0078
  116MOL   H13737167   7.043   4.432   3.715 -1.9900 -0.3519  0.9928
  116MOL   H13837168   7.182   4.406   3.816  0.2036  0.6270 -0.6745
  116MOL   H13937169   7.016   4.312   3.940  0.4756  0.7025  1.3048
  116MOL   H14037170   6.897   4.438   3.902 -0.1544 -0.9453 -0.1148
  116MOL   H14137171   7.025   4.590   4.058 -0.4204  0.4341  0.2196
  116MOL   H14237172   7.152   4.467   4.067  0.1522  2.3269 -1.7599
  116MOL   H14337173   6.985   4.440   4.137 -2.4071  0.7680 -0.8198
  116MOL   H14437174   7.093   4.584   3.544 -1.5599  0.0040  1.7179
  116MOL   H14537175   7.023   4.726   3.611  0.5102  1.3756 -1.8965
  116MOL   C14637176   7.188   4.771   3.482 -0.2772 -0.4218 -0.4387
  116MOL   O14737177   7.314   4.715   3.441  0.5228  0.0844  0.5867
  116MOL   C14837178   7.423   4.803   3.424  0.4908 -0.3132 -0.0277
  116MOL   C14937179   7.557   4.713   3.417 -0.0881 -0.1492  0.1216
  116MOL   C15037180   7.583   4.624   3.541 -0.5479  0.6579 -0.1893
  116MOL   C15137181   7.118   4.768   3.351  0.0765 -0.2898  0.2330
  116MOL   H15237182   7.203   4.875   3.513  1.8796 -0.8512  0.0469
  116MOL   H15337183   7.412   4.871   3.339  1.5827 -0.5665 -0.3802
  116MOL   H15437184   7.437   4.861   3.516 -0.0614 -0.9513  0.4567
  116MOL   H15537185   7.641   4.780   3.395 -0.6858  0.1501 -1.3380
  116MOL   H15637186   7.546   4.653   3.326  0.5631  0.3203 -0.2784
  116MOL   H15737187   7.497   4.562   3.564  0.3417 -0.4623  0.1775
  116MOL   H15837188   7.598   4.672   3.638  2.0893  0.2385 -0.3338
  116MOL   H15937189   7.664   4.553   3.527 -0.3742  1.1376 -1.8075
  116MOL   H16037190   7.163   4.834   3.277  0.0301 -0.8064 -0.2618
  116MOL   H16137191   7.135   4.671   3.305  2.2501  1.0391 -1.8356
  116MOL   C16237192   6.971   4.814   3.366  0.0903  0.2477 -0.2290
  116MOL   O16337193   6.990   4.949   3.406  1.0874  0.5096 -0.4236
  116MOL   C16437194   6.887   4.991   3.493 -0.4356  0.3906  0.0815
  116MOL   C16537195   6.926   5.127   3.554  0.0947  0.3579  0.0179
  116MOL   C16637196   6.960   5.239   3.456  0.2180 -0.6024 -0.1934
  116MOL   C16737197   6.901   4.814   3.225 -0.1586 -0.5684 -0.0371
  116MOL   H16837198   6.915   4.754   3.438 -0.1482 -0.5227 -1.0423
  116MOL   H16937199   6.788   5.005   3.451 -0.6834  2.1871  1.1590
  116MOL   H17037200   6.880   4.924   3.579  0.1390 -0.1572 -0.3008
  116MOL   H17137201   7.014   5.105   3.615  0.1379 -0.1635 -0.2272
  116MOL   H17237202   6.856   5.171   3.624  2.5744  1.6505  1.7621
  116MOL   H17337203   6.869   5.276   3.410 -0.0588  0.7339  1.3951
  116MOL   H17437204   7.032   5.217   3.378 -0.3678  1.9666 -1.5063
  116MOL   H17537205   6.994   5.329   3.507  0.6583 -0.8999  0.0333
  116MOL   H17637206   6.814   4.878   3.236 -0.3047 -0.9636  1.0858
  116MOL   H17737207   6.960   4.885   3.166 -0.9734 -0.0637 -0.2444
  116MOL   C17837208   6.900   4.683   3.158 -0.1358 -0.0704 -0.5185
  116MOL   O17937209   6.875   4.581   3.259 -0.4128 -0.6812 -0.0652
  116MOL   C18037210   6.907   4.446   3.213  0.7598 -0.2594 -0.2744
  116MOL   C18137211   6.859   4.343   3.310 -0.1119 -0.0599  0.1850
  116MOL   C18237212   6.929   4.356   3.440  0.0121 -0.0268 -1.1666
  116MOL   C18337213   6.790   4.672   3.052  0.4519 -0.1206  0.0523
  116MOL   H18437214   7.001   4.664   3.122  0.4427  2.9371 -0.6209
  116MOL   H18537215   6.854   4.426   3.120  0.5542  0.3303 -0.2877
  116MOL   H18637216   7.011   4.426   3.188  0.3346 -1.9711 -0.6886
  116MOL   H18737217   6.860   4.240   3.275 -1.2565 -0.1383  0.3583
  116MOL   H18837218   6.752   4.363   3.321 -0.8828 -2.7140 -2.0047
  116MOL   H18937219   7.037   4.365   3.425  0.5327 -1.2684  1.5578
  116MOL   H19037220   6.910   4.274   3.509 -0.2711  0.8831 -0.1473
  116MOL   H19137221   6.902   4.448   3.492 -1.7921 -2.2908  1.9770
  116MOL   H19237222   6.740   4.575   3.050  1.5521 -0.7227  1.3182
  116MOL   H19337223   6.714   4.738   3.092  2.0777  3.0721 -1.9054
  116MOL   C19437224   6.839   4.730   2.912  0.0616 -0.0106 -0.3739
  116MOL   O19537225   6.928   4.639   2.854 -0.4727  0.2295  0.1018
  116MOL   C19637226   7.026   4.699   2.769 -1.5436 -0.3544 -0.3786
  116MOL   C19737227   7.117   4.586   2.743 -1.1578 -0.6091 -1.0696
  116MOL   C19837228   7.052   4.474   2.660  0.0609 -0.7466  0.3095
  116MOL   C19937229   6.724   4.751   2.817 -0.0556  0.0011 -0.1163
  116MOL   H20037230   6.890   4.823   2.937 -2.0470  0.8256  0.8840
  116MOL   H20137231   6.986   4.756   2.685  1.9817  2.9237  0.0097
  116MOL   H20237232   7.087   4.772   2.823  1.9634 -1.1482 -3.0385
  116MOL   H20337233   7.166   4.551   2.834 -0.1466 -0.1974 -1.4509
  116MOL   H20437234   7.203   4.627   2.690  0.8810  0.2256  2.6996
  116MOL   H20537235   6.969   4.423   2.710  0.6043 -1.4984  0.4506
  116MOL   H20637236   7.119   4.394   2.630  0.6550 -0.1224 -0.0554
  116MOL   H20737237   7.003   4.506   2.568 -0.3370  3.2188  1.7847
  116MOL   H20837238   6.751   4.707   2.720  0.7260  0.4438 -0.0980
  116MOL   H20937239   6.640   4.683   2.833  0.1971 -0.4471 -0.6352
  116MOL   C21037240   6.672   4.898   2.812  0.7856  0.6063 -0.1704
  116MOL   O21137241   6.634   4.933   2.946  0.4449  0.4282  0.0398
  116MOL   C21237242   6.507   4.881   2.985 -0.9598  0.0433 -0.4578
  116MOL   C21337243   6.449   4.942   3.118 -0.2461  0.6784  0.6206
  116MOL   C21437244   6.299   4.948   3.132 -0.9778 -0.4839 -0.5503
  116MOL   C21537245   6.773   4.993   2.744  0.1132 -0.9380  0.0775
  116MOL   H21637246   6.581   4.912   2.752 -0.4743 -0.2364  1.4923
  116MOL   H21737247   6.437   4.914   2.909 -3.3267 -3.3835  0.1094
  116MOL   H21837248   6.509   4.772   2.989 -1.4843  0.0908  1.6254
  116MOL   H21937249   6.482   5.046   3.115 -1.7420  1.1357 -0.4990
  116MOL   H22037250   6.494   4.904   3.210 -0.3277 -0.4299  0.2160
  116MOL   H22137251   6.252   4.852   3.111 -1.9471 -0.5566  1.7542
  116MOL   H22237252   6.249   5.017   3.063 -3.4179 -1.6688 -0.0274
  116MOL   H22337253   6.283   4.985   3.233 -0.8343 -0.4752 -0.5317
  116MOL   H22437254   6.870   4.983   2.794 -0.7500  0.9320  2.2121
  116MOL   H22537255   6.784   4.960   2.641  4.1942  0.3242  0.0183
  116MOL   C22637256   6.734   5.141   2.761  0.0580  0.0229 -0.1337
  116MOL   O22737257   6.829   5.227   2.830 -0.0862  0.2196  0.1346
  116MOL   C22837258   6.822   5.208   2.968 -0.6025 -0.4512  0.0015
  116MOL   C22937259   6.926   5.301   3.028 -0.1603  0.3072 -0.4415
  116MOL   C23037260   6.874   5.445   3.034 -0.2248  0.2943  1.0090
  116MOL   C23137261   6.705   5.219   2.635  0.2009 -0.3482  0.3628
  116MOL   H23237262   6.634   5.146   2.806 -0.4264  0.7660 -1.2624
  116MOL   H23337263   6.725   5.233   3.012 -1.3017 -2.5823 -0.2373
  116MOL   H23437264   6.857   5.109   3.000  1.9331  0.2479 -0.4993
  116MOL   H23537265   7.019   5.296   2.971  0.6557  1.0824  0.7992
  116MOL   H23637266   6.949   5.272   3.131 -0.8417 -2.3553 -1.0082
  116MOL   H23737267   6.846   5.476   2.933  1.0585  1.0710  0.8855
  116MOL   H23837268   6.962   5.502   3.062 -1.2990  3.2377 -1.3215
  116MOL   H23937269   6.788   5.462   3.099 -2.4507  1.5270 -2.1454
  116MOL   H24037270   6.687   5.325   2.651  0.6635  0.3625 -3.3967
  116MOL   H24137271   6.797   5.231   2.577 -0.8083  2.5383 -0.7479
  116MOL   C24237272   6.585   5.171   2.556 -0.8483 -0.3165 -0.0809
  116MOL   O24337273   6.472   5.244   2.611  0.2324  0.1085  0.1661
  116MOL   C24437274   6.357   5.166   2.621 -0.6811 -0.6299 -0.7936
  116MOL   C24537275   6.255   5.255   2.687  0.3953 -0.3312 -0.4002
  116MOL   C24637276   6.288   5.292   2.834  0.0800  0.2079  0.5819
  116MOL   C24737277   6.591   5.189   2.403 -0.3305  0.1091  0.6438
  116MOL   H24837278   6.581   5.064   2.577 -0.4971 -0.7403 -2.0798
  116MOL   H24937279   6.342   5.121   2.523  1.1544 -2.2603 -0.3769
  116MOL   H25037280   6.380   5.083   2.688  0.2502 -0.4874 -0.9256
  116MOL   H25137281   6.156   5.210   2.690 -0.4544  1.3561 -2.1462
  116MOL   H25237282   6.236   5.342   2.624 -4.5611 -0.7504  0.2774
  116MOL   H25337283   6.391   5.321   2.851  0.0252  0.9450 -0.3065
  116MOL   H25437284   6.255   5.210   2.898 -2.1998 -0.8941 -1.9006
  116MOL   H25537285   6.224   5.378   2.857 -2.0054 -0.5173 -2.2794
  116MOL   H25637286   6.496   5.164   2.354 -0.5959 -0.5505  1.4794
  116MOL   H25737287   6.589   5.294   2.372 -0.8122  0.2204  1.0434
  116MOL   C25837288   6.698   5.106   2.338  0.1899  0.2593  1.2734
  116MOL   O25937289   6.669   4.970   2.373 -0.3998  0.4482 -0.3950
  116MOL   C26037290   6.783   4.881   2.375 -0.3622 -0.0579 -0.2271
  116MOL   C26137291   6.717   4.732   2.394 -0.6733 -1.5321  0.4662
  116MOL   C26237292   6.600   4.711   2.285  0.1377 -0.6598  0.1539
  116MOL   C26337293   6.687   5.099   2.190  0.5261  0.0311 -0.3348
  116MOL   H26437294   6.801   5.131   2.363  0.4390 -1.6669  2.2486
  116MOL   H26537295   6.834   4.874   2.279  0.0983 -1.1277  0.0855
  116MOL   H26637296   6.854   4.916   2.450  1.2180 -0.5185 -1.4858
  116MOL   H26737297   6.678   4.707   2.492  0.8655 -3.2645  0.6575
  116MOL   H26837298   6.789   4.652   2.378  1.2687  0.5611 -1.7732
  116MOL   H26937299   6.514   4.770   2.317 -0.7781 -1.3024 -1.1094
  116MOL   H27037300   6.580   4.605   2.299  0.6024 -0.6561  0.9091
  116MOL   H27137301   6.633   4.745   2.187  0.9824 -0.9319  0.3424
  116MOL   H27237302   6.725   5.007   2.145  0.0647  0.0859 -0.8336
  116MOL   H27337303   6.579   5.091   2.177  0.3837  0.3963  0.5830
  116MOL   C27437304   6.740   5.216   2.111 -0.2122  0.0143 -0.7478
  116MOL   O27537305   6.879   5.211   2.124  0.2442 -0.2696  0.4073
  116MOL   C27637306   6.944   5.340   2.125 -0.0738 -0.1383 -0.4088
  116MOL   C27737307   7.077   5.331   2.189  0.3440 -0.0818 -0.7479
  116MOL   C27837308   7.177   5.244   2.108  0.0980 -0.0433  0.1412
  116MOL   C27937309   6.696   5.217   1.957 -0.0622  0.0334 -0.1419
  116MOL   H28037310   6.704   5.313   2.144  0.4844  0.1227 -0.3000
  116MOL   H28137311   6.941   5.380   2.024  1.1020 -0.3973 -0.5449
  116MOL   H28237312   6.880   5.410   2.178 -0.2980 -0.8973  0.3394
  116MOL   H28337313   7.080   5.292   2.290 -0.5172  1.8436  0.0504
  116MOL   H28437314   7.105   5.436   2.195  4.0734 -1.1648  2.2861
  116MOL   H28537315   7.277   5.260   2.150  1.2226 -2.9294 -1.3088
  116MOL   H28637316   7.193   5.295   2.013  1.9933 -0.7008  0.0786
  116MOL   H28737317   7.163   5.143   2.071  0.8546  0.6539 -2.1288
  116MOL   H28837318   6.760   5.281   1.897  0.8665 -1.6410 -0.9695
  116MOL   H28937319   6.717   5.122   1.907  1.3537  2.0866 -3.5924
  116MOL   C29037320   6.552   5.262   1.941  0.0264 -0.0053 -0.1223
  116MOL   O29137321   6.545   5.386   2.009 -0.0744  0.3142 -0.1639
  116MOL   C29237322   6.427   5.397   2.092  0.0111 -0.3094 -0.2863
  116MOL   C29337323   6.412   5.539   2.148 -1.0094 -0.1119 -0.2117
  116MOL   C29437324   6.506   5.577   2.257  0.1400 -0.2144 -0.3231
  116MOL   C29537325   6.512   5.266   1.791 -0.4630 -0.3750  0.4700
  116MOL   H29637326   6.485   5.192   1.991  2.5396 -2.7484 -0.5328
  116MOL   H29737327   6.334   5.373   2.040  0.3144 -0.5625 -0.7127
  116MOL   H29837328   6.434   5.317   2.166 -2.0764  0.0083  0.2781
  116MOL   H29937329   6.313   5.553   2.193  0.5561  0.6962  3.1820
  116MOL   H30037330   6.428   5.610   2.067 -0.2303  0.4020  0.3874
  116MOL   H30137331   6.512   5.508   2.341  0.0727  1.9503  1.4894
  116MOL   H30237332   6.478   5.668   2.310 -2.5276 -1.1377 -0.0479
  116MOL   H30337333   6.608   5.590   2.223  0.2391 -1.6621 -0.6229
  116MOL   H30437334   6.409   5.301   1.785  0.1231  1.3923  0.4001
  116MOL   H30537335   6.585   5.331   1.742 -0.3474 -1.1375 -0.3844
  116MOL   C30637336   6.524   5.125   1.720  0.4016 -0.5424 -0.1558
  116MOL   O30737337   6.445   5.035   1.803 -0.0322  0.1054  0.4466
  116MOL   C30837338   6.423   4.912   1.742  0.6058  0.2517 -0.4432
  116MOL   C30937339   6.356   4.820   1.846  0.0192  0.7014 -0.3762
  116MOL   C31037340   6.444   4.783   1.957 -0.6682  0.1286 -0.4870
  116MOL   C31137341   6.476   5.139   1.569  0.0173  0.2135 -0.1529
  116MOL   H31237342   6.628   5.092   1.715  0.2715 -0.8133 -1.2272
  116MOL   H31337343   6.357   4.915   1.654  0.2961  0.5397 -0.2034
  116MOL   H31437344   6.524   4.878   1.719  0.3124 -1.1136  0.2706
  116MOL   H31537345   6.323   4.728   1.797  0.7763 -0.3628  1.0493
  116MOL   H31637346   6.269   4.874   1.883  0.7370  1.4906  0.1625
  116MOL   H31737347   6.394   4.728   2.036  1.1281  0.0816  0.6297
  116MOL   H31837348   6.483   4.869   2.011  0.9141  0.4496 -2.0622
  116MOL   H31937349   6.532   4.723   1.932  0.8026  1.6260  0.9542
  116MOL   H32037350   6.498   5.045   1.519 -0.0560  0.2738 -0.2965
  116MOL   H32137351   6.372   5.171   1.574  0.6194  2.1035  0.6239
  116MOL   H32237352   6.538   5.213   1.520 -1.1379  1.2081 -0.1439
  117MOL     C137353   1.145   6.251   7.781 -0.2436  0.1140 -0.0264
  117MOL     O237354   1.240   6.209   0.053  0.5889 -0.1907 -0.0624
  117MOL     C337355   1.359   6.277   0.038  0.3318 -0.4555 -0.3680
  117MOL     C437356   1.433   6.217   0.154 -0.5736 -0.1378  0.1586
  117MOL     C537357   1.378   6.260   0.289  0.4302 -0.2756 -0.2513
  117MOL     C637358   1.028   6.145   7.797  0.1101  0.3686  0.5474
  117MOL     H737359   1.199   6.244   7.687 -0.3440  0.3009 -0.0981
  117MOL     H837360   1.411   6.268   7.770 -0.3736 -2.0083 -0.6157
  117MOL     H937361   1.350   6.384   0.058  1.0537 -0.5384  0.4461
  117MOL    H1037362   1.541   6.235   0.154 -0.3707 -1.2268 -0.9875
  117MOL    H1137363   1.431   6.108   0.144  1.2900 -0.3673  1.9156
  117MOL    H1237364   1.424   6.193   0.362  0.4163  2.7104  2.5614
  117MOL    H1337365   1.274   6.232   0.305  0.6400 -0.8849  0.0640
  117MOL    H1437366   1.395   6.365   0.312  1.0757 -0.7162  1.3217
  117MOL    H1537367   0.995   6.142   0.073 -1.9447  1.6120 -0.0461
  117MOL    H1637368   0.937   6.188   7.755  1.0871 -0.9755 -3.1810
  117MOL    H1737369   1.113   6.352   7.804  2.2276  0.5508  1.7461
  117MOL    C1837370   1.060   6.006   7.738  0.8224  0.6373  0.6556
  117MOL    O1937371   1.011   5.904   7.822 -0.5137 -0.0511 -0.1879
  117MOL    C2037372   1.103   5.809   0.039 -0.8542  0.0634  0.2593
  117MOL    C2137373   1.035   5.710   0.131 -0.8469 -0.7115 -0.7548
  117MOL    C2237374   0.930   5.632   0.057  0.0315  0.4041  0.1474
  117MOL    C2337375   1.009   5.983   7.593  0.4985  0.3172 -0.8442
  117MOL    H2437376   1.168   5.996   7.732  0.5102 -2.1240 -1.7375
  117MOL    H2537377   1.124   5.745   7.781 -3.3478 -1.0323  0.4231
  117MOL    H2637378   1.192   5.857   0.080 -0.2366 -1.0278  0.2180
  117MOL    H2737379   0.999   5.766   0.218  1.0564  0.6053 -0.7761
  117MOL    H2837380   1.106   5.644   0.181 -1.1463 -0.9135 -0.5957
  117MOL    H2937381   0.855   5.690   0.004 -1.9886 -0.9707  1.4608
  117MOL    H3037382   0.869   5.589   0.136  1.3239  2.0751  2.1066
  117MOL    H3137383   0.982   5.557   7.826  1.6611  0.1224  1.8887
  117MOL    H3237384   1.080   6.026   7.523 -0.3356 -1.5253 -2.8994
  117MOL    H3337385   1.029   5.878   7.571 -2.6266  0.0243 -2.5659
  117MOL    C3437386   0.859   6.014   7.560 -0.2906 -0.2891  0.1401
  117MOL    O3537387   0.824   5.947   7.436  0.4962 -0.2984  0.3891
  117MOL    C3637388   0.882   5.989   7.310 -0.8344 -0.3206 -0.1826
  117MOL    C3737389   0.825   5.906   7.194 -0.2355 -0.3137  0.5256
  117MOL    C3837390   0.676   5.880   7.197  0.5001 -0.9763  0.3518
  117MOL    C3937391   0.758   5.965   7.662 -0.3893 -0.0604  0.2427
  117MOL    H4037392   0.856   6.123   7.555  0.3115 -0.1681  2.0264
  117MOL    H4137393   0.849   6.092   7.297 -0.2494 -0.2508 -1.1320
  117MOL    H4237394   0.989   5.970   7.317 -0.7511  0.4274  0.6418
  117MOL    H4337395   0.881   5.812   7.201 -1.5955 -1.2216 -0.5891
  117MOL    H4437396   0.842   5.960   7.101  0.6427 -1.9711 -0.3073
  117MOL    H4537397   0.645   5.813   7.117 -0.8777  1.0610 -0.8867
  117MOL    H4637398   0.608   5.966   7.189 -0.0953 -1.5463 -0.9297
  117MOL    H4737399   0.652   5.828   7.290  3.0168 -0.0056  1.5655
  117MOL    H4837400   0.771   5.857   7.671 -0.3927  0.0960  2.2520
  117MOL    H4937401   0.780   6.020   7.753 -2.3260  0.8355  0.2009
  117MOL    C5037402   0.608   6.003   7.621  0.1286 -0.2550  0.5545
  117MOL    O5137403   0.539   5.934   7.721 -0.4945  0.6170 -0.2309
  117MOL    C5237404   0.501   5.799   7.692 -0.5136 -0.5815  0.3888
  117MOL    C5337405   0.432   5.742   7.820  0.3336 -0.3793 -0.7736
  117MOL    C5437406   0.478   5.774   0.136  0.0134 -0.0319  0.2029
  117MOL    C5537407   0.566   6.148   7.624  0.2447  0.1903  0.2613
  117MOL    H5637408   0.583   5.963   7.523  1.0674 -2.0616  1.0296
  117MOL    H5737409   0.437   5.796   7.603 -1.2875  3.8519  0.6807
  117MOL    H5837410   0.587   5.738   7.666  1.4300  2.3591 -0.2708
  117MOL    H5937411   0.436   5.633   7.821  2.0940 -0.3358  1.2784
  117MOL    H6037412   0.325   5.761   0.001  0.1660 -2.3379  2.0657
  117MOL    H6137413   0.473   5.883   0.143 -1.7931 -0.1968  1.8349
  117MOL    H6237414   0.581   5.741   0.149 -0.5032 -0.7826  2.5788
  117MOL    H6337415   0.413   5.723   0.207 -1.3483 -1.1873 -1.7910
  117MOL    H6437416   0.567   6.184   7.727  2.7820  1.9173 -0.3209
  117MOL    H6537417   0.643   6.204   7.571  0.1238  1.3724  1.3082
  117MOL    C6637418   0.424   6.170   7.557  0.2917  0.0616 -0.4384
  117MOL    O6737419   0.325   6.197   7.652  0.2776  0.1284 -0.0936
  117MOL    C6837420   0.276   6.093   7.736 -0.4858 -0.1230 -0.1341
  117MOL    C6937421   0.163   6.158   7.818  0.2547 -0.1997 -0.0611
  117MOL    C7037422   0.224   6.254   0.092 -0.6200 -0.0948 -0.3016
  117MOL    C7137423   0.425   6.280   7.446 -0.1294  0.7737  0.2775
  117MOL    H7237424   0.402   6.077   7.506  1.0949 -0.4931  0.2273
  117MOL    H7337425   0.240   6.004   7.684  1.0997 -1.9752  1.8000
  117MOL    H7437426   0.353   6.061   7.807  1.2281  0.8015 -1.5503
  117MOL    H7537427   0.117   6.084   0.057 -1.1444 -0.3509 -1.1534
  117MOL    H7637428   0.083   6.199   7.756  1.5861  0.0393 -1.6423
  117MOL    H7737429   0.154   6.312   0.153 -0.1073  1.1091 -0.8468
  117MOL    H7837430   0.277   6.340   0.051  1.9329 -2.0160 -1.1286
  117MOL    H7937431   0.294   6.202   0.157  1.8761  1.2197 -1.8998
  117MOL    H8037432   0.394   6.364   7.508  1.9633  1.4408  0.4674
  117MOL    H8137433   0.521   6.304   7.401  0.6996 -0.6320  1.2604
  117MOL    C8237434   0.304   6.248   7.347  0.3043  0.0780 -0.0052
  117MOL    O8337435   0.291   6.362   7.254 -0.3517  0.4919 -0.5155
  117MOL    C8437436   0.169   6.435   7.269 -0.2961 -0.2041  0.7170
  117MOL    C8537437   0.154   6.533   7.146 -0.6654  0.2855  0.2169
  117MOL    C8637438   0.025   6.603   7.139  0.0413  0.0994  0.2625
  117MOL    C8737439   0.355   6.137   7.245  0.1901  0.2936 -0.2039
  117MOL    H8837440   0.212   6.212   7.393 -0.2582 -0.5119 -1.5542
  117MOL    H8937441   0.087   6.364   7.263  0.1453 -0.7926  1.4908
  117MOL    H9037442   0.161   6.484   7.366 -2.8947 -1.6120  1.2567
  117MOL    H9137443   0.168   6.467   7.060 -1.7548  1.0656 -0.5653
  117MOL    H9237444   0.237   6.603   7.136 -0.2973 -0.3158 -1.0616
  117MOL    H9337445   0.009   6.671   7.223 -0.6726  0.5073 -0.2010
  117MOL    H9437446   7.773   6.530   7.128  1.4478 -1.5914  0.8550
  117MOL    H9537447   0.014   6.662   7.048  0.5432  0.2625  0.3037
  117MOL    H9637448   0.444   6.171   7.192  0.0603  0.7819 -0.1124
  117MOL    H9737449   0.376   6.039   7.288  0.3739 -0.4138 -1.8861
  117MOL    C9837450   0.248   6.104   7.136 -0.4125  0.2141 -0.0611
  117MOL    O9937451   0.302   5.997   7.054  0.3353  0.2869  0.2270
  117MOL   C10037452   0.394   6.029   6.954 -0.2325 -0.0071  0.3328
  117MOL   C10137453   0.434   5.900   6.886 -0.3379 -0.2521  0.2231
  117MOL   C10237454   0.322   5.823   6.808  0.3213 -0.0409 -0.1644
  117MOL   C10337455   0.108   6.056   7.182 -0.4835 -0.8028  0.5195
  117MOL   H10437456   0.233   6.197   7.081  1.0613  0.4723 -0.0460
  117MOL   H10537457   0.357   6.102   6.882  0.2795 -0.2946 -0.2285
  117MOL   H10637458   0.486   6.075   6.990  1.0492 -2.7386  0.7290
  117MOL   H10737459   0.472   5.831   6.962 -0.6010 -1.6785 -0.9196
  117MOL   H10837460   0.510   5.906   6.808 -0.2019 -0.8600  0.3078
  117MOL   H10937461   0.240   5.793   6.873  0.0582  0.2247 -0.3725
  117MOL   H11037462   0.358   5.730   6.765 -0.7599 -0.8282  0.6198
  117MOL   H11137463   0.287   5.881   6.723  0.0309  1.3373  0.8623
  117MOL   H11237464   0.125   5.969   7.244  1.6827  0.1782  1.3347
  117MOL   H11337465   0.058   6.131   7.243  1.3539  1.2636 -0.4260
  117MOL   C11437466   0.004   6.012   7.076  0.6596  0.5744  0.4089
  117MOL   O11537467   7.731   5.957   7.152  0.0469 -0.0885 -0.1304
  117MOL   C11637468   7.724   5.814   7.150 -0.3767  0.0648 -0.4095
  117MOL   C11737469   7.599   5.759   7.226 -0.1826 -0.3785 -0.0607
  117MOL   C11837470   7.470   5.801   7.152  0.4757  0.8522 -0.5251
  117MOL   C11937471   7.759   6.122   6.996 -0.0468 -0.3624 -0.1137
  117MOL   H12037472   0.050   5.944   7.004  0.9324  0.9477  0.2243
  117MOL   H12137473   7.717   5.770   7.051  0.5282  0.6012 -0.7092
  117MOL   H12237474   7.812   5.788   7.209 -2.1575 -1.2100  1.7879
  117MOL   H12337475   7.594   5.788   7.331 -2.7804 -2.9497  0.5801
  117MOL   H12437476   7.604   5.651   7.241  1.7096 -0.3842 -0.5660
  117MOL   H12537477   7.448   5.902   7.186 -1.4481 -0.0497  1.0043
  117MOL   H12637478   7.392   5.733   7.186  0.8539 -0.6138 -2.4690
  117MOL   H12737479   7.477   5.786   7.044 -1.3738  1.5063 -0.7489
  117MOL   H12837480   7.684   6.167   7.061 -0.2448  1.0309 -1.2601
  117MOL   H12937481   7.827   6.203   6.968 -0.7121  0.9888  2.0987
  117MOL   C13037482   7.681   6.057   6.879 -0.5765 -0.4337  0.6400
  117MOL   O13137483   7.583   6.161   6.840 -0.3955 -0.1496 -0.5674
  117MOL   C13237484   7.462   6.134   6.895  0.2443  0.5469 -0.3012
  117MOL   C13337485   7.367   6.252   6.859 -0.0059  0.0422  0.5770
  117MOL   C13437486   7.423   6.390   6.877  0.1540  0.0786 -0.3503
  117MOL   C13537487   7.769   6.039   6.749 -0.0400  0.1486 -1.1443
  117MOL   H13637488   7.632   5.964   6.904 -0.4233 -0.4907  0.7222
  117MOL   H13737489   7.413   6.042   6.865  1.9704 -0.1158 -1.1754
  117MOL   H13837490   7.463   6.122   7.003  0.3365  3.5177  0.0776
  117MOL   H13937491   7.273   6.240   6.913 -1.1647 -0.9468 -1.6044
  117MOL   H14037492   7.341   6.240   6.754  0.3807 -2.2945  0.7112
  117MOL   H14137493   7.388   6.440   6.967 -0.1020  2.1789 -1.5877
  117MOL   H14237494   7.376   6.458   6.807 -0.3206  0.6322  0.4975
  117MOL   H14337495   7.531   6.402   6.869  0.0975 -0.1938 -1.6081
  117MOL   H14437496   7.761   6.120   6.676  0.4735  1.0770 -0.1828
  117MOL   H14537497   0.040   6.057   6.791 -0.1248  1.8884 -1.6624
  117MOL   C14637498   7.769   5.898   6.689 -0.0448 -0.3896 -0.2336
  117MOL   O14737499   7.807   5.813   6.795 -0.4804 -0.4231  0.4283
  117MOL   C14837500   7.816   5.674   6.773 -0.3292  0.4157  0.1300
  117MOL   C14937501   0.085   5.634   6.658  0.6482  0.4644  0.7385
  117MOL   C15037502   0.125   5.485   6.667  0.0807 -0.5862 -0.1659
  117MOL   C15137503   7.638   5.854   6.628  0.5213  0.3083 -0.0894
  117MOL   H15237504   0.022   5.886   6.617 -0.0702 -2.7822  0.1200
  117MOL   H15337505   0.013   5.625   6.867  0.4636  1.1987  0.3357
  117MOL   H15437506   7.724   5.618   6.757 -0.8015  1.1719  0.1885
  117MOL   H15537507   0.170   5.702   6.664  2.1666 -1.2526 -0.7107
  117MOL   H15637508   0.035   5.646   6.562  0.4458 -0.3427  0.7355
  117MOL   H15737509   0.196   5.470   6.749  0.5359 -2.5461 -0.9049
  117MOL   H15837510   0.175   5.454   6.575  0.3332 -1.3628  0.2306
  117MOL   H15937511   0.040   5.425   6.699 -0.5871  2.0566  3.4168
  117MOL   H16037512   7.636   5.749   6.599  2.2558  0.3298 -0.3566
  117MOL   H16137513   7.567   5.860   6.710 -0.2234  1.4775 -0.7879
  117MOL   C16237514   7.575   5.941   6.518 -0.4772 -0.1966  0.0715
  117MOL   O16337515   7.626   5.907   6.396 -0.3149 -0.2622  0.1874
  117MOL   C16437516   7.634   6.012   6.304  0.2172  0.2572  0.3089
  117MOL   C16537517   7.714   5.950   6.182 -0.0765  0.3987 -0.4013
  117MOL   C16637518   7.770   6.044   6.077 -0.0647 -0.2229  0.2633
  117MOL   C16737519   7.424   5.927   6.514  0.1640 -0.0519  1.0198
  117MOL   H16837520   7.595   6.043   6.547 -1.1786 -0.0966  0.2177
  117MOL   H16937521   7.537   6.030   6.259  0.3588  0.6616  0.1631
  117MOL   H17037522   7.680   6.104   6.340 -0.4946  0.9118 -0.4497
  117MOL   H17137523   7.651   5.878   6.129  0.4720 -1.8064  1.8622
  117MOL   H17237524   7.800   5.898   6.222 -0.2295  1.4907  1.3813
  117MOL   H17337525   0.012   6.112   6.126  0.8837 -1.4755  0.6771
  117MOL   H17437526   7.691   6.101   6.028 -0.2565 -0.7792 -0.0696
  117MOL   H17537527   0.003   6.005   5.995  0.7048 -0.3113  0.8640
  117MOL   H17637528   7.396   5.990   6.598 -1.6376  0.6289 -0.0613
  117MOL   H17737529   7.390   5.975   6.422 -2.3344 -2.3631  0.6632
  117MOL   C17837530   7.364   5.792   6.533  0.1767 -0.0818  0.1934
  117MOL   O17937531   7.222   5.798   6.548 -0.1270 -0.2823 -0.2455
  117MOL   C18037532   7.175   5.842   6.673 -0.5837 -0.1175  0.4291
  117MOL   C18137533   7.024   5.824   6.657  0.3682 -0.3861  0.2068
  117MOL   C18237534   6.968   5.876   6.514 -0.1591 -0.1084  0.3268
  117MOL   C18337535   7.380   5.711   6.402 -0.2885  0.2452  0.0895
  117MOL   H18437536   7.411   5.748   6.621 -0.1794 -0.4482  0.2001
  117MOL   H18537537   7.227   5.794   6.756 -1.4760 -1.1992  0.3738
  117MOL   H18637538   7.197   5.947   6.689  1.1423 -0.4767  0.5332
  117MOL   H18737539   6.972   5.868   6.742  0.0008 -3.3967  1.6109
  117MOL   H18837540   7.001   5.718   6.667  3.5808 -0.8688  3.4838
  117MOL   H18937541   6.859   5.876   6.510 -0.1529 -0.3380  0.1112
  117MOL   H19037542   7.013   5.823   6.430  1.6517  0.8322  0.7023
  117MOL   H19137543   7.004   5.978   6.501 -3.1475  0.9510 -0.1697
  117MOL   H19237544   7.331   5.760   6.318 -1.0352  0.4507  0.6443
  117MOL   H19337545   7.487   5.698   6.383  0.0220  2.2353  0.4113
  117MOL   C19437546   7.312   5.570   6.400 -0.1816 -0.4489 -0.7384
  117MOL   O19537547   7.354   5.515   6.273  0.6375  0.3971 -0.0590
  117MOL   C19637548   7.246   5.445   6.207  0.1650 -0.5245  0.0685
  117MOL   C19737549   7.296   5.372   6.082 -0.4905 -0.5435  0.1860
  117MOL   C19837550   7.352   5.236   6.120  0.3134  0.3021 -0.0910
  117MOL   C19937551   7.372   5.488   6.514  0.2416  0.7660  0.6874
  117MOL   H20037552   7.204   5.571   6.411  0.0628  1.1734  2.1731
  117MOL   H20137553   7.187   5.381   6.272  0.7504 -1.1445 -0.0076
  117MOL   H20237554   7.176   5.520   6.170 -0.7145 -1.5810 -0.4123
  117MOL   H20337555   7.374   5.423   6.025 -0.2131 -1.9415 -0.7125
  117MOL   H20437556   7.210   5.360   6.017  1.1875  1.0752 -2.4233
  117MOL   H20537557   7.389   5.181   6.033 -1.3581 -0.6127 -0.2428
  117MOL   H20637558   7.282   5.168   6.167 -0.9321  1.5358 -0.1193
  117MOL   H20737559   7.445   5.250   6.175  0.7126 -1.0848 -0.4049
  117MOL   H20837560   7.477   5.470   6.489 -0.6266 -2.6778 -0.7578
  117MOL   H20937561   7.352   5.535   6.610  1.5487 -0.8463  1.7771
  117MOL   C21037562   7.326   5.342   6.533  0.1200 -0.4435 -0.2781
  117MOL   O21137563   7.401   5.268   6.630  0.0901  0.2339 -0.4513
  117MOL   C21237564   7.493   5.168   6.595  0.1649 -0.1615 -0.8117
  117MOL   C21337565   7.629   5.229   6.544  0.4444  0.7824 -0.2185
  117MOL   C21437566   7.747   5.130   6.553  0.4122  0.6242  0.3603
  117MOL   C21537567   7.183   5.340   6.581 -0.1076 -0.2033 -0.8118
  117MOL   H21637568   7.335   5.297   6.434  0.3220  0.5212 -0.7062
  117MOL   H21737569   7.521   5.108   6.681  0.9560 -0.7790 -1.4872
  117MOL   H21837570   7.440   5.097   6.531 -1.2849 -0.5911  0.8214
  117MOL   H21937571   7.650   5.316   6.605 -1.7276  1.9406 -1.0588
  117MOL   H22037572   7.618   5.269   6.443 -0.2530  0.2196 -0.3738
  117MOL   H22137573   7.720   5.037   6.503  0.4346  0.3610  0.8307
  117MOL   H22237574   7.762   5.103   6.658  2.1247  1.1266  0.2587
  117MOL   H22337575   0.016   5.156   6.512  0.2982 -0.7913 -0.8587
  117MOL   H22437576   7.177   5.394   6.676 -1.5847 -0.0335 -0.9909
  117MOL   H22537577   7.128   5.396   6.505  0.0256 -0.7478 -1.3104
  117MOL   C22637578   7.105   5.203   6.590 -0.4430  0.0744 -0.6816
  117MOL   O22737579   6.972   5.218   6.645 -0.8604  0.2406 -0.1884
  117MOL   C22837580   6.972   5.209   6.786 -0.1649 -0.3314 -0.9410
  117MOL   C22937581   6.824   5.207   6.825  0.0784 -0.2867  0.3407
  117MOL   C23037582   6.750   5.078   6.804 -0.2027 -0.1925  0.6561
  117MOL   C23137583   7.084   5.141   6.449  0.3438 -0.4713  0.4468
  117MOL   H23237584   7.162   5.135   6.654 -1.2194  0.5895  0.5742
  117MOL   H23337585   7.012   5.115   6.823 -1.9783  0.1313  2.3818
  117MOL   H23437586   7.022   5.289   6.840 -1.6993  0.2178 -0.2907
  117MOL   H23537587   6.764   5.286   6.781 -0.1175 -0.0973  0.9354
  117MOL   H23637588   6.821   5.232   6.931 -0.8820 -0.0130  0.2519
  117MOL   H23737589   6.769   5.033   6.707  4.3717 -4.2387  3.2242
  117MOL   H23837590   6.644   5.093   6.821  0.0337  2.9296 -0.2339
  117MOL   H23937591   6.791   5.005   6.874  2.7541 -0.1869 -0.9763
  117MOL   H24037592   7.033   5.217   6.391 -1.0067 -1.4811  0.2834
  117MOL   H24137593   7.176   5.117   6.395 -0.8742 -1.3191 -1.2950
  117MOL   C24237594   7.009   5.010   6.451 -0.2177  0.6745  0.7783
  117MOL   O24337595   6.974   4.986   6.315  0.4178  0.2975  0.1405
  117MOL   C24437596   6.852   5.050   6.277  0.5241  0.0550 -0.3367
  117MOL   C24537597   6.785   4.988   6.158 -0.3101  0.5472  0.7707
  117MOL   C24637598   6.885   4.988   6.043  0.3385  0.2401  0.1181
  117MOL   C24737599   7.086   4.881   6.493 -0.2440  0.3262 -0.2584
  117MOL   H24837600   6.918   5.025   6.508 -0.1852  1.4465  0.6437
  117MOL   H24937601   6.780   5.039   6.359  1.4901 -2.5029  0.2028
  117MOL   H25037602   6.872   5.155   6.260  0.4193 -0.0147 -0.8933
  117MOL   H25137603   6.692   5.040   6.133 -0.6520 -0.8463 -0.8645
  117MOL   H25237604   6.758   4.885   6.181 -1.7725  1.2914  2.6025
  117MOL   H25337605   6.839   4.930   5.962  0.6131 -0.2909  0.3395
  117MOL   H25437606   6.982   4.943   6.065 -0.4030 -1.1459  0.5595
  117MOL   H25537607   6.892   5.090   6.006 -1.8914 -0.2076 -1.6869
  117MOL   H25637608   7.159   4.863   6.414 -2.5827  0.6538 -2.5543
  117MOL   H25737609   7.147   4.901   6.582  1.0351 -1.0985 -0.7918
  117MOL   C25837610   7.001   4.762   6.538  0.1214  0.1878 -0.8694
  117MOL   O25937611   7.083   4.652   6.536 -0.1235 -0.2187 -0.0387
  117MOL   C26037612   7.071   4.561   6.421  0.3257  0.0344 -0.0947
  117MOL   C26137613   7.174   4.443   6.421 -0.1826  0.0171  0.6116
  117MOL   C26237614   7.319   4.489   6.421  0.2743  1.0172  0.6291
  117MOL   C26337615   6.938   4.778   6.680 -0.9923  0.4246  0.5955
  117MOL   H26437616   6.917   4.742   6.472 -0.2486 -0.3706 -0.2454
  117MOL   H26537617   6.972   4.527   6.392  0.7905 -0.2150 -1.4561
  117MOL   H26637618   7.100   4.620   6.334 -3.4712  3.2392  0.6672
  117MOL   H26737619   7.162   4.372   6.340  1.8765 -1.0606  1.2222
  117MOL   H26837620   7.164   4.398   6.519  0.6312  0.3740  0.8633
  117MOL   H26937621   7.330   4.584   6.474  0.2550  1.4337 -0.1058
  117MOL   H27037622   7.351   4.504   6.318  1.5895  1.7515  1.1339
  117MOL   H27137623   7.387   4.417   6.465 -0.3661  0.1363  0.2016
  117MOL   H27237624   7.012   4.830   6.741  1.4765 -0.0580 -1.8926
  117MOL   H27337625   6.866   4.856   6.656 -0.0266  1.6062  1.4466
  117MOL   C27437626   6.860   4.660   6.732 -0.3896 -0.4544 -0.4884
  117MOL   O27537627   6.824   4.677   6.863  0.0580 -0.2821 -0.4190
  117MOL   C27637628   6.931   4.695   6.954 -0.1646  0.7048 -0.2263
  117MOL   C27737629   6.896   4.622   7.082  0.4438  0.6185 -0.1636
  117MOL   C27837630   6.878   4.472   7.049 -0.1650  0.5335 -0.4171
  117MOL   C27937631   6.724   4.643   6.654 -0.8399  0.4301 -0.3196
  117MOL   H28037632   6.935   4.581   6.727 -0.8537 -0.9702  0.4948
  117MOL   H28137633   7.019   4.654   6.904 -0.5473 -1.4697  0.7950
  117MOL   H28237634   6.974   4.792   6.977  2.6562 -0.3366 -0.9054
  117MOL   H28337635   6.807   4.673   7.117  1.6399  0.5640  3.1427
  117MOL   H28437636   6.972   4.637   7.159  0.7793 -1.0664 -0.1457
  117MOL   H28537637   6.965   4.411   7.025 -0.8312 -1.2740  1.6072
  117MOL   H28637638   6.800   4.457   6.974 -1.3193 -0.2955  0.9245
  117MOL   H28737639   6.839   4.424   7.139 -0.5082  0.1252 -0.7839
  117MOL   H28837640   6.648   4.720   6.663 -0.9974  0.4257 -1.5497
  117MOL   H28937641   6.744   4.632   6.548 -0.6888 -0.2102 -0.2289
  117MOL   C29037642   6.648   4.514   6.693  0.3727  0.3106 -0.6704
  117MOL   O29137643   6.517   4.512   6.641  0.1935 -0.0067 -0.0888
  117MOL   C29237644   6.418   4.568   6.722  0.3846  0.2829  0.2514
  117MOL   C29337645   6.283   4.517   6.669 -0.2137  0.6873 -0.4910
  117MOL   C29437646   6.241   4.377   6.717  0.1649  0.0596 -0.3207
  117MOL   C29537647   6.711   4.385   6.635  0.3724  0.1287  0.0994
  117MOL   H29637648   6.647   4.493   6.800 -0.4790  0.6974 -0.6032
  117MOL   H29737649   6.439   4.542   6.826  0.4279  3.5221  1.1306
  117MOL   H29837650   6.399   4.675   6.713 -0.1194  0.1621 -0.1222
  117MOL   H29937651   6.273   4.520   6.560 -0.2514 -0.1078 -0.5128
  117MOL   H30037652   6.208   4.594   6.687  0.8588  1.5623  0.2819
  117MOL   H30137653   6.313   4.302   6.685  0.3143 -0.3317  0.9361
  117MOL   H30237654   6.139   4.349   6.688 -0.4927  0.6084  1.4320
  117MOL   H30337655   6.243   4.376   6.826 -0.6648  0.0936 -0.3002
  117MOL   H30437656   6.714   4.406   6.528 -2.1707  0.3199  0.0274
  117MOL   H30537657   6.814   4.378   6.670  1.0326 -1.2941 -2.0235
  117MOL   C30637658   6.635   4.250   6.652 -0.2264  0.0696  0.7820
  117MOL   O30737659   6.683   4.151   6.556 -0.2443 -0.1161 -0.1193
  117MOL   C30837660   6.579   4.081   6.485  0.0761 -0.7046 -0.0995
  117MOL   C30937661   6.520   4.168   6.369 -0.2188  0.7454 -0.7870
  117MOL   C31037662   6.621   4.200   6.261 -0.3140 -0.4626  0.6970
  117MOL   C31137663   6.658   4.201   6.794  0.0912 -0.0523 -0.0375
  117MOL   H31237664   6.532   4.271   6.624  0.5670  2.0992 -0.7542
  117MOL   H31337665   6.625   3.989   6.449 -0.9906 -0.3610 -2.4014
  117MOL   H31437666   6.502   4.047   6.555  0.7854 -1.5953  0.2504
  117MOL   H31537667   6.476   4.257   6.416 -0.4165  1.0473 -1.5461
  117MOL   H31637668   6.429   4.122   6.331 -0.0801 -0.8314  0.7241
  117MOL   H31737669   6.576   4.255   6.179  0.8344 -2.2253 -1.1611
  117MOL   H31837670   6.649   4.103   6.222 -1.8691 -0.7533  0.2801
  117MOL   H31937671   6.712   4.244   6.303 -1.1615  0.4061  1.6679
  117MOL   H32037672   6.764   4.177   6.807 -0.3557 -0.6664  2.5874
  117MOL   H32137673   6.614   4.271   6.864 -2.0607 -0.7276 -0.6800
  117MOL   H32237674   6.615   4.105   6.822  0.6353  0.0046  1.0044
  118MOL     C137675   5.341   7.107   2.373 -0.6187 -0.8300  0.5638
  118MOL     O237676   5.227   7.118   2.278 -0.4283 -0.2039 -0.2370
  118MOL     C337677   5.100   7.079   2.325 -0.1887  0.3839 -0.1093
  118MOL     C437678   5.085   6.923   2.343  0.3627 -0.5457 -0.3547
  118MOL     C537679   5.079   6.847   2.205  0.0317  0.2118 -0.0896
  118MOL     C637680   5.391   7.249   2.413 -0.4544  0.0513 -0.2163
  118MOL     H737681   5.423   7.066   2.315 -0.3582 -0.3127  0.5599
  118MOL     H837682   5.078   7.125   2.421  0.1502 -1.0328  0.6654
  118MOL     H937683   5.031   7.113   2.247  0.5316 -1.6649 -1.6781
  118MOL    H1037684   4.990   6.916   2.397  0.5906  1.3653  0.3345
  118MOL    H1137685   5.147   6.873   2.417 -0.3169 -1.3694 -0.3358
  118MOL    H1237686   4.987   6.879   2.155 -0.5986 -2.1079 -0.4516
  118MOL    H1337687   5.067   6.739   2.205  3.0332 -0.1502 -0.2280
  118MOL    H1437688   5.169   6.864   2.146 -0.1979 -1.0945 -0.8276
  118MOL    H1537689   5.410   7.311   2.325  1.2697  1.0452  0.8224
  118MOL    H1637690   5.319   7.295   2.479 -0.4837 -1.8766  1.1388
  118MOL    H1737691   5.322   7.047   2.462  0.0748 -0.2658  1.1040
  118MOL    C1837692   5.523   7.248   2.490 -0.7745  0.3160 -0.1957
  118MOL    O1937693   5.624   7.192   2.406  0.2831 -0.2933 -0.3833
  118MOL    C2037694   5.737   7.138   2.477 -0.0009  0.2642 -0.1401
  118MOL    C2137695   5.817   7.041   2.385  1.1097 -0.6888  0.4920
  118MOL    C2237696   5.928   6.956   2.444  0.2017  0.3169 -0.2444
  118MOL    C2337697   5.571   7.379   2.541  0.4293 -0.5352 -0.2565
  118MOL    H2437698   5.505   7.178   2.572  0.8675  0.0723 -0.0240
  118MOL    H2537699   5.801   7.220   2.510  1.3305  0.4469 -2.9979
  118MOL    H2637700   5.708   7.104   2.576  1.5251 -1.1952 -0.1750
  118MOL    H2737701   5.873   7.094   2.307  2.3652 -1.7289  0.6726
  118MOL    H2837702   5.732   6.995   2.334 -0.0464  0.2072  1.5828
  118MOL    H2937703   5.987   6.913   2.363 -0.5358  1.9156 -1.6709
  118MOL    H3037704   5.892   6.879   2.511  0.2987  0.1618 -0.3694
  118MOL    H3137705   5.986   7.032   2.496 -1.0256 -0.8170  2.8671
  118MOL    H3237706   5.676   7.373   2.570  0.7642 -0.3779 -1.4137
  118MOL    H3337707   5.557   7.447   2.456  0.2494  1.1576  1.0880
  118MOL    C3437708   5.497   7.444   2.658 -0.9650  0.4205  0.9500
  118MOL    O3537709   5.549   7.381   2.786 -0.0592 -0.7719 -0.1141
  118MOL    C3637710   5.502   7.252   2.820  0.0536 -0.4563  0.0143
  118MOL    C3737711   5.502   7.235   2.976  0.5193 -0.8386  1.0584
  118MOL    C3837712   5.642   7.271   3.026 -0.0446  0.0374  0.3874
  118MOL    C3937713   5.505   7.594   2.652  0.6256  0.0467 -0.5723
  118MOL    H4037714   5.391   7.420   2.642 -1.0437  1.6496 -0.4920
  118MOL    H4137715   5.401   7.232   2.785  0.9280  0.0497 -2.9741
  118MOL    H4237716   5.571   7.173   2.791  0.1534  0.1270 -1.3924
  118MOL    H4337717   5.472   7.132   2.995 -2.8364  0.0172  0.7432
  118MOL    H4437718   5.423   7.298   3.016  0.7491  0.4339 -0.4435
  118MOL    H4537719   5.712   7.339   2.976 -1.0710  0.7908 -0.0377
  118MOL    H4637720   5.691   7.176   3.048 -0.6195 -0.2145  0.5994
  118MOL    H4737721   5.621   7.308   3.127  2.4203  0.1754  0.8904
  118MOL    H4837722   5.606   7.631   2.641  0.8123 -0.4457 -0.5300
  118MOL    H4937723   5.456   7.630   2.562 -0.9448 -1.8058 -0.5002
  118MOL    C5037724   5.443   7.657   2.776 -0.3910  0.1610  0.4310
  118MOL    O5137725   5.454   7.801   2.785  0.1092 -0.0396 -0.4727
  118MOL    C5237726   5.587   0.025   2.824  0.4092  0.6929 -0.1609
  118MOL    C5337727   5.579   0.170   2.863 -0.5189  0.2583  0.6782
  118MOL    C5437728   5.720   0.211   2.915 -0.8819  0.0427  0.0355
  118MOL    C5537729   5.292   7.620   2.801 -0.3401  0.0788  0.1942
  118MOL    H5637730   5.492   7.614   2.863  0.6124 -2.3115 -1.2829
  118MOL    H5737731   5.626   7.792   2.905  1.8224  0.5266 -0.9571
  118MOL    H5837732   5.655   0.017   2.739  0.7983 -0.8050  0.2825
  118MOL    H5937733   5.509   0.192   2.944  0.0653 -1.2505  1.6194
  118MOL    H6037734   5.538   0.230   2.782 -0.5788 -3.2546 -2.0090
  118MOL    H6137735   5.747   0.179   3.016 -1.3830  0.4676  0.3115
  118MOL    H6237736   5.712   0.317   2.941 -0.3572  0.3866 -1.2062
  118MOL    H6337737   5.802   0.195   2.846 -1.3827  0.8721 -0.7711
  118MOL    H6437738   5.287   7.519   2.843  0.8091  0.6276  1.7245
  118MOL    H6537739   5.249   7.682   2.879  1.3439  0.5146  0.7996
  118MOL    C6637740   5.193   7.634   2.680  0.2579 -0.2721 -0.1291
  118MOL    O6737741   5.067   7.592   2.736  0.5810  0.3013  0.0256
  118MOL    C6837742   4.978   7.533   2.632  0.2646 -0.3271 -0.1086
  118MOL    C6937743   5.028   7.387   2.607  0.3895  0.1940  0.2343
  118MOL    C7037744   5.047   7.307   2.742  0.2445  0.6276  0.1592
  118MOL    C7137745   5.180   7.778   2.627  0.0828  0.0556  0.1172
  118MOL    H7237746   5.227   7.572   2.598  2.2489 -0.2582  0.6527
  118MOL    H7337747   4.880   7.531   2.680  0.9322 -2.2360  1.2025
  118MOL    H7437748   4.953   7.589   2.541 -1.0439 -0.5689  0.0831
  118MOL    H7537749   5.113   7.371   2.541 -0.0222  0.0389 -0.2582
  118MOL    H7637750   4.951   7.334   2.551 -0.7915 -1.0404  2.9170
  118MOL    H7737751   5.124   7.355   2.803  0.8518 -0.7069  0.4662
  118MOL    H7837752   5.092   7.209   2.725  1.5921  0.6626  3.2290
  118MOL    H7937753   4.954   7.304   2.799 -0.3416 -1.9742 -0.8635
  118MOL    H8037754   5.267   7.807   2.568 -1.9095  2.9105 -1.4764
  118MOL    H8137755   5.101   7.779   2.553  0.9389  1.3292 -0.7874
  118MOL    C8237756   5.159   0.061   2.733  0.2010  0.0559  0.0738
  118MOL    O8337757   5.144   0.186   2.666 -0.1242  0.3795 -0.2395
  118MOL    C8437758   5.269   0.258   2.628  1.1242 -0.4918  0.0500
  118MOL    C8537759   5.249   0.321   2.487  0.7235 -0.0771 -0.4922
  118MOL    C8637760   5.200   0.227   2.381 -0.3207 -0.7126  0.0615
  118MOL    C8737761   5.025   0.054   2.811  0.1911  0.5044 -0.2502
  118MOL    H8837762   5.233   0.075   2.812  1.1414  1.3224 -1.0074
  118MOL    H8937763   5.285   0.334   2.704 -0.9866 -0.2504  0.2877
  118MOL    H9037764   5.350   0.186   2.635  1.4818 -0.0593  0.3548
  118MOL    H9137765   5.344   0.360   2.453  1.2688  0.3741  1.4712
  118MOL    H9237766   5.173   0.397   2.506 -0.0941 -1.6368  2.9536
  118MOL    H9337767   5.262   0.137   2.385  0.2681 -0.2748  1.0598
  118MOL    H9437768   5.206   0.271   2.282 -0.5224 -2.4773 -0.7505
  118MOL    H9537769   5.097   0.197   2.399 -0.0747 -2.0383 -0.6909
  118MOL    H9637770   4.956   0.021   2.734  0.5698 -1.4521  0.2334
  118MOL    H9737771   5.042   7.800   2.881  0.3833  0.2820 -0.5539
  118MOL    C9837772   4.975   0.173   2.884  0.0578 -0.0434 -0.6098
  118MOL    O9937773   4.858   0.121   2.935 -0.2967 -0.6067 -0.4258
  118MOL   C10037774   4.788   0.223   3.009  0.3058 -0.4253  0.1231
  118MOL   C10137775   4.640   0.176   3.006  0.2580 -0.6178  0.1454
  118MOL   C10237776   4.548   0.261   3.107  0.4971 -0.1697  0.2991
  118MOL   C10337777   5.083   0.227   2.994  0.2671  0.0839  0.9405
  118MOL   H10437778   4.951   0.248   2.809  2.8794 -1.3858 -2.9320
  118MOL   H10537779   4.830   0.215   3.109 -1.2190 -2.4668  0.6132
  118MOL   H10637780   4.796   0.323   2.965 -2.2284 -0.3024 -0.1190
  118MOL   H10737781   4.652   0.074   3.041  1.4690 -0.3544  0.5131
  118MOL   H10837782   4.592   0.161   2.909 -2.6651  0.4016  1.3788
  118MOL   H10937783   4.595   0.266   3.205 -2.6697  2.1290  1.7911
  118MOL   H11037784   4.449   0.224   3.133 -0.1612  1.9656  0.9438
  118MOL   H11137785   4.545   0.364   3.072 -1.6570  0.1352  1.3002
  118MOL   H11237786   5.180   0.229   2.943 -0.0421  0.7645  0.3909
  118MOL   H11337787   5.062   0.333   3.005 -1.2229 -0.3470  2.4331
  118MOL   C11437788   5.096   0.155   3.130 -0.3249  0.0245 -0.4938
  118MOL   O11537789   5.145   0.027   3.109 -0.2771 -0.5586 -0.2508
  118MOL   C11637790   5.068   7.754   3.175  0.1653  0.4458 -0.3378
  118MOL   C11737791   5.150   7.617   3.178 -0.6277 -0.2811 -0.1870
  118MOL   C11837792   5.288   7.637   3.241 -0.2782  0.1790 -0.4046
  118MOL   C11937793   5.194   0.230   3.225  0.2855  0.0555  0.0643
  118MOL   H12037794   5.003   0.163   3.187  0.6673 -0.3921  1.2407
  118MOL   H12137795   5.035   7.791   3.272  2.8538 -1.2384  1.2898
  118MOL   H12237796   4.977   7.744   3.116  0.4873  2.6638 -1.2256
  118MOL   H12337797   5.155   7.586   3.074 -1.8767 -0.0617 -0.3153
  118MOL   H12437798   5.086   7.546   3.230 -0.1867 -1.9063 -1.8475
  118MOL   H12537799   5.280   7.667   3.346 -0.5965  0.1293 -0.4142
  118MOL   H12637800   5.353   7.712   3.197 -1.2436  1.9697  1.1016
  118MOL   H12737801   5.345   7.546   3.222 -0.3140  0.3539 -1.3306
  118MOL   H12837802   5.224   0.162   3.304 -1.6863 -0.1476  0.6649
  118MOL   H12937803   5.291   0.238   3.177 -0.1318  0.1857 -0.7701
  118MOL   C13037804   5.150   0.372   3.274 -0.5170 -0.3104  0.2159
  118MOL   O13137805   5.038   0.340   3.357  0.3114  0.0912 -0.9275
  118MOL   C13237806   4.928   0.426   3.333 -0.6502  0.6757 -0.1455
  118MOL   C13337807   4.809   0.353   3.388 -0.5664 -0.2717  0.0835
  118MOL   C13437808   4.675   0.430   3.393 -0.9641 -0.4707  0.0428
  118MOL   C13537809   5.261   0.443   3.359 -0.4852 -0.2249 -0.3518
  118MOL   H13637810   5.113   0.432   3.191 -0.5697 -0.7330 -0.0694
  118MOL   H13737811   4.942   0.522   3.384  1.7652  0.1183  0.2974
  118MOL   H13837812   4.918   0.452   3.228  0.9993 -1.0134 -0.7504
  118MOL   H13937813   4.831   0.313   3.487 -2.2751 -1.7933 -0.1202
  118MOL   H14037814   4.799   0.259   3.334 -0.3310  0.2783 -0.9227
  118MOL   H14137815   4.641   0.473   3.299 -1.5855 -1.0555 -0.0029
  118MOL   H14237816   4.687   0.521   3.453  1.2977  0.3383 -1.5711
  118MOL   H14337817   4.592   0.368   3.428 -0.2342 -0.6180  1.5444
  118MOL   H14437818   5.216   0.531   3.406  0.1891  0.6175 -1.2676
  118MOL   H14537819   5.285   0.374   3.440 -0.9898 -0.2903 -0.2572
  118MOL   C14637820   5.397   0.470   3.289  1.1870 -0.0050 -0.5751
  118MOL   O14737821   5.373   0.545   3.175  0.3533 -0.6985  0.1791
  118MOL   C14837822   5.426   0.492   3.051  0.2685  0.2027 -0.7880
  118MOL   C14937823   5.394   0.588   2.941 -0.1345  0.6107  0.2385
  118MOL   C15037824   5.247   0.606   2.904  0.1205  0.5125  0.2758
  118MOL   C15137825   5.483   0.557   3.386  0.0461  0.0420  0.2862
  118MOL   H15237826   5.443   0.375   3.263  0.4451 -0.2402 -1.0575
  118MOL   H15337827   5.535   0.489   3.063  0.0727 -1.7832  0.7041
  118MOL   H15437828   5.392   0.389   3.043  1.6124 -0.4665  1.4801
  118MOL   H15537829   5.439   0.553   2.848 -1.2849  0.3679 -0.2434
  118MOL   H15637830   5.439   0.685   2.963  0.8418  0.4146 -0.8191
  118MOL   H15737831   5.236   0.632   2.799  1.4669  0.3787  0.0891
  118MOL   H15837832   5.206   0.696   2.950  1.4282  1.3009 -0.0843
  118MOL   H15937833   5.199   0.509   2.917  1.9726 -0.3787  0.6665
  118MOL   H16037834   5.438   0.655   3.397  2.8470  1.2052  2.0962
  118MOL   H16137835   5.469   0.520   3.488 -0.4970  0.1631  0.2550
  118MOL   C16237836   5.635   0.550   3.368  0.3529  0.6803  0.3010
  118MOL   O16337837   5.668   0.619   3.251 -0.7104  0.2644  0.0582
  118MOL   C16437838   5.779   0.573   3.177 -0.3089 -0.5697 -0.5202
  118MOL   C16537839   5.799   0.668   3.048 -0.0967 -0.0869 -0.4145
  118MOL   C16637840   5.828   0.814   3.077  0.0155 -0.1261 -0.7337
  118MOL   C16737841   5.695   0.621   3.497 -0.3858 -0.0001  0.3251
  118MOL   H16837842   5.668   0.447   3.363  0.0639  0.6334 -0.6323
  118MOL   H16937843   5.866   0.573   3.243 -0.3779  0.8405 -0.4117
  118MOL   H17037844   5.772   0.469   3.145  0.4278 -0.8185  0.1085
  118MOL   H17137845   5.718   0.657   2.976 -0.2601  1.3785 -0.4586
  118MOL   H17237846   5.884   0.632   2.990 -0.3375 -0.3047 -0.6319
  118MOL   H17337847   5.836   0.877   2.988 -2.3497  2.1031  0.5601
  118MOL   H17437848   5.918   0.831   3.137 -1.9170 -2.2227  2.9315
  118MOL   H17537849   5.759   0.869   3.141  2.0025  1.7120 -0.1012
  118MOL   H17637850   5.794   0.662   3.476 -0.0394 -0.5643  0.8534
  118MOL   H17737851   5.624   0.700   3.524 -1.0811 -0.6686  0.4558
  118MOL   C17837852   5.713   0.529   3.614 -0.3844  0.5121 -0.5606
  118MOL   O17937853   5.813   0.438   3.574 -0.3729  0.2836  0.2655
  118MOL   C18037854   5.815   0.310   3.638 -0.7012 -0.1054 -0.4524
  118MOL   C18137855   5.944   0.234   3.602 -0.1570  0.4950  0.2541
  118MOL   C18237856   6.074   0.308   3.630  0.0964  0.0563 -0.7011
  118MOL   C18337857   5.749   0.593   3.753  0.0190  0.2442  0.3943
  118MOL   H18437858   5.621   0.479   3.645 -0.4145  0.5972 -0.5093
  118MOL   H18537859   5.811   0.328   3.745 -1.2313 -1.1352 -0.2955
  118MOL   H18637860   5.735   0.242   3.610 -0.8100  0.0572 -0.5412
  118MOL   H18737861   5.952   0.196   3.500 -0.8065 -0.4271  0.5406
  118MOL   H18837862   5.944   0.153   3.674  0.5600  0.3906  0.1382
  118MOL   H18937863   6.065   0.413   3.600 -1.0715 -0.0120 -0.6353
  118MOL   H19037864   6.155   0.261   3.576  0.9605 -1.1132  1.5514
  118MOL   H19137865   6.081   0.298   3.738 -0.5015 -1.1561 -0.7634
  118MOL   H19237866   5.757   0.509   3.823  1.8229  1.9975  2.3279
  118MOL   H19337867   5.845   0.635   3.725 -0.2645 -0.1834 -1.3268
  118MOL   C19437868   5.639   0.695   3.799  0.3354 -0.2547 -0.2196
  118MOL   O19537869   5.537   0.608   3.844  0.2637 -0.3160  0.0390
  118MOL   C19637870   5.402   0.654   3.824  0.0840  0.4126 -0.1977
  118MOL   C19737871   5.307   0.581   3.909  0.4911 -0.1032 -0.4408
  118MOL   C19837872   5.336   0.585   4.062 -0.0075 -0.3804 -1.5347
  118MOL   C19937873   5.690   0.777   3.917  0.2611 -0.2465  0.2999
  118MOL   H20037874   5.618   0.757   3.712  0.0583 -0.0221  0.0139
  118MOL   H20137875   5.393   0.762   3.837 -2.1504  0.2531 -0.1458
  118MOL   H20237876   5.387   0.653   3.716  1.1280 -0.2949 -0.3359
  118MOL   H20337877   5.319   0.478   3.875 -0.7099 -0.6619  0.7977
  118MOL   H20437878   5.210   0.613   3.872 -0.0274 -0.0953  0.9098
  118MOL   H20537879   5.337   0.680   4.115 -2.9685 -0.6331 -0.8897
  118MOL   H20637880   5.434   0.538   4.072  0.2147  0.1760 -1.0554
  118MOL   H20737881   5.275   0.526   4.131  2.3742  0.9258  1.8453
  118MOL   H20837882   5.606   0.804   3.982 -0.6902  0.3628 -1.1604
  118MOL   H20937883   5.762   0.722   3.977  0.3964 -0.3065  0.0802
  118MOL   C21037884   5.753   0.913   3.878  0.0626 -0.1487 -0.3501
  118MOL   O21137885   5.653   0.991   3.823 -0.4632  0.5446  0.4308
  118MOL   C21237886   5.694   1.062   3.706  0.4342 -0.4372  0.7809
  118MOL   C21337887   5.578   1.118   3.624  0.6052  0.2855 -0.3277
  118MOL   C21437888   5.479   1.001   3.596  0.2055  0.2071  0.1809
  118MOL   C21537889   5.817   0.975   4.013 -0.3420  0.4204  0.2177
  118MOL   H21637890   5.830   0.897   3.802  0.8294  0.0739  0.3815
  118MOL   H21737891   5.755   1.150   3.725  2.2320 -1.6662  0.8150
  118MOL   H21837892   5.751   0.991   3.645 -1.8619 -1.0365 -0.7086
  118MOL   H21937893   5.613   1.166   3.533  1.4887 -3.4415 -2.0120
  118MOL   H22037894   5.526   1.192   3.686  0.4728 -0.9408  1.0517
  118MOL   H22137895   5.543   0.923   3.554 -0.3813 -0.9696  1.4333
  118MOL   H22237896   5.402   1.023   3.522  0.4812  0.8376  0.0808
  118MOL   H22337897   5.437   0.952   3.684 -0.3402 -0.4111 -0.4208
  118MOL   H22437898   5.735   0.978   4.084 -0.5344  0.1296  0.0068
  118MOL   H22537899   5.879   0.898   4.059 -0.9749 -0.5151 -0.4686
  118MOL   C22637900   5.881   1.118   4.018 -0.5387  0.2849  0.1009
  118MOL   O22737901   5.968   1.137   3.903 -0.2712  0.2062 -0.0930
  118MOL   C22837902   6.108   1.144   3.937  0.6769  0.3370  0.1126
  118MOL   C22937903   6.200   1.134   3.822 -0.3432 -0.0928  0.3162
  118MOL   C23037904   6.346   1.112   3.871 -1.1787 -0.2660 -0.5063
  118MOL   C23137905   5.773   1.231   4.017  0.0406  0.6092 -0.1695
  118MOL   H23237906   5.931   1.140   4.112 -1.7957  0.2377  0.7807
  118MOL   H23337907   6.114   1.234   3.999 -1.0424  0.4803  0.1042
  118MOL   H23437908   6.126   1.064   4.009 -1.3623  0.0439  0.3394
  118MOL   H23537909   6.183   1.220   3.757 -1.6295 -0.4210  0.1975
  118MOL   H23637910   6.178   1.044   3.764  0.8155  1.9526 -3.3664
  118MOL   H23737911   6.366   1.192   3.943 -2.0226  0.1736 -0.7477
  118MOL   H23837912   6.420   1.119   3.792  0.9813 -2.2025  1.2788
  118MOL   H23937913   6.361   1.015   3.918  1.7951  0.7314  0.7383
  118MOL   H24037914   5.707   1.205   3.934  1.4438 -1.1028 -0.7783
  118MOL   H24137915   5.706   1.227   4.102  0.0423 -2.4588 -0.2470
  118MOL   C24237916   5.830   1.374   3.996 -0.9054 -0.3908  0.3129
  118MOL   O24337917   5.725   1.462   3.967  0.4959  0.4838  0.3935
  118MOL   C24437918   5.667   1.462   3.838  0.4286  0.3902  0.4433
  118MOL   C24537919   5.752   1.518   3.725  0.4551  0.4626  0.5901
  118MOL   C24637920   5.796   1.660   3.772  0.6224 -0.0849 -0.2036
  118MOL   C24737921   5.887   1.422   4.133  0.5522  0.5499  0.6224
  118MOL   H24837922   5.908   1.373   3.919 -1.1450 -0.7060  0.0734
  118MOL   H24937923   5.651   1.358   3.808  0.6426  0.5213 -0.1283
  118MOL   H25037924   5.569   1.510   3.842 -0.5977 -1.4204 -1.8706
  118MOL   H25137925   5.688   1.506   3.638  0.1285  0.7932  0.7824
  118MOL   H25237926   5.841   1.455   3.723  0.7047  0.6834  3.2314
  118MOL   H25337927   5.840   1.722   3.694  0.8034  1.2242  0.9226
  118MOL   H25437928   5.869   1.663   3.853 -0.3329  1.5678  0.6027
  118MOL   H25537929   5.713   1.717   3.813 -0.3550 -0.9409 -0.9446
  118MOL   H25637930   5.805   1.427   4.204  1.6600 -2.6528  2.2169
  118MOL   H25737931   5.960   1.349   4.167 -0.1968 -1.2445 -1.5386
  118MOL   C25837932   5.961   1.558   4.148  0.2478  0.5186  0.0274
  118MOL   O25937933   6.017   1.570   4.277 -0.0414  0.2320 -0.1902
  118MOL   C26037934   5.929   1.610   4.378  0.2615 -0.4014  0.6069
  118MOL   C26137935   5.995   1.679   4.503 -0.1551  0.1752 -0.2359
  118MOL   C26237936   5.922   1.649   4.633  0.0250 -0.1961 -0.5945
  118MOL   C26337937   6.082   1.571   4.052  0.2776  0.1442 -0.0220
  118MOL   H26437938   5.890   1.639   4.131  0.5163  0.9525  0.9259
  118MOL   H26537939   5.851   1.674   4.337  1.0971 -0.9089 -1.8483
  118MOL   H26637940   5.886   1.519   4.421 -1.3018  0.6848  1.4178
  118MOL   H26737941   5.995   1.787   4.486 -1.6559  0.1200 -0.6589
  118MOL   H26837942   6.101   1.659   4.520  0.0577  1.6127  0.2601
  118MOL   H26937943   5.817   1.679   4.632  0.0227 -0.1116  0.9960
  118MOL   H27037944   5.964   1.704   4.717 -1.0324 -0.2057 -0.0447
  118MOL   H27137945   5.914   1.543   4.659 -0.9760 -0.3163 -1.3370
  118MOL   H27237946   6.153   1.489   4.063 -1.4547 -1.2669  1.0142
  118MOL   H27337947   6.048   1.562   3.948 -2.1533  0.8509  0.6843
  118MOL   C27437948   6.163   1.707   4.057 -0.0515  0.0146 -0.5091
  118MOL   O27537949   6.283   1.693   3.969 -0.2659 -0.8219  0.2529
  118MOL   C27637950   6.398   1.629   4.016  1.0929  0.3472  0.0569
  118MOL   C27737951   6.518   1.650   3.926  0.2807  0.9541  0.0707
  118MOL   C27837952   6.646   1.606   3.990 -0.0490  0.1994  0.2758
  118MOL   C27937953   6.073   1.820   4.001  0.4947  0.7412  0.5078
  118MOL   H28037954   6.205   1.739   4.153 -1.1713  3.3733 -1.0828
  118MOL   H28137955   6.424   1.680   4.109  1.6467 -1.5592  0.9692
  118MOL   H28237956   6.377   1.524   4.038 -2.8157  1.3044  1.4205
  118MOL   H28337957   6.534   1.753   3.895  1.0861  0.3318 -1.6770
  118MOL   H28437958   6.510   1.593   3.834  2.0185  0.3663  0.2578
  118MOL   H28537959   6.727   1.616   3.919 -0.8048  0.4126 -0.5675
  118MOL   H28637960   6.646   1.502   4.023  2.6289 -0.5418 -1.9226
  118MOL   H28737961   6.670   1.659   4.082 -1.5643  1.6843 -0.1503
  118MOL   H28837962   6.095   1.834   3.896  2.6779 -3.6404  0.3049
  118MOL   H28937963   5.969   1.790   4.011  0.6979 -0.1341 -0.0148
  118MOL   C29037964   6.083   1.958   4.082 -0.0901 -0.8671 -0.6547
  118MOL   O29137965   6.004   2.049   4.005 -1.1036 -0.3708  0.0442
  118MOL   C29237966   6.082   2.135   3.928  0.3474 -0.3297 -0.6025
  118MOL   C29337967   5.990   2.229   3.850 -0.0835  0.3230  0.0928
  118MOL   C29437968   5.883   2.142   3.772 -0.4961 -0.3271  0.4022
  118MOL   C29537969   6.017   1.945   4.217  0.4684  0.4752 -0.2771
  118MOL   H29637970   6.187   1.990   4.084 -0.5502  0.8220 -2.0427
  118MOL   H29737971   6.150   2.197   3.987 -0.0439  1.8113 -2.3416
  118MOL   H29837972   6.138   2.077   3.855  0.4901  0.2439 -0.9512
  118MOL   H29937973   6.057   2.273   3.776 -0.3019 -1.4101 -1.1868
  118MOL   H30037974   5.944   2.307   3.910  0.6244 -0.3025  1.4554
  118MOL   H30137975   5.833   2.068   3.835  0.2830  0.5397  2.0727
  118MOL   H30237976   5.919   2.092   3.682  0.5459  0.0087  0.6247
  118MOL   H30337977   5.807   2.214   3.741  1.1972  1.9328  1.2713
  118MOL   H30437978   5.914   1.910   4.222  0.5243  0.5291  1.5393
  118MOL   H30537979   6.062   1.864   4.274 -1.1750 -1.0061 -1.0403
  118MOL   C30637980   6.020   2.072   4.307 -0.4351 -0.1843 -0.2502
  118MOL   O30737981   5.932   2.028   4.417 -0.0250 -0.2660  0.5410
  118MOL   C30837982   5.868   2.136   4.484  0.2406  0.1511 -0.3955
  118MOL   C30937983   5.753   2.082   4.574  0.2696 -0.2570 -0.6069
  118MOL   C31037984   5.671   2.190   4.635  0.0105 -0.0570 -0.4699
  118MOL   C31137985   6.148   2.112   4.374  0.2302 -0.8909 -0.4481
  118MOL   H31237986   5.977   2.162   4.263  0.1924  2.1906  3.7200
  118MOL   H31337987   5.935   2.197   4.545 -0.8274  2.5215 -1.5267
  118MOL   H31437988   5.824   2.205   4.412  1.7578  1.9329  0.3233
  118MOL   H31537989   5.805   2.029   4.653 -0.3114 -2.1533 -1.4706
  118MOL   H31637990   5.694   2.007   4.522  0.4780 -0.4193 -0.6115
  118MOL   H31737991   5.632   2.265   4.566 -0.4535  0.6552  0.5501
  118MOL   H31837992   5.726   2.252   4.706  0.3281 -0.9667  0.0763
  118MOL   H31937993   5.582   2.158   4.691  0.4968 -0.0504  0.3210
  118MOL   H32037994   6.124   2.201   4.433  0.5895  0.6856 -2.6115
  118MOL   H32137995   6.179   2.026   4.432 -0.6377 -2.5541 -2.3984
  118MOL   H32237996   6.229   2.147   4.311  0.5040 -0.2392  0.2575
  119MOL     C137997   5.178   4.108   2.890  0.2765 -0.3602  0.4183
  119MOL     O237998   5.181   4.242   2.923  0.1468  0.0630 -0.3187
  119MOL     C337999   5.086   4.314   2.851 -0.3230 -0.4514 -0.2940
  119MOL     C438000   5.093   4.454   2.903 -0.3960 -0.1248  0.5583
  119MOL     C538001   5.197   4.541   2.826 -0.4312 -0.2048  0.4787
  119MOL     C638002   5.315   4.053   2.928 -0.5822  0.8411  0.4931
  119MOL     H738003   5.161   4.098   2.783 -0.0625 -2.8143  0.6778
  119MOL     H838004   5.092   4.305   2.742  1.1757 -0.6770 -0.2046
  119MOL     H938005   4.986   4.277   2.876 -0.9885  1.0499 -0.6606
  119MOL    H1038006   5.113   4.450   3.010  0.6328  3.6706  0.5568
  119MOL    H1138007   4.994   4.499   2.893 -0.6583 -0.6085  0.9480
  119MOL    H1238008   5.183   4.535   2.718 -1.1381 -2.1193  0.6453
  119MOL    H1338009   5.293   4.501   2.858  0.4700  0.7984 -0.9390
  119MOL    H1438010   5.194   4.644   2.861 -3.4662 -0.2897  0.6548
  119MOL    H1538011   5.398   4.107   2.883 -0.2457 -0.7485 -0.8256
  119MOL    H1638012   5.329   4.074   3.034 -0.5087  0.0667  0.6391
  119MOL    H1738013   5.100   4.057   2.944 -0.6270  1.6919  1.1191
  119MOL    C1838014   5.335   3.901   2.893 -0.1807  0.9358 -0.0180
  119MOL    O1938015   5.324   3.891   2.752 -0.3298 -0.1678 -0.0463
  119MOL    C2038016   5.243   3.793   2.690  0.6337  0.2948  0.3721
  119MOL    C2138017   5.255   3.801   2.535  0.0592  0.5472  0.4046
  119MOL    C2238018   5.223   3.939   2.471 -0.8480  0.7584 -0.5754
  119MOL    C2338019   5.466   3.837   2.939  0.1797 -0.1461  0.4738
  119MOL    H2438020   5.258   3.850   2.951 -0.5034  1.1426 -0.2597
  119MOL    H2538021   5.273   3.694   2.723  2.6441  0.4737 -0.8424
  119MOL    H2638022   5.141   3.819   2.718  0.9539  0.0160  1.8300
  119MOL    H2738023   5.185   3.740   2.478  0.8288  1.8713 -2.0575
  119MOL    H2838024   5.349   3.764   2.493 -0.0643  1.1555 -0.4283
  119MOL    H2938025   5.175   3.920   2.375 -0.9848  1.7588 -0.7091
  119MOL    H3038026   5.313   4.000   2.460 -0.9420  0.9073 -0.5158
  119MOL    H3138027   5.153   3.999   2.529 -0.7996  0.2786 -0.0196
  119MOL    H3238028   5.479   3.736   2.902 -2.2212 -0.9176  1.6146
  119MOL    H3338029   5.538   3.892   2.878  0.7782 -0.1010  1.2193
  119MOL    C3438030   5.498   3.834   3.083  0.0070  0.2208 -0.5295
  119MOL    O3538031   5.406   3.761   3.159 -0.2491 -0.8346  0.3074
  119MOL    C3638032   5.423   3.778   3.297 -0.2236  0.3804  0.1761
  119MOL    C3738033   5.288   3.732   3.356 -0.2428  0.2705  0.8685
  119MOL    C3838034   5.179   3.841   3.363  0.2113  0.3032 -0.2567
  119MOL    C3938035   5.646   3.782   3.100 -0.2886  0.6180 -0.0063
  119MOL    H4038036   5.502   3.933   3.130 -1.2995  0.1007 -0.1409
  119MOL    H4138037   5.517   3.732   3.327 -0.3172 -1.8802 -2.6941
  119MOL    H4238038   5.436   3.882   3.329 -0.3615  0.5944 -0.4502
  119MOL    H4338039   5.318   3.686   3.450 -0.1511  0.0186  0.7173
  119MOL    H4438040   5.259   3.638   3.308 -1.2595  0.3867  1.2561
  119MOL    H4538041   5.222   3.940   3.375 -0.3778  0.5856 -0.4961
  119MOL    H4638042   5.128   3.834   3.459  3.0672 -2.1050  1.1661
  119MOL    H4738043   5.113   3.837   3.276 -2.2237 -1.3118  1.5816
  119MOL    H4838044   5.664   3.729   3.193  0.3300  0.1612 -0.3780
  119MOL    H4938045   5.663   3.700   3.029 -0.5358  1.8894 -1.5761
  119MOL    C5038046   5.753   3.886   3.055  0.3814 -0.0492  0.4656
  119MOL    O5138047   5.762   3.994   3.146  0.1962 -0.1936  0.0064
  119MOL    C5238048   5.723   4.113   3.094  0.8063  1.3504 -0.1115
  119MOL    C5338049   5.704   4.214   3.202 -0.4670  0.0364 -0.6807
  119MOL    C5438050   5.591   4.176   3.299 -0.7700 -0.6103  0.2030
  119MOL    C5538051   5.894   3.822   3.061 -0.2034  0.5388 -0.2320
  119MOL    H5638052   5.732   3.919   2.953  0.9284 -0.8988  0.0747
  119MOL    H5738053   5.806   4.142   3.030 -0.7018  3.5197 -1.1367
  119MOL    H5838054   5.633   4.105   3.033  0.8564  0.4441 -0.0772
  119MOL    H5938055   5.697   4.311   3.154  0.7019  0.9860  1.0615
  119MOL    H6038056   5.790   4.214   3.268 -0.2201  1.0346 -1.0060
  119MOL    H6138057   5.496   4.183   3.246 -1.2948 -0.5822  1.1321
  119MOL    H6238058   5.573   4.226   3.394  2.1870  1.6433 -0.3399
  119MOL    H6338059   5.611   4.075   3.333  1.4521 -0.3932 -0.3898
  119MOL    H6438060   5.890   3.775   3.159 -2.6036  0.7642 -0.1812
  119MOL    H6538061   5.890   3.739   2.992  1.3770  0.2167  0.0567
  119MOL    C6638062   6.024   3.904   3.025  0.1813 -0.3948  0.0478
  119MOL    O6738063   6.138   3.816   3.041  0.8092  0.6351 -0.0169
  119MOL    C6838064   6.171   3.800   3.177 -0.4302 -0.2491  0.2888
  119MOL    C6938065   6.314   3.744   3.205 -0.5374  0.5222 -0.3274
  119MOL    C7038066   6.350   3.608   3.136  1.0468  0.1011  0.1545
  119MOL    C7138067   6.027   3.955   2.877  0.5256 -0.2387  0.7475
  119MOL    H7238068   6.026   3.985   3.097 -0.0855 -0.4371  0.1027
  119MOL    H7338069   6.162   3.886   3.245  1.6355  1.4930 -1.5626
  119MOL    H7438070   6.098   3.728   3.214 -1.5428  0.5491 -0.3442
  119MOL    H7538071   6.323   3.729   3.313 -0.9133  1.1951 -0.1965
  119MOL    H7638072   6.389   3.822   3.193  1.4486 -0.9994  1.7890
  119MOL    H7738073   6.355   3.615   3.027 -0.9698  1.1149  0.0969
  119MOL    H7838074   6.275   3.532   3.159  0.8526 -0.4962 -2.3206
  119MOL    H7938075   6.446   3.569   3.168 -1.1437 -4.1511  1.9026
  119MOL    H8038076   5.993   3.877   2.808 -1.9399  2.0215 -0.6738
  119MOL    H8138077   5.953   4.034   2.865 -0.0317 -1.0186 -1.1445
  119MOL    C8238078   6.164   4.025   2.829 -0.8274 -0.5822  0.5736
  119MOL    O8338079   6.228   3.949   2.724 -0.5870 -0.0449 -0.0997
  119MOL    C8438080   6.297   3.829   2.764 -0.0127 -0.7727 -0.6108
  119MOL    C8538081   6.395   3.807   2.652 -0.3958 -0.6709 -0.7279
  119MOL    C8638082   6.513   3.913   2.661  0.4478 -0.2487 -0.5132
  119MOL    C8738083   6.160   4.167   2.772  0.7306  0.0376 -0.2650
  119MOL    H8838084   6.222   4.034   2.921 -2.0093  1.2860  1.1686
  119MOL    H8938085   6.347   3.837   2.860  1.8897 -0.5713 -1.5849
  119MOL    H9038086   6.234   3.740   2.773 -0.8097 -0.1452  0.1182
  119MOL    H9138087   6.363   3.815   2.548  1.2782  0.0642 -1.1972
  119MOL    H9238088   6.432   3.704   2.661 -1.3977 -1.1428 -1.8083
  119MOL    H9338089   6.557   3.910   2.562  0.8770 -2.9741 -0.2728
  119MOL    H9438090   6.583   3.890   2.742  0.8047  1.9062 -0.1700
  119MOL    H9538091   6.469   4.012   2.669  2.2642  0.5530 -0.1579
  119MOL    H9638092   6.123   4.245   2.839  0.6179  0.1320 -0.4363
  119MOL    H9738093   6.265   4.192   2.754  0.3579  0.6853 -1.6097
  119MOL    C9838094   6.093   4.198   2.638  0.2807  0.1154 -0.2919
  119MOL    O9938095   5.949   4.172   2.652  0.4573 -0.1490 -0.0510
  119MOL   C10038096   5.908   4.052   2.587  0.2230  0.4043 -0.2065
  119MOL   C10138097   5.758   4.003   2.626 -0.2374  0.1992  0.2194
  119MOL   C10238098   5.654   4.061   2.535 -0.1080 -0.6314 -0.5249
  119MOL   C10338099   6.097   4.350   2.593 -0.9335  0.8062  0.1045
  119MOL   H10438100   6.138   4.128   2.568 -1.0260  0.3568 -1.4019
  119MOL   H10538101   5.914   4.064   2.479 -4.5636  0.2446 -0.5984
  119MOL   H10638102   5.977   3.972   2.614  2.5594  1.4662 -2.7425
  119MOL   H10738103   5.734   4.048   2.723  4.8533  1.0730  1.2100
  119MOL   H10838104   5.749   3.894   2.637 -2.4069  0.5040  1.9868
  119MOL   H10938105   5.673   4.035   2.431  0.7356  1.7563 -0.9821
  119MOL   H11038106   5.657   4.169   2.540 -3.2930 -0.4636 -0.7180
  119MOL   H11138107   5.549   4.034   2.552 -0.1271  0.6874  1.5987
  119MOL   H11238108   6.033   4.400   2.665 -2.0127 -1.7176  0.9213
  119MOL   H11338109   6.199   4.382   2.615 -0.7127 -1.0447  1.8830
  119MOL   C11438110   6.066   4.386   2.440 -0.8503 -0.6650  0.2956
  119MOL   O11538111   6.167   4.333   2.351 -0.1786 -0.0775  0.8533
  119MOL   C11638112   6.237   4.438   2.287 -0.3575  0.7924  0.5626
  119MOL   C11738113   6.340   4.378   2.190  0.6862 -0.3355  0.7892
  119MOL   C11838114   6.273   4.290   2.077  0.2963 -0.4378 -0.2457
  119MOL   C11938115   5.934   4.338   2.379  0.1376  0.7316 -0.4466
  119MOL   H12038116   6.063   4.495   2.440  0.7753 -0.6065 -0.7517
  119MOL   H12138117   6.166   4.496   2.228 -1.0720  1.8323  2.4038
  119MOL   H12238118   6.290   4.498   2.362 -0.6071  0.2072  1.2188
  119MOL   H12338119   6.423   4.327   2.239  0.0840 -0.9838  1.1453
  119MOL   H12438120   6.396   4.458   2.143 -0.6261  0.1577  0.0458
  119MOL   H12538121   6.206   4.216   2.120 -0.0112 -0.0510 -0.0590
  119MOL   H12638122   6.347   4.234   2.020  0.4916  1.4519 -1.9153
  119MOL   H12738123   6.212   4.349   2.008 -2.0570 -2.2087  0.2643
  119MOL   H12838124   5.957   4.236   2.347 -1.8567  0.0253  0.2404
  119MOL   H12938125   5.863   4.328   2.462  0.2993 -1.0813 -0.5042
  119MOL   C13038126   5.868   4.423   2.259  0.2031  0.5097 -0.3448
  119MOL   O13138127   5.818   4.333   2.160  0.9368 -0.0391  0.1958
  119MOL   C13238128   5.784   4.380   2.029  0.0260  0.7041  0.0852
  119MOL   C13338129   5.630   4.386   2.047 -0.4699  0.0575 -0.0256
  119MOL   C13438130   5.572   4.246   2.068  0.3832 -0.4366  0.6258
  119MOL   C13538131   5.767   4.539   2.311  0.1345 -0.3430  0.4223
  119MOL   H13638132   5.951   4.472   2.208  1.0882 -1.2154 -0.6090
  119MOL   H13738133   5.842   4.462   1.987  0.6328  1.1057  1.6602
  119MOL   H13838134   5.813   4.294   1.970 -0.6780 -0.3870  1.2901
  119MOL   H13938135   5.575   4.437   1.968 -1.3619  0.9234  1.1135
  119MOL   H14038136   5.598   4.440   2.137 -3.3748 -0.1860 -0.8563
  119MOL   H14138137   5.631   4.200   2.148  0.5648 -1.3490 -0.0133
  119MOL   H14238138   5.584   4.188   1.976 -0.5794  0.4622 -0.0703
  119MOL   H14338139   5.469   4.239   2.102 -0.2057  0.6028 -0.8857
  119MOL   H14438140   5.711   4.578   2.226  0.4456  0.3263  0.5261
  119MOL   H14538141   5.694   4.482   2.368 -0.5550  2.2001  2.1459
  119MOL   C14638142   5.810   4.655   2.403 -0.6043  0.0657  0.2119
  119MOL   O14738143   5.918   4.729   2.345  0.1580 -0.4401 -0.5649
  119MOL   C14838144   5.898   4.818   2.242  0.2624  0.6563 -1.5377
  119MOL   C14938145   6.027   4.838   2.160  0.1992  0.0684 -0.1921
  119MOL   C15038146   6.153   4.870   2.246 -0.9853  0.3302 -0.4319
  119MOL   C15138147   5.690   4.747   2.443  0.5067 -0.1603 -0.4529
  119MOL   H15238148   5.842   4.604   2.494 -1.2408 -1.4399 -0.3786
  119MOL   H15338149   5.820   4.778   2.178 -0.2047 -0.3413 -0.3662
  119MOL   H15438150   5.861   4.908   2.290 -1.3291 -0.7370 -0.0864
  119MOL   H15538151   6.009   4.916   2.086 -0.0815 -0.4127 -0.6352
  119MOL   H15638152   6.039   4.742   2.110  1.2348  0.6506 -1.0725
  119MOL   H15738153   6.139   4.971   2.284 -0.9998 -0.5121  1.9049
  119MOL   H15838154   6.233   4.864   2.172 -0.6591  0.2399 -0.0758
  119MOL   H15938155   6.167   4.802   2.330  0.2329  0.0653 -0.8396
  119MOL   H16038156   5.739   4.836   2.483  3.4857 -1.7635 -0.3432
  119MOL   H16138157   5.639   4.768   2.349 -1.2656  0.5120  0.6403
  119MOL   C16238158   5.602   4.672   2.549 -0.0706 -0.3447 -0.5001
  119MOL   O16338159   5.686   4.677   2.665 -0.0659  0.2637 -0.1953
  119MOL   C16438160   5.662   4.580   2.760  0.1352  0.3838  0.3190
  119MOL   C16538161   5.761   4.463   2.732  0.1824 -0.0753  0.2870
  119MOL   C16638162   5.775   4.362   2.846 -0.0108 -0.1249 -0.0838
  119MOL   C16738163   5.466   4.739   2.577  0.4616 -0.4004 -0.1446
  119MOL   H16838164   5.599   4.566   2.522  0.1719 -0.8035  1.2149
  119MOL   H16938165   5.684   4.618   2.860 -1.1314  1.2647  0.2755
  119MOL   H17038166   5.555   4.557   2.764 -0.1247  1.1257 -1.5714
  119MOL   H17138167   5.860   4.506   2.722 -0.0404  0.5853  0.9552
  119MOL   H17238168   5.732   4.405   2.644 -0.2600 -0.8374  0.9297
  119MOL   H17338169   5.683   4.304   2.854  0.7529 -1.2084  1.2393
  119MOL   H17438170   5.801   4.426   2.930 -0.4894  0.8577 -0.6834
  119MOL   H17538171   5.853   4.292   2.816  0.1085  0.7714 -1.9250
  119MOL   H17638172   5.420   4.697   2.666  1.1106 -1.1623 -0.1645
  119MOL   H17738173   5.479   4.847   2.592 -0.8959 -0.1923 -0.3771
  119MOL   C17838174   5.365   4.728   2.456  0.7054 -0.8337 -0.1180
  119MOL   O17938175   5.345   4.586   2.438 -0.0778 -0.1098 -0.0987
  119MOL   C18038176   5.326   4.546   2.302  0.3542 -0.2428  0.0236
  119MOL   C18138177   5.297   4.393   2.287 -0.3740  0.3727 -1.0633
  119MOL   C18238178   5.406   4.304   2.357 -0.0596  0.1525  0.4426
  119MOL   C18338179   5.228   4.790   2.482  0.3836 -0.0268  0.1997
  119MOL   H18438180   5.414   4.776   2.371  1.3615 -0.2056  0.6045
  119MOL   H18538181   5.257   4.620   2.260  3.7103  3.6632  1.0853
  119MOL   H18638182   5.419   4.571   2.253  0.5150 -2.7015 -0.9660
  119MOL   H18738183   5.287   4.362   2.183  0.4882 -2.8179 -0.2787
  119MOL   H18838184   5.200   4.376   2.333 -0.1563 -0.8103 -1.0076
  119MOL   H18938185   5.408   4.323   2.464  0.2204 -0.2438  0.5038
  119MOL   H19038186   5.508   4.334   2.335 -1.4371  3.5231 -1.8006
  119MOL   H19138187   5.403   4.198   2.333  0.4019  0.4746 -1.1269
  119MOL   H19238188   5.172   4.776   2.389  0.8794  0.3209 -0.1519
  119MOL   H19338189   5.196   4.730   2.567  1.9651 -2.2701 -0.7437
  119MOL   C19438190   5.232   4.942   2.522 -0.5071  0.3949  0.4326
  119MOL   O19538191   5.312   5.014   2.426 -0.6651 -0.0728  0.8599
  119MOL   C19638192   5.357   5.141   2.465 -0.2960  0.1737  0.0505
  119MOL   C19738193   5.453   5.183   2.345  0.6532  0.6132  0.1292
  119MOL   C19838194   5.551   5.080   2.291 -1.1392 -1.1057 -0.4247
  119MOL   C19938195   5.081   5.002   2.518 -0.3438 -1.0293 -0.1911
  119MOL   H20038196   5.278   4.955   2.620 -0.9237 -1.0391  0.8261
  119MOL   H20138197   5.273   5.211   2.474 -0.8204 -0.5199  0.6125
  119MOL   H20238198   5.403   5.139   2.564  2.2984  0.7597 -1.1105
  119MOL   H20338199   5.519   5.263   2.376 -0.8533  3.5149 -3.7088
  119MOL   H20438200   5.389   5.219   2.264 -1.0484 -2.2382  0.1101
  119MOL   H20538201   5.617   5.066   2.376 -0.4286  1.4624 -0.5229
  119MOL   H20638202   5.616   5.114   2.210 -1.2639  0.1427  0.0014
  119MOL   H20738203   5.493   4.992   2.260 -0.6962 -1.2551 -0.8495
  119MOL   H20838204   5.074   5.110   2.513  1.5767 -0.9017 -0.6679
  119MOL   H20938205   5.037   4.978   2.421 -0.4641  1.2503 -0.7131
  119MOL   C21038206   4.991   4.945   2.625 -0.0947 -0.4385  0.0845
  119MOL   O21138207   5.021   4.983   2.762  0.2132  0.3498  0.2049
  119MOL   C21238208   5.032   5.125   2.796  0.2236  0.7705  0.2742
  119MOL   C21338209   5.073   5.135   2.936  0.4204 -0.4335  0.2114
  119MOL   C21438210   5.083   5.281   2.981  0.7160  0.7011 -0.3901
  119MOL   C21538211   4.843   4.983   2.604  0.0417  0.2709 -0.0445
  119MOL   H21638212   4.996   4.837   2.618  0.9959 -0.4752  1.1360
  119MOL   H21738213   5.100   5.184   2.734  0.1558  1.4195  0.8079
  119MOL   H21838214   4.931   5.165   2.786  0.2726  0.6307 -0.8099
  119MOL   H21938215   5.162   5.074   2.943 -0.7625 -2.1043  1.0112
  119MOL   H22038216   4.987   5.093   2.989  0.2511 -0.8554 -0.3999
  119MOL   H22138217   5.085   5.293   3.089  0.8324  1.4738 -0.4741
  119MOL   H22238218   5.010   5.349   2.937  0.0438  0.1435 -0.1250
  119MOL   H22338219   5.179   5.315   2.940  1.0926 -0.4074 -0.4339
  119MOL   H22438220   4.792   4.985   2.700 -1.0897  2.5913 -0.6443
  119MOL   H22538221   4.830   5.087   2.575  0.4196  0.4529  0.4145
  119MOL   C22638222   4.760   4.884   2.510 -0.2813  0.4088  0.7102
  119MOL   O22738223   4.825   4.894   2.385 -0.1741  0.1612  0.0700
  119MOL   C22838224   4.739   4.930   2.282  0.1090 -0.0344 -0.6568
  119MOL   C22938225   4.815   4.954   2.148 -0.7114  0.2286 -0.4323
  119MOL   C23038226   4.865   4.825   2.082  0.0642 -0.0257 -0.6401
  119MOL   C23138227   4.742   4.737   2.552 -0.0405  0.0848 -0.0049
  119MOL   H23238228   4.660   4.927   2.502  0.3460  1.5938 -0.9476
  119MOL   H23338229   4.654   4.866   2.260 -0.4739  0.3800  0.3529
  119MOL   H23438230   4.694   5.026   2.307  0.7223  0.1273 -0.1556
  119MOL   H23538231   4.905   5.015   2.159 -1.2326  1.8044 -4.3251
  119MOL   H23638232   4.746   5.010   2.085 -0.5638 -2.2078 -2.8672
  119MOL   H23738233   4.786   4.751   2.069 -1.3406  1.5537 -1.3353
  119MOL   H23838234   4.952   4.793   2.139 -0.4790 -0.1695  0.1159
  119MOL   H23938235   4.905   4.855   1.985  0.2559  1.0410 -0.2383
  119MOL   H24038236   4.707   4.674   2.470  0.6999  2.6179 -2.3312
  119MOL   H24138237   4.841   4.694   2.559  0.7892  1.9170 -0.1992
  119MOL   C24238238   4.656   4.714   2.680 -0.8868 -0.6387  0.1598
  119MOL   O24338239   4.521   4.747   2.651  0.0827 -0.2766 -0.8884
  119MOL   C24438240   4.457   4.827   2.751  0.2480  0.3393 -0.3354
  119MOL   C24538241   4.300   4.821   2.734  0.1687  0.3041 -0.6497
  119MOL   C24638242   4.244   4.684   2.772  0.2068 -0.7622  0.4379
  119MOL   C24738243   4.659   4.566   2.727 -0.1518  0.1947 -0.0275
  119MOL   H24838244   4.686   4.776   2.764  0.9361  0.9416 -1.6302
  119MOL   H24938245   4.478   4.799   2.854  0.8724 -0.6049 -0.7130
  119MOL   H25038246   4.473   4.935   2.746 -0.6612  0.4555 -1.1014
  119MOL   H25138247   4.277   4.854   2.633  2.4382  0.6866 -1.0665
  119MOL   H25238248   4.243   4.888   2.799 -0.8423 -1.4924  0.3502
  119MOL   H25338249   4.297   4.647   2.859 -0.7471  0.7802  1.7071
  119MOL   H25438250   4.251   4.608   2.694 -0.3570 -0.8112  0.4343
  119MOL   H25538251   4.139   4.702   2.798  0.2168  1.9860 -1.2523
  119MOL   H25638252   4.760   4.545   2.762 -0.8968 -1.7784  0.9706
  119MOL   H25738253   4.588   4.565   2.810  1.5371 -0.6156  1.4328
  119MOL   C25838254   4.621   4.454   2.625 -0.0157  0.0275  0.4529
  119MOL   O25938255   4.732   4.435   2.539  0.4323  0.0210  0.0335
  119MOL   C26038256   4.718   4.353   2.427  0.7584  0.2670  0.6064
  119MOL   C26138257   4.843   4.371   2.343  0.2645  0.0882 -0.0119
  119MOL   C26238258   4.840   4.289   2.213 -0.5440  0.4361 -0.4543
  119MOL   C26338259   4.586   4.324   2.705  0.1891 -0.0996  0.2438
  119MOL   H26438260   4.533   4.489   2.570  1.3014  0.8796 -1.1534
  119MOL   H26538261   4.714   4.247   2.452  1.9750  0.0509 -0.0885
  119MOL   H26638262   4.622   4.375   2.379  0.7785  0.0092  0.4497
  119MOL   H26738263   4.926   4.343   2.407 -0.2224  0.2811  0.7187
  119MOL   H26838264   4.864   4.475   2.320 -1.4651  0.8864  1.8586
  119MOL   H26938265   4.924   4.305   2.146 -1.0648  4.5557 -0.2400
  119MOL   H27038266   4.749   4.299   2.154 -1.3597 -2.4327  0.2189
  119MOL   H27138267   4.834   4.183   2.238 -0.1063  0.6566  0.6053
  119MOL   H27238268   4.603   4.242   2.635  2.5122 -0.8019  1.5476
  119MOL   H27338269   4.663   4.314   2.782  0.8976  2.4798 -0.0857
  119MOL   C27438270   4.447   4.307   2.772 -0.1943  0.4143 -0.3033
  119MOL   O27538271   4.346   4.300   2.666  0.4723 -0.0396  0.2331
  119MOL   C27638272   4.211   4.325   2.686 -0.0429 -0.4025 -0.7548
  119MOL   C27738273   4.117   4.218   2.627 -0.4152 -0.2288  0.6918
  119MOL   C27838274   4.127   4.087   2.700 -0.0310  0.4120 -0.3480
  119MOL   C27938275   4.436   4.183   2.860  0.4060 -0.5691 -0.4478
  119MOL   H28038276   4.428   4.401   2.824  0.4240  0.8812 -0.9055
  119MOL   H28138277   4.200   4.361   2.788  1.1227  0.6825 -1.0001
  119MOL   H28238278   4.191   4.423   2.641  0.4793 -0.8301 -1.9659
  119MOL   H28338279   4.135   4.211   2.520  0.3141  1.5558  0.6826
  119MOL   H28438280   4.014   4.253   2.637 -1.1006 -1.8611 -0.4825
  119MOL   H28538281   4.036   4.035   2.671 -0.6017  1.3306 -0.2155
  119MOL   H28638282   4.138   4.090   2.809 -0.2528  0.2149 -0.3183
  119MOL   H28738283   4.219   4.040   2.667  0.1115  0.1389  0.4298
  119MOL   H28838284   4.333   4.181   2.895 -0.4602  3.0347 -2.5013
  119MOL   H28938285   4.463   4.099   2.796  0.0888  1.3145 -3.1230
  119MOL   C29038286   4.526   4.173   2.994 -0.0126 -0.2186 -0.0349
  119MOL   O29138287   4.533   4.308   3.044 -0.4066  0.8240 -0.1191
  119MOL   C29238288   4.643   4.344   3.129 -0.0125 -0.4769  0.0738
  119MOL   C29338289   4.615   4.468   3.220 -0.1142 -0.1369 -0.0513
  119MOL   C29438290   4.703   4.469   3.339 -0.3070  0.3961  0.0186
  119MOL   C29538291   4.475   4.072   3.097 -0.3795 -0.3477 -0.0915
  119MOL   H29638292   4.627   4.143   2.969  0.1779  0.4363 -0.0761
  119MOL   H29738293   4.678   4.261   3.190 -0.0348 -0.3113  0.3142
  119MOL   H29838294   4.725   4.371   3.062  1.4017 -0.3644  1.8076
  119MOL   H29938295   4.512   4.453   3.252 -0.4285  1.3895 -0.3118
  119MOL   H30038296   4.613   4.561   3.164  0.6079 -0.3739 -0.4752
  119MOL   H30138297   4.682   4.379   3.397 -2.3069 -0.6810 -2.2852
  119MOL   H30238298   4.684   4.550   3.410  1.5321 -1.3469  2.5875
  119MOL   H30338299   4.808   4.478   3.312 -0.9409  0.7616 -2.4378
  119MOL   H30438300   4.512   4.104   3.194  1.6457 -0.2605 -0.8589
  119MOL   H30538301   4.367   4.077   3.108 -0.1677 -1.9717  3.2289
  119MOL   C30638302   4.497   3.922   3.067 -0.4743 -0.5005 -0.1803
  119MOL   O30738303   4.633   3.901   3.090 -0.3280 -0.2343  0.5500
  119MOL   C30838304   4.685   3.817   2.982 -0.1097 -0.0580 -0.4121
  119MOL   C30938305   4.836   3.832   3.006  0.0193 -0.1718  0.4154
  119MOL   C31038306   4.925   3.713   2.948  0.0658 -0.4148  0.3637
  119MOL   C31138307   4.424   3.837   3.169  0.1860 -0.9985  0.4555
  119MOL   H31238308   4.463   3.901   2.966  0.3409 -0.2830 -0.5098
  119MOL   H31338309   4.651   3.713   2.985  0.1684 -0.1097  3.3422
  119MOL   H31438310   4.664   3.853   2.882 -2.5537 -1.8407 -0.5957
  119MOL   H31538311   4.842   3.835   3.115 -2.8066  1.5335  0.5837
  119MOL   H31638312   4.866   3.930   2.968 -0.0700  0.5662  2.2030
  119MOL   H31738313   5.032   3.728   2.963 -0.0962  0.5280  0.6438
  119MOL   H31838314   4.905   3.715   2.841 -1.1134 -0.0467  0.5925
  119MOL   H31938315   4.894   3.617   2.989 -1.5198  0.0166  0.1883
  119MOL   H32038316   4.318   3.863   3.167  0.4176 -0.0545  0.0254
  119MOL   H32138317   4.431   3.731   3.147  1.2949 -0.6804 -0.7912
  119MOL   H32238318   4.469   3.869   3.263 -1.3190  1.2906  0.4341
  120MOL     C138319   1.280   0.501   6.288  0.1856 -0.7636  0.0155
  120MOL     O238320   1.220   0.448   6.402 -0.4455  0.0255 -0.6475
  120MOL     C338321   1.105   0.376   6.365 -0.4315 -0.3524  0.1370
  120MOL     C438322   1.050   0.306   6.492  0.4466  0.1037  0.4420
  120MOL     C538323   1.132   0.187   6.546 -0.7359 -0.3774  0.5754
  120MOL     C638324   1.386   0.601   6.333  0.3986 -0.3983  0.5964
  120MOL     H738325   1.214   0.561   6.224 -0.6661 -0.6090  1.0292
  120MOL     H838326   1.036   0.447   6.319  0.7036  0.0607 -0.9460
  120MOL     H938327   1.128   0.308   6.283 -2.6623 -2.9791  1.5987
  120MOL    H1038328   0.950   0.268   6.472  0.8215 -0.1297 -1.0048
  120MOL    H1138329   1.046   0.383   6.570 -0.4654  1.9456 -1.3656
  120MOL    H1238330   1.228   0.224   6.584 -0.2555  1.8577 -2.5567
  120MOL    H1338331   1.150   0.116   6.465 -4.7651  1.5720 -2.1930
  120MOL    H1438332   1.089   0.132   6.629  0.6170 -0.5242  1.1931
  120MOL    H1538333   1.378   0.643   6.433 -2.6327  0.1588  0.1841
  120MOL    H1638334   1.476   0.544   6.353  0.6982 -0.4255 -0.7753
  120MOL    H1738335   1.322   0.421   6.227  0.1075  0.8603 -2.2304
  120MOL    C1838336   1.413   0.719   6.246  0.3844  0.1276  0.1728
  120MOL    O1938337   1.299   0.804   6.248 -0.7652  0.0165  0.1403
  120MOL    C2038338   1.277   0.875   6.127  0.5549 -0.5291 -0.1573
  120MOL    C2138339   1.159   0.965   6.153  0.9873 -0.2106 -0.2786
  120MOL    C2238340   1.040   0.897   6.196 -0.6030  0.1723 -0.1673
  120MOL    C2338341   1.547   0.785   6.289 -0.1066 -0.4066  0.1308
  120MOL    H2438342   1.421   0.687   6.142 -0.1259  1.9466 -0.4421
  120MOL    H2538343   1.366   0.938   6.122  1.5644 -1.9437 -0.6603
  120MOL    H2638344   1.256   0.809   6.043 -1.0340 -0.9878  0.5932
  120MOL    H2738345   1.140   1.033   6.069  0.7806 -0.4584 -0.4336
  120MOL    H2838346   1.175   1.028   6.240  0.4640 -0.3142 -0.1030
  120MOL    H2938347   0.958   0.956   6.237 -0.7879 -1.1874  1.4651
  120MOL    H3038348   1.054   0.823   6.274  0.4592  0.4950 -0.0394
  120MOL    H3138349   0.997   0.844   6.111 -1.9536 -0.9358  1.1985
  120MOL    H3238350   1.637   0.724   6.278 -0.3613 -0.9728  1.0842
  120MOL    H3338351   1.554   0.865   6.215 -0.0823 -1.4813 -1.0384
  120MOL    C3438352   1.565   0.861   6.427 -0.1639  0.0308  0.0146
  120MOL    O3538353   1.672   0.947   6.409 -0.0510 -0.1851  0.3571
  120MOL    C3638354   1.790   0.882   6.436 -0.0125 -0.3698  0.6153
  120MOL    C3738355   1.906   0.984   6.411 -0.5547  0.6852  0.2558
  120MOL    C3838356   2.029   0.962   6.505 -0.0709  0.0676 -0.4576
  120MOL    C3938357   1.439   0.944   6.472 -0.0914  0.0574  0.2755
  120MOL    H4038358   1.573   0.778   6.496 -1.4075  1.6320  2.1507
  120MOL    H4138359   1.792   0.847   6.539  3.5913 -0.4886  0.5632
  120MOL    H4238360   1.801   0.794   6.373  1.9304  1.0205 -1.0529
  120MOL    H4338361   1.863   1.080   6.438 -1.2705  0.5940 -0.5695
  120MOL    H4438362   1.925   0.987   6.304  0.4303 -0.5857  0.3869
  120MOL    H4538363   2.004   0.935   6.608 -1.0984  0.0257 -0.7150
  120MOL    H4638364   2.099   1.045   6.498 -0.0718  0.0802 -0.3217
  120MOL    H4738365   2.102   0.892   6.463 -0.7694 -1.6524  1.0785
  120MOL    H4838366   1.396   0.995   6.386  1.0825  0.6927  0.0524
  120MOL    H4938367   1.361   0.874   6.502  0.1831  0.2408  1.4444
  120MOL    C5038368   1.456   1.025   6.599  0.5183 -0.2715  0.9042
  120MOL    O5138369   1.336   1.085   6.647  0.2703 -0.4935 -0.1955
  120MOL    C5238370   1.298   1.204   6.591  0.0937  0.3702 -0.5560
  120MOL    C5338371   1.155   1.229   6.623 -0.2570  0.7274 -0.3687
  120MOL    C5438372   1.096   1.339   6.533 -0.1050  0.1917 -0.6741
  120MOL    C5538373   1.517   0.952   6.720  0.2742 -0.0930 -0.3745
  120MOL    H5638374   1.513   1.112   6.567  0.7178 -0.1776  1.5061
  120MOL    H5738375   1.367   1.279   6.628  2.4395 -2.1472  0.3104
  120MOL    H5838376   1.312   1.202   6.483 -0.0544  1.4013 -0.5988
  120MOL    H5938377   1.144   1.252   6.729 -1.7008 -4.2225  0.7257
  120MOL    H6038378   1.087   1.144   6.611 -0.7087  0.7937  1.4842
  120MOL    H6138379   1.105   1.311   6.428 -0.7130 -0.8501 -0.4654
  120MOL    H6238380   1.130   1.439   6.559  1.4622 -0.2751 -0.9033
  120MOL    H6338381   0.988   1.341   6.551 -0.1413 -0.2027 -0.8246
  120MOL    H6438382   1.455   0.876   6.768 -0.3343  0.2623 -0.5864
  120MOL    H6538383   1.608   0.904   6.684  0.1570  0.6340 -1.6574
  120MOL    C6638384   1.558   1.054   6.830  0.1881  0.1097  0.4466
  120MOL    O6738385   1.570   0.990   6.956 -0.0491  0.4279  0.2309
  120MOL    C6838386   1.447   0.978   7.029  0.1005  0.2213 -0.8619
  120MOL    C6938387   1.480   0.939   7.171 -0.9603  0.2617  0.2742
  120MOL    C7038388   1.600   1.016   7.243  0.2389 -0.1589 -0.7986
  120MOL    C7138389   1.689   1.116   6.803 -0.4556  0.3917  0.1371
  120MOL    H7238390   1.484   1.134   6.833  1.6872  1.5126  0.4527
  120MOL    H7338391   1.398   1.075   7.041  0.6311  0.3659  0.1807
  120MOL    H7438392   1.367   0.914   6.993  0.3514 -0.4844 -0.1782
  120MOL    H7538393   1.513   0.835   7.168 -0.6333  0.3229  1.3299
  120MOL    H7638394   1.395   0.936   7.240  0.2070  0.4771  1.7537
  120MOL    H7738395   1.689   1.006   7.181  1.6125  3.2494  0.5306
  120MOL    H7838396   1.623   0.982   7.344 -0.7021  0.8501 -0.2381
  120MOL    H7938397   1.587   1.123   7.259  1.9787  0.1207 -1.0886
  120MOL    H8038398   1.744   1.026   6.779 -1.4275 -0.1745 -0.0008
  120MOL    H8138399   1.690   1.168   6.707  2.8212  0.7851  0.3347
  120MOL    C8238400   1.757   1.205   6.911  1.2238 -0.3152 -0.1671
  120MOL    O8338401   1.898   1.218   6.897 -0.2749  0.0025 -0.4992
  120MOL    C8438402   1.970   1.095   6.915  0.5968  0.2682  0.8079
  120MOL    C8538403   2.115   1.106   6.958 -0.2523  0.5627 -0.1820
  120MOL    C8638404   2.153   1.217   7.059 -0.1259 -0.3155 -0.0018
  120MOL    C8738405   1.692   1.344   6.928  0.3935  0.3428  0.6532
  120MOL    H8838406   1.738   1.166   7.011 -0.6168 -2.9865 -1.5215
  120MOL    H8938407   1.930   1.033   6.996 -0.0711  0.1552  0.3942
  120MOL    H9038408   1.973   1.031   6.827 -2.4270  0.9275  0.1887
  120MOL    H9138409   2.172   1.125   6.867  1.5204 -1.5397  0.4302
  120MOL    H9238410   2.151   1.005   6.982 -2.1513 -0.4400 -1.4082
  120MOL    H9338411   2.089   1.195   7.145 -1.9125  1.1132 -0.9391
  120MOL    H9438412   2.143   1.318   7.019  2.7506 -0.3462 -0.9234
  120MOL    H9538413   2.252   1.210   7.105 -0.8331 -2.0546  1.2998
  120MOL    H9638414   1.708   1.394   6.832  1.3388 -1.3578 -0.1140
  120MOL    H9738415   1.585   1.329   6.939  0.4080 -0.4969 -0.2435
  120MOL    C9838416   1.736   1.436   7.045  0.3655  0.3392  0.6958
  120MOL    O9938417   1.701   1.372   7.173 -0.0878 -0.0364  0.1354
  120MOL   C10038418   1.583   1.417   7.245 -0.3767 -0.7004  0.0434
  120MOL   C10138419   1.610   1.392   7.391 -0.4545 -0.4321 -0.1973
  120MOL   C10238420   1.504   1.430   7.495  0.4544  1.2307  0.8815
  120MOL   C10338421   1.879   1.477   7.047 -0.0003  0.3836  0.6424
  120MOL   H10438422   1.671   1.521   7.027 -1.3038 -1.0786 -0.2017
  120MOL   H10538423   1.559   1.521   7.221 -0.2412 -0.4938  0.7814
  120MOL   H10638424   1.489   1.364   7.227  0.1499 -1.1133 -1.5245
  120MOL   H10738425   1.695   1.453   7.421 -0.8108  1.1407 -2.2323
  120MOL   H10838426   1.641   1.288   7.397  1.6807  0.0166 -2.8004
  120MOL   H10938427   1.550   1.436   7.593  3.0014  1.5007 -0.3025
  120MOL   H11038428   1.421   1.360   7.505  1.2630  0.6289  3.7058
  120MOL   H11138429   1.458   1.527   7.475  0.9990  1.4813  0.8466
  120MOL   H11238430   1.945   1.397   7.079 -0.0390  0.2180  0.3078
  120MOL   H11338431   1.902   1.513   6.947 -3.4215  2.3640  0.4734
  120MOL   C11438432   1.914   1.594   7.137  0.0903  0.2536 -0.6867
  120MOL   O11538433   2.015   1.555   7.230 -0.3818  0.0256 -0.0172
  120MOL   C11638434   1.975   1.484   7.337 -0.5115  0.0695 -0.9206
  120MOL   C11738435   2.093   1.484   7.435 -0.1795  0.1769 -0.4011
  120MOL   C11838436   2.193   1.374   7.414  0.3752  0.5789  0.4975
  120MOL   C11938437   1.968   1.709   7.058 -0.4883 -0.1210 -0.2854
  120MOL   H12038438   1.823   1.626   7.188  1.6525  2.2832  0.9154
  120MOL   H12138439   1.893   1.533   7.389  0.5860  1.1692 -0.1680
  120MOL   H12238440   1.946   1.383   7.308 -0.8957 -0.5074  1.3973
  120MOL   H12338441   2.051   1.490   7.535  1.0482 -0.9897  0.2039
  120MOL   H12438442   2.142   1.580   7.446 -1.5274  0.6705  1.5982
  120MOL   H12538443   2.264   1.397   7.335 -0.5093 -0.6894 -0.7091
  120MOL   H12638444   2.143   1.278   7.397 -1.5750  1.7601 -0.6136
  120MOL   H12738445   2.262   1.363   7.497  2.9339  0.0434 -1.6391
  120MOL   H12838446   1.897   1.753   6.988 -2.8382 -1.0191  1.4655
  120MOL   H12938447   1.979   1.783   7.138 -0.4931  0.8215 -1.1474
  120MOL   C13038448   2.100   1.679   6.973  1.1434  0.1744  0.5971
  120MOL   O13138449   2.055   1.648   6.841 -0.2039  0.0708  0.8736
  120MOL   C13238450   2.133   1.545   6.773  0.0524  0.5397 -0.1883
  120MOL   C13338451   2.108   1.536   6.621 -0.2251  0.6230 -0.1246
  120MOL   C13438452   1.973   1.483   6.576  1.2436 -0.0991  0.0977
  120MOL   C13538453   2.194   1.798   6.960 -0.0594  0.3094 -0.5716
  120MOL   H13638454   2.150   1.592   7.014  0.3542 -1.8897 -2.5905
  120MOL   H13738455   2.238   1.573   6.783  0.8902 -2.6011  0.1448
  120MOL   H13838456   2.127   1.450   6.826  1.9629  1.4092  1.6816
  120MOL   H13938457   2.174   1.465   6.572 -1.4814 -1.5646  1.2544
  120MOL   H14038458   2.123   1.636   6.581  0.4735  1.3253  1.8379
  120MOL   H14138459   1.964   1.381   6.612 -0.8424  0.9242  2.6066
  120MOL   H14238460   1.963   1.483   6.467 -0.8260 -2.6975  0.2466
  120MOL   H14338461   1.883   1.533   6.613 -0.9177 -0.6553 -4.0987
  120MOL   H14438462   2.231   1.805   6.858  1.3859  0.0303 -0.0789
  120MOL   H14538463   2.144   1.892   6.983  0.1740 -0.3080  2.7441
  120MOL   C14638464   2.317   1.789   7.062  0.7807 -0.6042 -0.2985
  120MOL   O14738465   2.382   1.663   7.036  0.0332 -0.1767 -0.1862
  120MOL   C14838466   2.418   1.582   7.149 -0.2757 -0.1170  0.2479
  120MOL   C14938467   2.469   1.449   7.098 -0.2753  0.3573  0.4587
  120MOL   C15038468   2.552   1.364   7.199 -0.8053  0.2459  0.2494
  120MOL   C15138469   2.410   1.909   7.051 -0.3279  0.7282 -0.1930
  120MOL   H15238470   2.273   1.790   7.162 -0.4148  1.7270 -0.8231
  120MOL   H15338471   2.478   1.633   7.225  0.1372  0.4439 -0.4461
  120MOL   H15438472   2.323   1.563   7.199 -1.4192 -0.6715 -2.0948
  120MOL   H15538473   2.529   1.472   7.010  2.8636 -1.2431  2.0900
  120MOL   H15638474   2.386   1.381   7.077  0.4858 -1.0187  1.8396
  120MOL   H15738475   2.597   1.282   7.144 -1.2868  0.9710 -1.2458
  120MOL   H15838476   2.495   1.328   7.285 -3.1825 -0.7799 -1.6794
  120MOL   H15938477   2.634   1.426   7.235  1.4458 -0.6360 -3.2069
  120MOL   H16038478   2.361   1.998   7.091 -1.6291  0.4620 -1.1887
  120MOL   H16138479   2.497   1.890   7.113 -1.5462 -1.2479  0.9304
  120MOL   C16238480   2.465   1.944   6.907 -0.5436  0.3310 -0.5740
  120MOL   O16338481   2.559   2.049   6.912  0.0082  0.0171  0.3121
  120MOL   C16438482   2.521   2.175   6.959  1.0306 -0.1186  0.7097
  120MOL   C16538483   2.624   2.276   6.916  0.1606  0.5617 -0.8259
  120MOL   C16638484   2.569   2.419   6.937 -0.2450  0.6886 -0.1718
  120MOL   C16738485   2.540   1.834   6.835 -0.2668  0.0181 -0.1844
  120MOL   H16838486   2.383   1.985   6.847 -1.7378 -0.2503  0.6228
  120MOL   H16938487   2.422   2.205   6.924  1.6305  0.1342 -0.8017
  120MOL   H17038488   2.500   2.183   7.066 -0.4196 -2.4909  0.6430
  120MOL   H17138489   2.645   2.264   6.810 -2.3608 -0.4775 -1.2473
  120MOL   H17238490   2.719   2.264   6.969 -1.0062  0.3829  1.2857
  120MOL   H17338491   2.578   2.445   7.043  1.4879 -1.9141  0.3918
  120MOL   H17438492   2.467   2.424   6.900 -0.0918 -0.8898 -0.8309
  120MOL   H17538493   2.631   2.486   6.877  0.6521  0.3774  0.3857
  120MOL   H17638494   2.632   1.821   6.891  0.9763 -1.1272 -2.3947
  120MOL   H17738495   2.476   1.747   6.823 -0.0235 -0.3306  1.0126
  120MOL   C17838496   2.568   1.878   6.687 -0.2821  0.2499 -0.3078
  120MOL   O17938497   2.704   1.859   6.653 -0.1390  0.5440  0.5331
  120MOL   C18038498   2.796   1.955   6.716  0.1330  0.2944  0.0924
  120MOL   C18138499   2.937   1.939   6.668  0.3157  0.0407 -0.2531
  120MOL   C18238500   2.974   2.022   6.542 -0.5177  0.5769  0.7436
  120MOL   C18338501   2.477   1.810   6.588 -0.7731  0.2423 -0.2206
  120MOL   H18438502   2.539   1.982   6.671  0.8837  0.4989 -0.8968
  120MOL   H18538503   2.761   2.054   6.689  0.3761  0.5215  0.6050
  120MOL   H18638504   2.798   1.947   6.825  0.0683 -1.6065 -0.0197
  120MOL   H18738505   2.954   1.832   6.662 -0.9222 -0.0869 -1.7280
  120MOL   H18838506   3.006   1.981   6.742 -1.1586 -0.5288  1.4709
  120MOL   H18938507   2.916   2.000   6.452 -1.3308 -0.9712  1.6190
  120MOL   H19038508   3.078   2.004   6.515 -0.6273  3.8983 -2.1586
  120MOL   H19138509   2.968   2.128   6.566 -0.7777  0.1266  2.8003
  120MOL   H19238510   2.488   1.702   6.599  0.6880  0.4758  0.8071
  120MOL   H19338511   2.371   1.831   6.606 -0.4524 -0.2149  2.3873
  120MOL   C19438512   2.504   1.835   6.438  0.6829 -0.1648  0.0082
  120MOL   O19538513   2.398   1.766   6.374 -0.0008 -0.3722  0.1317
  120MOL   C19638514   2.425   1.626   6.341  0.2453 -0.8330  0.4917
  120MOL   C19738515   2.356   1.595   6.206  0.0279  0.2316  0.2196
  120MOL   C19838516   2.415   1.669   6.096 -0.2208 -0.1824  0.0063
  120MOL   C19938517   2.484   1.974   6.380  0.0284 -0.1132  0.0900
  120MOL   H20038518   2.608   1.807   6.424  0.9262  0.4599  0.4980
  120MOL   H20138519   2.530   1.602   6.322  0.1774  0.4828 -1.8006
  120MOL   H20238520   2.399   1.563   6.425  1.6525 -1.1342  0.7160
  120MOL   H20338521   2.249   1.613   6.221 -0.9896 -4.6000 -0.5990
  120MOL   H20438522   2.359   1.489   6.183 -2.6528  0.0702  0.4407
  120MOL   H20538523   2.376   1.769   6.081  0.0863 -0.0900 -0.1761
  120MOL   H20638524   2.393   1.619   6.002  1.1352  0.1757 -0.5050
  120MOL   H20738525   2.524   1.669   6.094 -0.1081  0.4849  2.9601
  120MOL   H20838526   2.383   2.013   6.391 -1.3863 -3.7624  0.5601
  120MOL   H20938527   2.545   2.038   6.444 -2.0319  2.8630 -0.7980
  120MOL   C21038528   2.538   1.989   6.237  1.1190 -0.5152  0.2559
  120MOL   O21138529   2.467   2.114   6.181 -0.1981  0.3831  0.1625
  120MOL   C21238530   2.344   2.081   6.115 -0.6436 -0.2892  0.8643
  120MOL   C21338531   2.248   2.204   6.123  0.0605  0.1787 -0.1193
  120MOL   C21438532   2.281   2.334   6.057  0.1601  0.0673 -0.1974
  120MOL   C21538533   2.691   2.023   6.221  0.3207  0.1500 -0.0975
  120MOL   H21638534   2.520   1.902   6.174 -2.3821  0.5848 -0.3780
  120MOL   H21738535   2.377   2.040   6.019  2.2967 -2.9492  2.8997
  120MOL   H21838536   2.294   1.997   6.163 -1.2173 -1.2955 -1.4115
  120MOL   H21938537   2.234   2.220   6.230  1.5924 -0.2223  0.1440
  120MOL   H22038538   2.149   2.170   6.092 -0.4790  0.9508  0.7552
  120MOL   H22138539   2.246   2.344   5.954  0.3884  0.1597 -0.2678
  120MOL   H22238540   2.388   2.352   6.065 -0.2571  2.4223  0.3726
  120MOL   H22338541   2.222   2.413   6.103  1.2422  1.1300 -0.5910
  120MOL   H22438542   2.700   2.119   6.273  2.2892 -0.7328  1.2207
  120MOL   H22538543   2.749   1.949   6.276 -0.6970  0.3010  1.2098
  120MOL   C22638544   2.734   2.034   6.067 -0.1167  0.2057  0.1722
  120MOL   O22738545   2.866   2.098   6.054  0.8871  0.4254 -0.4192
  120MOL   C22838546   2.889   2.219   6.122 -0.0036 -0.2991  1.3323
  120MOL   C22938547   3.036   2.259   6.086 -0.4677 -0.4868  0.8068
  120MOL   C23038548   3.142   2.158   6.124  0.4686 -0.5782  0.7576
  120MOL   C23138549   2.732   1.904   5.983 -0.4545  0.5647 -0.2778
  120MOL   H23238550   2.660   2.105   6.028  0.9118  0.4758 -1.3477
  120MOL   H23338551   2.819   2.295   6.089  2.6762  2.2682  1.2711
  120MOL   H23438552   2.888   2.215   6.231  1.2852 -0.3708  1.3524
  120MOL   H23538553   3.059   2.353   6.136 -3.4190 -0.0030  1.3337
  120MOL   H23638554   3.043   2.290   5.982 -2.5021  1.0939  1.1090
  120MOL   H23738555   3.236   2.213   6.116  0.7347 -1.0248  0.7845
  120MOL   H23838556   3.158   2.072   6.059  0.4724 -0.8138  1.0688
  120MOL   H23938557   3.119   2.121   6.224 -1.0939 -1.2229  0.1623
  120MOL   H24038558   2.791   1.832   6.040 -0.1319 -0.4570 -1.8656
  120MOL   H24138559   2.631   1.862   5.985 -1.2381  2.4380 -0.0875
  120MOL   C24238560   2.779   1.912   5.835 -0.1165 -0.5661  0.1698
  120MOL   O24338561   2.762   1.785   5.760 -0.1114 -0.0485  0.5147
  120MOL   C24438562   2.850   1.766   5.647  0.3215  0.5477  0.2102
  120MOL   C24538563   2.822   1.626   5.593  0.0507 -0.3203  0.4674
  120MOL   C24638564   2.894   1.603   5.457  0.2958  0.4044 -0.3731
  120MOL   C24738565   2.703   2.017   5.754  0.8115  0.3167 -0.4866
  120MOL   H24838566   2.884   1.943   5.835 -0.6734  1.5270 -2.5762
  120MOL   H24938567   2.805   1.833   5.573  0.0778  0.3933  0.2186
  120MOL   H25038568   2.950   1.800   5.673  0.1630  1.5379 -0.4301
  120MOL   H25138569   2.714   1.609   5.584  0.1543 -1.5493  1.4267
  120MOL   H25238570   2.853   1.556   5.671 -4.2741 -0.0159  2.6541
  120MOL   H25338571   2.996   1.641   5.468  1.0938 -2.3808  2.5538
  120MOL   H25438572   2.844   1.659   5.378 -1.5825 -1.7255 -0.7356
  120MOL   H25538573   2.880   1.501   5.421  1.3588  1.3807 -3.8317
  120MOL   H25638574   2.721   2.118   5.791  1.0127  0.4565 -0.9656
  120MOL   H25738575   2.743   2.019   5.653  3.3977 -2.4786  0.4187
  120MOL   C25838576   2.546   2.012   5.748  0.6697 -0.9889  0.3313
  120MOL   O25938577   2.507   2.112   5.647  0.4978 -0.0961  0.1993
  120MOL   C26038578   2.442   2.225   5.706 -0.3659 -0.4486  0.5111
  120MOL   C26138579   2.413   2.325   5.589  0.6040 -0.3106 -0.2040
  120MOL   C26238580   2.292   2.294   5.497 -0.1262  0.3098  0.0080
  120MOL   C26338581   2.500   1.875   5.710 -0.2488  0.3246  0.8804
  120MOL   H26438582   2.507   2.038   5.846  0.5762 -1.0844  0.3200
  120MOL   H26538583   2.342   2.206   5.745 -0.1654  0.2509  1.3690
  120MOL   H26638584   2.506   2.266   5.783 -1.2181 -0.0506  1.0177
  120MOL   H26738585   2.497   2.329   5.520  1.4858 -0.0710  0.8795
  120MOL   H26838586   2.403   2.427   5.626  0.2923 -0.9095  1.3885
  120MOL   H26938587   2.282   2.348   5.403 -1.1261 -0.2429 -0.1996
  120MOL   H27038588   2.193   2.302   5.542  0.3915 -0.9348  1.3987
  120MOL   H27138589   2.291   2.188   5.472 -1.8693  0.3824 -0.2784
  120MOL   H27238590   2.563   1.846   5.626 -1.2198  0.3837  0.1176
  120MOL   H27338591   2.530   1.808   5.791  0.4836 -1.4781 -0.8420
  120MOL   C27438592   2.351   1.849   5.668  0.2582  0.3236 -0.6291
  120MOL   O27538593   2.326   1.718   5.636  0.1131 -0.3463 -0.5282
  120MOL   C27638594   2.384   1.670   5.515  0.0538  0.0485 -0.4615
  120MOL   C27738595   2.327   1.521   5.497  0.2486 -0.7980 -0.2457
  120MOL   C27838596   2.172   1.519   5.474 -0.4268  0.3083 -0.0762
  120MOL   C27938597   2.255   1.884   5.790  0.1822  0.3980  0.0343
  120MOL   H28038598   2.331   1.915   5.583 -1.0806 -0.2399 -0.7686
  120MOL   H28138599   2.351   1.731   5.431 -4.2192  0.0117  1.0562
  120MOL   H28238600   2.492   1.660   5.512  0.2347  1.9726 -1.3365
  120MOL   H28338601   2.365   1.457   5.576 -1.5633  0.1477  1.4543
  120MOL   H28438602   2.357   1.471   5.405 -0.1564 -0.9983 -0.2733
  120MOL   H28538603   2.140   1.594   5.400 -1.4026  0.7098  0.7343
  120MOL   H28638604   2.110   1.535   5.562 -0.1920  2.5508 -0.2766
  120MOL   H28738605   2.141   1.437   5.409  1.3844  0.3179 -0.9834
  120MOL   H28838606   2.300   1.837   5.877 -0.6356 -0.7376 -0.1506
  120MOL   H28938607   2.246   1.992   5.802  1.7526  0.4122  1.2464
  120MOL   C29038608   2.109   1.835   5.776  0.2514 -0.2385  0.3759
  120MOL   O29138609   2.047   1.880   5.900  0.1460  0.4879  0.0892
  120MOL   C29238610   1.917   1.830   5.931 -0.1446 -0.7542  0.3449
  120MOL   C29338611   1.907   1.827   6.083 -0.8987 -0.1694  0.0955
  120MOL   C29438612   1.763   1.785   6.124  0.0643  0.0829 -0.2376
  120MOL   C29538613   2.035   1.896   5.651  0.4748  0.2317 -0.1960
  120MOL   H29638614   2.104   1.726   5.783  1.2451 -0.2659  0.6490
  120MOL   H29738615   1.838   1.892   5.888  0.2162 -0.8131 -0.4247
  120MOL   H29838616   1.898   1.727   5.898  0.6127 -0.6943 -0.3120
  120MOL   H29938617   1.936   1.923   6.126  1.4319 -0.7277 -0.1524
  120MOL   H30038618   1.975   1.749   6.116 -0.0656 -0.3692 -2.0357
  120MOL   H30138619   1.741   1.679   6.133 -0.6760  0.3893  1.8372
  120MOL   H30238620   1.691   1.834   6.058  0.4063  2.7115  1.2453
  120MOL   H30338621   1.742   1.823   6.224 -0.2454 -0.3549 -0.1409
  120MOL   H30438622   2.086   1.846   5.568 -0.4716 -0.5681 -0.2977
  120MOL   H30538623   1.932   1.863   5.658 -0.1955  2.0124 -1.3368
  120MOL   C30638624   2.037   2.047   5.616 -0.3795  0.2044 -0.4704
  120MOL   O30738625   1.978   2.080   5.494  0.5304  0.0900  0.2534
  120MOL   C30838626   2.049   2.019   5.385 -0.2719 -0.1353  0.4662
  120MOL   C30938627   2.067   2.109   5.258 -0.3099  0.3957 -0.2212
  120MOL   C31038628   2.119   2.022   5.138  0.3560 -0.4022 -0.2712
  120MOL   C31138629   1.969   2.136   5.720  0.0684  0.3618  0.5108
  120MOL   H31238630   2.143   2.067   5.605 -0.1112 -1.3249 -0.7648
  120MOL   H31338631   2.150   1.988   5.409 -0.3321 -1.5059 -0.9111
  120MOL   H31438632   2.002   1.927   5.349 -2.9609  0.3888  2.4284
  120MOL   H31538633   2.147   2.181   5.277  0.6657 -0.8106  0.3381
  120MOL   H31638634   1.970   2.154   5.242 -1.5123 -1.4771  1.5079
  120MOL   H31738635   2.152   2.093   5.062  0.9421 -1.4538 -1.0213
  120MOL   H31838636   2.043   1.959   5.091 -1.1565  0.2347  1.2824
  120MOL   H31938637   2.210   1.967   5.162  0.3532 -0.1036  0.4331
  120MOL   H32038638   1.988   2.116   5.825  2.7014  0.0718  0.0167
  120MOL   H32138639   1.981   2.242   5.695 -0.2878  0.2468 -0.1687
  120MOL   H32238640   1.861   2.119   5.715  0.0239  0.6331  0.5096
  121MOL     C138641   4.148   7.329   6.219 -0.3317  0.1565 -0.5565
  121MOL     O238642   4.030   7.394   6.176 -0.0777  0.2836 -0.3698
  121MOL     C338643   4.037   7.505   6.088  0.5501 -0.3790 -0.4392
  121MOL     C438644   3.903   7.579   6.072 -0.4902 -0.5240  0.3076
  121MOL     C538645   3.784   7.495   6.017 -0.5701 -0.1649  0.2938
  121MOL     C638646   4.207   7.395   6.343  0.4865 -0.3745  0.3778
  121MOL     H738647   4.220   7.324   6.137 -0.3040 -1.2080 -0.4657
  121MOL     H838648   4.093   7.581   6.142 -1.0356  0.6014 -0.1286
  121MOL     H938649   4.097   7.488   5.999 -1.4908 -0.0326 -1.9127
  121MOL    H1038650   3.915   7.668   6.011  1.4804 -0.7830  0.2994
  121MOL    H1138651   3.866   7.616   6.168 -1.3922 -2.6023  0.8109
  121MOL    H1238652   3.824   7.436   5.934  1.8785  2.1034 -0.2243
  121MOL    H1338653   3.699   7.548   5.975 -0.6912 -0.0831  0.6379
  121MOL    H1438654   3.752   7.420   6.089  0.9435 -0.6901  0.4375
  121MOL    H1538655   4.215   7.500   6.316 -0.5863 -0.2451  0.5166
  121MOL    H1638656   4.129   7.406   6.419  0.6397  1.4082  0.2914
  121MOL    H1738657   4.124   7.224   6.236  1.8294 -0.4872 -1.2142
  121MOL    C1838658   4.340   7.340   6.390  0.0786  0.0964  0.4235
  121MOL    O1938659   4.444   7.392   6.304  0.4698  0.4681  0.2029
  121MOL    C2038660   4.550   7.299   6.287 -0.5795  0.0485  0.3769
  121MOL    C2138661   4.656   7.353   6.189  0.4122  0.3082  0.1123
  121MOL    C2238662   4.796   7.294   6.207 -0.0305 -0.1639  0.7316
  121MOL    C2338663   4.378   7.385   6.533  0.0308 -0.0685 -0.1374
  121MOL    H2438664   4.336   7.231   6.381 -0.3164  0.0591  1.0420
  121MOL    H2538665   4.586   7.271   6.386 -0.2686 -0.3670  0.1431
  121MOL    H2638666   4.513   7.208   6.241 -0.0954  0.6403 -1.1950
  121MOL    H2738667   4.670   7.460   6.203 -2.0383  0.3865  2.4014
  121MOL    H2838668   4.624   7.345   6.085  0.1244  1.2549  0.1238
  121MOL    H2938669   4.798   7.190   6.175 -0.2689 -0.6966  2.4005
  121MOL    H3038670   4.833   7.285   6.309 -0.0887 -0.1495  0.7537
  121MOL    H3138671   4.862   7.345   6.137 -0.7856  0.4411  0.4385
  121MOL    H3238672   4.487   7.380   6.542 -0.0143 -0.3274  0.2849
  121MOL    H3338673   4.354   7.490   6.545 -0.6611 -0.3753  1.3198
  121MOL    C3438674   4.316   7.305   6.647  0.5167  0.3737  0.5142
  121MOL    O3538675   4.374   7.176   6.636 -0.1779  0.0631 -0.2681
  121MOL    C3638676   4.304   7.072   6.703  0.3005  0.6992  0.7270
  121MOL    C3738677   4.384   6.952   6.656 -0.5178 -0.4823  0.4019
  121MOL    C3838678   4.338   6.816   6.709 -0.1154  0.6308 -0.6112
  121MOL    C3938679   4.325   7.361   6.791  0.0216  0.5717  0.0707
  121MOL    H4038680   4.211   7.303   6.618  0.8895  0.8324 -0.9036
  121MOL    H4138681   4.303   7.077   6.811 -2.8795  1.3925  0.6974
  121MOL    H4238682   4.202   7.067   6.666  0.8755  0.9805 -0.9866
  121MOL    H4338683   4.490   6.962   6.680 -0.2835  2.0172 -1.4533
  121MOL    H4438684   4.390   6.949   6.547  0.0883 -2.6307  0.4761
  121MOL    H4538685   4.245   6.782   6.662 -0.2479  1.4720 -0.9550
  121MOL    H4638686   4.317   6.811   6.816  0.3561  0.3663 -0.5267
  121MOL    H4738687   4.415   6.740   6.692 -1.7846 -1.3823  0.5116
  121MOL    H4838688   4.288   7.289   6.865 -0.0610 -0.1868 -0.7068
  121MOL    H4938689   4.430   7.378   6.813  0.8094 -0.5158 -2.6226
  121MOL    C5038690   4.250   7.493   6.805 -0.3324  0.9396  0.3942
  121MOL    O5138691   4.119   7.475   6.752  0.1064  0.2163  0.3700
  121MOL    C5238692   4.073   7.584   6.672 -0.1395  0.3500 -0.5242
  121MOL    C5338693   3.944   7.553   6.607  0.9611 -0.9666 -0.1325
  121MOL    C5438694   3.891   7.644   6.495  0.0798  0.3720 -0.0355
  121MOL    C5538695   4.228   7.522   6.956 -0.2195 -0.1772  0.1877
  121MOL    H5638696   4.296   7.581   6.762 -0.4555  1.1882  0.7644
  121MOL    H5738697   4.080   7.683   6.717 -0.2915  0.1860 -0.1396
  121MOL    H5838698   4.157   7.594   6.604 -0.3089  1.9557 -0.5248
  121MOL    H5938699   3.865   7.553   6.681  2.1102  1.5113  1.1429
  121MOL    H6038700   3.940   7.446   6.583 -0.5746 -1.1472  0.8847
  121MOL    H6138701   3.802   7.588   6.467  1.3279 -0.0461 -3.4790
  121MOL    H6238702   3.957   7.663   6.410 -0.8843  0.1664 -0.8404
  121MOL    H6338703   3.861   7.738   6.539  2.1542  1.8333 -1.6199
  121MOL    H6438704   4.161   7.607   6.959 -1.5445 -1.1117 -1.7458
  121MOL    H6538705   4.172   7.437   6.996  1.2560 -0.3445  1.9449
  121MOL    C6638706   4.348   7.546   7.052  0.8550 -0.4586 -0.1133
  121MOL    O6738707   4.412   7.669   7.010 -0.4305 -0.3058  0.2760
  121MOL    C6838708   4.522   7.724   7.079  0.1702  0.0971  0.0881
  121MOL    C6938709   4.620   7.770   6.968  0.0681 -0.4370 -0.0580
  121MOL    C7038710   4.679   7.653   6.880 -0.0327 -0.3977 -0.7665
  121MOL    C7138711   4.299   7.560   7.202 -0.0495 -0.1554  0.0531
  121MOL    H7238712   4.417   7.461   7.052  1.6560  0.1881  0.6431
  121MOL    H7338713   4.490   7.811   7.136 -3.0077 -0.6176 -0.5205
  121MOL    H7438714   4.571   7.657   7.150 -2.6226 -1.1279  0.9400
  121MOL    H7538715   4.711   7.809   7.015 -0.7543  1.6302 -0.1297
  121MOL    H7638716   4.579   0.022   6.907 -0.9049 -0.3373  0.7163
  121MOL    H7738717   4.748   7.591   6.937  1.2577 -0.1941 -2.0653
  121MOL    H7838718   4.715   7.698   6.787 -2.1427  1.0218 -0.9424
  121MOL    H7938719   4.596   7.588   6.851  1.1113 -2.8994  1.3702
  121MOL    H8038720   4.393   7.550   7.258  0.5616  1.4259 -0.6779
  121MOL    H8138721   4.253   7.658   7.217 -2.2314 -1.1964  0.4509
  121MOL    C8238722   4.210   7.447   7.255  0.1582 -0.0984  0.3537
  121MOL    O8338723   4.291   7.328   7.247  0.5936  0.0832  0.2168
  121MOL    C8438724   4.219   7.211   7.203  0.3411  0.2684 -1.5079
  121MOL    C8538725   4.311   7.091   7.195 -0.3338  0.1204 -0.3765
  121MOL    C8638726   4.249   6.962   7.136 -0.3458  0.0850  0.1572
  121MOL    C8738727   4.174   7.464   7.407 -0.1346  0.2601 -0.2079
  121MOL    H8838728   4.120   7.433   7.195 -0.1793  0.1438  0.7940
  121MOL    H8938729   4.144   7.193   7.280  1.1011  2.9308 -0.0728
  121MOL    H9038730   4.155   7.229   7.116 -0.1310 -0.6519 -1.3582
  121MOL    H9138731   4.326   7.065   7.299  0.8842  1.8638 -0.1022
  121MOL    H9238732   4.404   7.120   7.147 -0.8384  1.7586 -0.3713
  121MOL    H9338733   4.252   6.954   7.028  1.5731 -0.9121  0.2680
  121MOL    H9438734   4.145   6.952   7.168 -0.7966  0.0029 -1.3283
  121MOL    H9538735   4.297   6.872   7.175 -1.9706 -0.1847  1.6151
  121MOL    H9638736   4.111   7.385   7.446 -1.3211  2.1612  1.8836
  121MOL    H9738737   4.267   7.473   7.463 -0.0334  3.8784 -0.8433
  121MOL    C9838738   4.099   7.596   7.441  0.5748  0.4498  0.2563
  121MOL    O9938739   3.964   7.597   7.388  0.3588  0.2861  0.8355
  121MOL   C10038740   3.920   7.726   7.346 -0.1019 -0.0349 -0.6015
  121MOL   C10138741   3.773   7.705   7.300 -0.2033  0.5833 -0.5728
  121MOL   C10238742   3.683   7.662   7.422  0.2685  0.1805  0.0957
  121MOL   C10338743   4.083   7.629   7.593  0.3920 -0.2644 -0.0952
  121MOL   H10438744   4.149   7.683   7.399  1.6778 -0.2953  0.0086
  121MOL   H10538745   3.916   7.786   7.438 -0.0316 -2.3440  0.9424
  121MOL   H10638746   3.996   7.771   7.282  0.5050  0.4747  0.4554
  121MOL   H10738747   3.759   7.626   7.227 -0.8228 -0.1110  0.2885
  121MOL   H10838748   3.733   7.798   7.259  3.0910  1.3082 -2.3124
  121MOL   H10938749   3.583   7.625   7.399 -0.0213  1.1033 -0.1598
  121MOL   H11038750   3.666   7.751   7.484 -0.2268  0.0361  0.1659
  121MOL   H11138751   3.732   7.585   7.482 -1.5689 -1.4548 -0.4433
  121MOL   H11238752   4.014   7.712   7.608  0.6918  0.0163 -0.2559
  121MOL   H11338753   4.028   7.547   7.638  0.4217 -0.2222  0.0202
  121MOL   C11438754   4.212   7.659   7.673  0.0931  0.1549  0.9917
  121MOL   O11538755   4.252   7.790   7.638 -0.2611 -0.6175  0.0999
  121MOL   C11638756   4.377   0.015   7.671 -0.3593  0.7685  0.1488
  121MOL   C11738757   4.389   0.141   7.585  0.6387 -0.5549 -0.0389
  121MOL   C11838758   4.293   0.253   7.620 -0.2690 -0.2820  0.0687
  121MOL   C11938759   4.184   7.666   7.821 -0.4822  0.1298 -0.5147
  121MOL   H12038760   4.299   7.598   7.653 -0.5580 -0.5879  0.4149
  121MOL   H12138761   4.394   0.035   7.777 -0.7125 -0.9510  0.5329
  121MOL   H12238762   4.454   7.771   7.643 -1.0343 -0.0078  0.2837
  121MOL   H12338763   4.374   0.119   7.479  2.0257  0.1335 -0.3899
  121MOL   H12438764   4.494   0.170   7.594  0.5547 -0.2034 -0.2055
  121MOL   H12538765   4.313   0.333   7.549  3.0960 -1.3545 -0.3029
  121MOL   H12638766   4.294   0.283   7.725 -2.4634 -0.9233  0.3001
  121MOL   H12738767   4.188   0.227   7.608 -0.4358 -0.0722  1.0126
  121MOL   H12838768   4.272   7.717   0.034 -1.1063  0.2620  0.6949
  121MOL   H12938769   4.100   7.734   0.008 -0.2414  0.1718  0.7489
  121MOL   C13038770   4.167   7.522   0.062  0.0904 -0.0280 -0.4815
  121MOL   O13138771   4.295   7.461   0.052  0.5419  0.0535 -0.3972
  121MOL   C13238772   4.299   7.354   7.793 -0.3276  0.4829  0.3187
  121MOL   C13338773   4.450   7.321   7.796 -0.5276 -0.2384 -0.3483
  121MOL   C13438774   4.486   7.274   0.113 -0.4788 -0.1391 -0.0795
  121MOL   C13538775   4.121   7.531   0.209 -0.1628 -0.3688  0.5746
  121MOL   H13638776   4.087   7.475   0.006  0.9141  0.1305 -1.8340
  121MOL   H13738777   4.245   7.272   0.012 -0.4827  0.0504 -0.5966
  121MOL   H13838778   4.268   7.390   7.694  1.0591 -0.4625 -0.4724
  121MOL   H13938779   4.503   7.406   7.754  0.6716 -0.4094  0.7947
  121MOL   H14038780   4.458   7.236   7.729 -0.0454 -2.6283  2.6105
  121MOL   H14138781   4.454   7.348   0.187 -0.1474 -2.5337  2.5315
  121MOL   H14238782   4.594   7.267   0.125 -0.5418 -1.2084 -0.1421
  121MOL   H14338783   4.451   7.176   0.145 -2.7499  0.4912 -0.5095
  121MOL   H14438784   4.107   7.428   0.241 -2.8275  0.1496  1.1807
  121MOL   H14538785   4.198   7.576   0.271 -0.4100 -0.5140  0.9863
  121MOL   C14638786   3.995   7.612   0.243  0.6093 -0.6061  0.9293
  121MOL   O14738787   3.890   7.594   0.142  0.0023  0.3222 -0.0841
  121MOL   C14838788   3.783   7.695   0.135  0.4263 -0.0680  0.4302
  121MOL   C14938789   3.663   7.632   0.057  0.2289 -0.9464 -0.4988
  121MOL   C15038790   3.566   7.550   0.135 -0.0882  0.4540  0.0537
  121MOL   C15138791   3.937   7.594   0.382 -0.7254  0.5865 -0.8775
  121MOL   H15238792   4.021   7.718   0.239 -1.4062 -0.0555  1.6632
  121MOL   H15338793   3.756   7.727   0.236 -1.7854 -3.0942  0.8932
  121MOL   H15438794   3.821   7.784   0.085  1.2400 -0.8264 -0.3180
  121MOL   H15538795   3.710   7.571   7.807  0.8168  0.6839 -1.4382
  121MOL   H15638796   3.607   7.711   0.007  1.6115 -0.8122 -1.8961
  121MOL   H15738797   3.620   7.463   0.173 -2.7238 -1.4461 -0.3802
  121MOL   H15838798   3.498   7.498   0.067  0.5660 -1.3854  0.7687
  121MOL   H15938799   3.523   7.585   0.229 -2.9675 -1.5950 -0.4511
  121MOL   H16038800   3.842   7.646   0.393 -0.9173  0.0330  0.1624
  121MOL   H16138801   3.912   7.489   0.392  0.3924  0.4565  0.8677
  121MOL   C16238802   4.026   7.640   0.500  0.7936 -0.1313  0.2152
  121MOL   O16338803   4.025   7.782   0.489 -0.1802 -0.0880  0.5382
  121MOL   C16438804   4.151   0.002   0.478 -0.6107  0.8661  0.0469
  121MOL   C16538805   4.148   0.149   0.441  0.1020 -0.6410 -0.0092
  121MOL   C16638806   4.071   0.185   0.311 -0.0476  0.2206  0.5213
  121MOL   C16738807   3.954   7.596   0.627  0.2215  0.0415 -0.0913
  121MOL   H16838808   4.127   7.601   0.513  0.8310  0.1296  0.7427
  121MOL   H16938809   4.213   7.817   0.566  0.8579 -0.1713 -1.1206
  121MOL   H17038810   4.204   7.767   0.406 -0.0362 -1.0458  2.1130
  121MOL   H17138811   4.252   0.179   0.430 -0.4097  1.1104 -0.2138
  121MOL   H17238812   4.106   0.215   0.518 -0.8824 -1.5166  0.2248
  121MOL   H17338813   4.101   0.288   0.288  0.0239  0.0446 -0.1649
  121MOL   H17438814   3.962   0.186   0.320 -0.1739 -0.6163 -0.8887
  121MOL   H17538815   4.106   0.116   0.236 -1.4079 -1.2849  1.2474
  121MOL   H17638816   3.852   7.635   0.632  0.5795  0.9680  0.1413
  121MOL   H17738817   3.943   7.489   0.611  1.2833 -0.1169  0.2185
  121MOL   C17838818   4.016   7.622   0.768 -0.3458  0.7423 -0.1677
  121MOL   O17938819   3.944   7.554   0.865  0.2836  0.0779  0.5503
  121MOL   C18038820   3.851   7.631   0.935  0.5271 -0.8152 -0.5479
  121MOL   C18138821   3.752   7.551   1.027  0.1510 -0.6201 -0.2866
  121MOL   C18238822   3.691   7.441   0.938  0.1842 -0.0338 -0.6497
  121MOL   C18338823   4.167   7.567   0.780  0.1768 -0.0065  0.0792
  121MOL   H18438824   4.015   7.729   0.783  0.1949  0.6497  0.5630
  121MOL   H18538825   3.909   7.692   1.005 -0.7960 -0.4393  0.2481
  121MOL   H18638826   3.785   7.694   0.875  1.0628  0.6512  0.3687
  121MOL   H18738827   3.667   7.597   1.077 -0.7248 -2.9053  0.3824
  121MOL   H18838828   3.817   7.511   1.105  1.0153 -0.7569 -1.0778
  121MOL   H18938829   3.616   7.469   0.864 -1.5196  1.6475  1.6279
  121MOL   H19038830   3.634   7.382   1.010 -0.0731  0.1823 -0.6734
  121MOL   H19138831   3.763   7.368   0.901 -1.5658 -1.1917 -1.8331
  121MOL   H19238832   4.222   7.616   0.699 -0.0882 -0.3712 -0.3261
  121MOL   H19338833   4.213   7.614   0.867  2.4242  0.4531 -1.2990
  121MOL   C19438834   4.186   7.415   0.776 -0.1192 -0.3760 -0.1259
  121MOL   O19538835   4.241   7.394   0.645 -0.4956  0.4307 -0.1914
  121MOL   C19638836   4.235   7.261   0.593  0.0893  0.1649  0.4117
  121MOL   C19738837   4.252   7.255   0.439 -0.0301  0.3304 -0.0526
  121MOL   C19838838   4.278   7.118   0.372  0.1714 -0.4415 -0.6998
  121MOL   C19938839   4.279   7.357   0.884 -0.2989 -0.2276 -0.0464
  121MOL   H20038840   4.091   7.361   0.780  0.4136 -1.2534  1.1589
  121MOL   H20138841   4.308   7.199   0.644  1.5499 -0.9908 -2.9885
  121MOL   H20238842   4.137   7.217   0.615 -0.6331  0.9798 -1.1086
  121MOL   H20338843   4.337   7.313   0.404  1.8441 -1.9049  0.6209
  121MOL   H20438844   4.160   7.298   0.400 -0.3093  0.1414  0.3990
  121MOL   H20538845   4.268   7.139   0.266 -1.3291 -0.2008 -0.5230
  121MOL   H20638846   4.205   7.044   0.405 -0.1454  0.6189  1.0414
  121MOL   H20738847   4.380   7.086   0.392 -0.1694 -0.4325  1.1956
  121MOL   H20838848   4.287   7.249   0.871 -1.5142 -0.3267 -0.0236
  121MOL   H20938849   4.381   7.395   0.876 -0.6182  0.4011 -1.2106
  121MOL   C21038850   4.237   7.367   1.027  0.6442  0.0169 -0.4118
  121MOL   O21138851   4.140   7.267   1.045  0.5546 -0.6141  0.0997
  121MOL   C21238852   4.014   7.315   1.097  0.0977 -0.0351  0.0514
  121MOL   C21338853   3.948   7.192   1.151 -0.8465 -0.1621 -0.1127
  121MOL   C21438854   4.041   7.083   1.219  0.0128  0.5061  0.7501
  121MOL   C21538855   4.344   7.347   1.134  0.0082 -0.0876 -0.4539
  121MOL   H21638856   4.182   7.461   1.034  0.3222 -0.1707 -0.3951
  121MOL   H21738857   4.033   7.379   1.183  0.2897  0.0333 -0.0425
  121MOL   H21838858   3.954   7.354   1.015  1.7569 -0.2142 -1.2894
  121MOL   H21938859   3.904   7.153   1.059  0.7377 -2.2196 -0.0325
  121MOL   H22038860   3.866   7.219   1.217 -1.2187  1.0204 -1.0342
  121MOL   H22138861   3.974   7.002   1.247  1.0480 -1.8588 -3.2600
  121MOL   H22238862   4.099   7.120   1.303  2.6587  0.0860 -0.8501
  121MOL   H22338863   4.119   7.049   1.152 -0.3050 -0.5454  0.9158
  121MOL   H22438864   4.297   7.320   1.228  1.6696 -0.2776  0.3432
  121MOL   H22538865   4.401   7.255   1.119  1.8295  0.9747 -0.1226
  121MOL   C22638866   4.424   7.471   1.157  0.1372 -0.1747 -0.0155
  121MOL   O22738867   4.367   7.540   1.265  0.0072 -0.4338 -0.3379
  121MOL   C22838868   4.273   7.636   1.221  0.0151  1.0162 -0.1025
  121MOL   C22938869   4.261   7.714   1.344 -0.5054  0.5901  0.0815
  121MOL   C23038870   4.160   7.826   1.337  0.1680  0.1991  0.4091
  121MOL   C23138871   4.569   7.429   1.200 -0.0928 -0.3100 -0.0240
  121MOL   H23238872   4.429   7.535   1.069  1.6762  0.1744  0.3157
  121MOL   H23338873   4.296   7.706   1.141  2.4017  1.1517  0.6632
  121MOL   H23438874   4.178   7.586   1.203  0.4180 -0.0081  0.5744
  121MOL   H23538875   4.360   7.745   1.374  0.8861 -1.1931 -2.4122
  121MOL   H23638876   4.224   7.654   1.427 -1.3253 -0.0050 -0.6983
  121MOL   H23738877   4.136   0.036   1.436 -0.2825  0.6491  0.1281
  121MOL   H23838878   4.073   7.788   1.284  1.2157 -0.0140 -1.2072
  121MOL   H23938879   4.187   0.087   1.281  0.6233  0.4837  1.0652
  121MOL   H24038880   4.570   7.372   1.293  1.6727 -0.3543 -0.0541
  121MOL   H24138881   4.611   7.357   1.130 -2.3819 -2.2409  0.5008
  121MOL   C24238882   4.672   7.544   1.214  0.2431 -0.6433 -0.4099
  121MOL   O24338883   4.788   7.507   1.289 -0.0035  0.2747  0.2283
  121MOL   C24438884   4.782   7.531   1.428 -0.1150 -0.5476 -0.9201
  121MOL   C24538885   4.914   7.484   1.493 -0.0079  0.1651 -0.0655
  121MOL   C24638886   5.047   7.520   1.422  0.1892 -0.3525 -0.4762
  121MOL   C24738887   4.717   7.596   1.073 -0.0627  0.4060  0.1364
  121MOL   H24838888   4.619   7.622   1.267 -1.0587 -1.3248 -0.6983
  121MOL   H24938889   4.775   7.638   1.448  0.5387 -0.9666  1.8085
  121MOL   H25038890   4.692   7.494   1.477 -0.6297  0.6451 -0.9253
  121MOL   H25138891   4.908   7.378   1.513  0.2112 -0.5579 -3.4981
  121MOL   H25238892   4.937   7.525   1.591 -0.3612 -2.6300  1.2009
  121MOL   H25338893   5.135   7.496   1.482  0.7925 -0.2463 -1.3110
  121MOL   H25438894   5.045   7.623   1.387 -0.2583 -0.4338 -0.6873
  121MOL   H25538895   5.071   7.450   1.342  0.3021  1.1253 -1.7658
  121MOL   H25638896   4.812   7.553   1.041 -1.7534 -3.5449  0.0286
  121MOL   H25738897   4.642   7.559   1.003  0.9751  1.2972 -1.4561
  121MOL   C25838898   4.729   7.750   1.066 -0.1313 -0.5389  0.5418
  121MOL   O25938899   4.814   7.774   0.948  0.1878  0.4546 -0.1371
  121MOL   C26038900   4.952   7.765   0.969 -0.4092 -0.1126 -0.2785
  121MOL   C26138901   5.036   7.729   0.843  0.5276  0.0963 -0.1886
  121MOL   C26238902   5.038   0.004   0.736  0.2361 -0.7124 -0.5171
  121MOL   C26338903   4.585   7.813   1.053 -0.3103  0.4275 -0.1748
  121MOL   H26438904   4.777   7.791   1.155 -0.9057  2.4373 -0.3551
  121MOL   H26538905   4.980   0.037   1.001  1.1730 -1.2526  1.9879
  121MOL   H26638906   4.977   7.697   1.050 -0.4318  0.3559  0.1159
  121MOL   H26738907   5.000   7.635   0.801  0.0127 -0.4522  1.4767
  121MOL   H26838908   5.137   7.695   0.868  0.0644 -0.6882  0.6118
  121MOL   H26938909   5.112   0.082   0.754  0.9986 -1.7316  0.8512
  121MOL   H27038910   4.941   0.049   0.715  0.0999 -1.6120 -1.9253
  121MOL   H27138911   5.065   7.787   0.640 -0.2475 -0.3035 -0.8502
  121MOL   H27238912   4.541   7.779   0.960  1.0272 -1.5033 -0.1399
  121MOL   H27338913   4.523   7.777   1.136  1.3101 -2.5204 -0.1403
  121MOL   C27438914   4.587   0.139   1.049 -0.0158  0.9042  0.5640
  121MOL   O27538915   4.466   0.184   0.987 -0.2170  0.0276  0.3236
  121MOL   C27638916   4.490   0.223   0.850 -0.2302 -0.3638 -0.4652
  121MOL   C27738917   4.356   0.275   0.791 -0.4088 -0.1631 -0.1116
  121MOL   C27838918   4.324   0.421   0.846  0.5895 -0.0084 -0.2827
  121MOL   C27938919   4.583   0.210   1.184 -0.8449 -0.9574 -0.4766
  121MOL   H28038920   4.678   0.174   1.000  0.5534 -0.4339  0.6502
  121MOL   H28138921   4.562   0.306   0.845  1.3589 -1.7691 -1.7148
  121MOL   H28238922   4.542   0.140   0.802 -0.4876 -0.9814  0.3234
  121MOL   H28338923   4.267   0.220   0.823  0.5967 -0.1581  2.8794
  121MOL   H28438924   4.374   0.271   0.684  1.5166  1.5528  0.1167
  121MOL   H28538925   4.229   0.464   0.812  0.1995  1.0786  2.0993
  121MOL   H28638926   4.392   0.494   0.801 -1.7848  2.7263  0.4070
  121MOL   H28738927   4.336   0.429   0.954  2.3101 -0.2189 -0.4453
  121MOL   H28838928   4.580   0.317   1.162  1.3485 -1.0446 -1.2711
  121MOL   H28938929   4.486   0.184   1.227 -0.8691 -0.5982 -0.3091
  121MOL   C29038930   4.691   0.194   1.291  0.1273  0.2365  0.0787
  121MOL   O29138931   4.687   0.064   1.350  0.5392 -0.6645  0.9370
  121MOL   C29238932   4.604   0.041   1.462  0.3053 -0.3475  0.3312
  121MOL   C29338933   4.696   0.068   1.592  0.2377  0.5034  0.0197
  121MOL   C29438934   4.612   0.052   1.719  0.1672  0.2894  0.2907
  121MOL   C29538935   4.838   0.232   1.250 -0.0872 -1.1344 -0.0878
  121MOL   H29638936   4.666   0.264   1.371  2.3962  1.2661 -0.0745
  121MOL   H29738937   4.519   0.109   1.464  1.0462  0.5972  0.2096
  121MOL   H29838938   4.566   7.767   1.463  0.6490 -0.4728  0.7226
  121MOL   H29938939   4.732   0.171   1.589 -0.0907  0.5979 -1.0094
  121MOL   H30038940   4.791   0.015   1.585  0.1578  0.4877 -1.1082
  121MOL   H30138941   4.664   0.088   1.808  0.7715 -1.4312  0.6499
  121MOL   H30238942   4.594   7.773   1.733 -2.0633  0.9304  2.6158
  121MOL   H30338943   4.514   0.099   1.714 -0.7070 -1.4656  0.5666
  121MOL   H30438944   4.874   0.158   1.179 -2.2545 -1.1779 -1.1788
  121MOL   H30538945   4.832   0.331   1.205 -0.2064 -0.2628  1.7826
  121MOL   C30638946   4.934   0.249   1.370 -0.3766  0.6097  0.2309
  121MOL   O30738947   5.071   0.254   1.315  0.9813  0.0103 -0.0679
  121MOL   C30838948   5.138   0.124   1.297 -0.1396 -0.0902 -0.2506
  121MOL   C30938949   5.238   0.124   1.174 -0.3708 -0.2925  0.0834
  121MOL   C31038950   5.291   7.814   1.148 -0.1378 -0.3416  0.1151
  121MOL   C31138951   4.925   0.379   1.459 -0.1425 -0.6250  0.3629
  121MOL   H31238952   4.944   0.165   1.439  2.0639  0.9917  0.3739
  121MOL   H31338953   5.187   0.090   1.389  2.0760 -1.0369 -1.7205
  121MOL   H31438954   5.064   0.046   1.277  0.7594 -0.5314 -1.9283
  121MOL   H31538955   5.327   0.186   1.184  1.7693 -3.2919  0.6500
  121MOL   H31638956   5.177   0.159   1.091 -2.3242  2.0808  2.4565
  121MOL   H31738957   5.353   7.778   1.231 -0.4526 -0.4960  0.2827
  121MOL   H31838958   5.346   7.798   1.055  0.6876  1.3011  0.2959
  121MOL   H31938959   5.201   7.753   1.150  0.1711 -0.8888 -1.5252
  121MOL   H32038960   4.823   0.402   1.489 -0.3241 -0.2439 -0.5276
  121MOL   H32138961   4.996   0.374   1.541 -0.0036  0.6874  0.3296
  121MOL   H32238962   4.962   0.469   1.408 -0.1565 -0.6595  0.2914
  122MOL     C138963   1.615   3.968   1.150  0.0992  0.6834  0.2887
  122MOL     O238964   1.512   3.906   1.230 -0.4843 -0.3686 -0.0696
  122MOL     C338965   1.523   3.764   1.227 -0.0434 -0.3400  0.6255
  122MOL     C438966   1.417   3.705   1.321  0.6999  0.1708 -0.4494
  122MOL     C538967   1.415   3.753   1.467  0.9604 -0.3028  0.1452
  122MOL     C638968   1.570   4.098   1.081  0.3991  0.9320  1.1412
  122MOL     H738969   1.644   3.906   1.066 -1.3654  0.5866 -0.1548
  122MOL     H838970   1.512   3.723   1.127  2.2867  3.2211 -1.1652
  122MOL     H938971   1.621   3.736   1.265 -0.4950 -0.7383  1.5274
  122MOL    H1038972   1.415   3.597   1.311  2.2550 -0.0291  1.1569
  122MOL    H1138973   1.320   3.735   1.282  0.7797  0.8345 -0.1389
  122MOL    H1238974   1.382   3.857   1.465  0.1104 -0.5483  0.9199
  122MOL    H1338975   1.516   3.738   1.505  0.7993 -2.7719 -0.3195
  122MOL    H1438976   1.350   3.697   1.534 -0.5906  0.7350 -0.4520
  122MOL    H1538977   1.650   4.127   1.012  0.7229 -0.9326  0.7242
  122MOL    H1638978   1.482   4.069   1.024 -0.6589  2.2584  2.0607
  122MOL    H1738979   1.703   3.985   1.212  1.3891  0.7521 -1.5309
  122MOL    C1838980   1.523   4.214   1.173  0.1661 -0.1578 -0.2153
  122MOL    O1938981   1.630   4.260   1.233 -0.5051 -0.1062 -0.3152
  122MOL    C2038982   1.650   4.221   1.368 -0.4352 -0.1587 -0.0568
  122MOL    C2138983   1.803   4.242   1.398  0.3104 -0.1173 -0.5867
  122MOL    C2238984   1.888   4.144   1.311 -0.3891  0.5407 -0.8774
  122MOL    C2338985   1.458   4.328   1.089  0.4131  0.2762 -0.3137
  122MOL    H2438986   1.459   4.166   1.247  0.3162 -1.4670 -0.9319
  122MOL    H2538987   1.591   4.286   1.432 -1.1503 -2.4657  1.6873
  122MOL    H2638988   1.618   4.118   1.385  0.7220 -0.6524 -0.8389
  122MOL    H2738989   1.809   4.225   1.505  1.2820  0.8226 -0.4917
  122MOL    H2838990   1.837   4.344   1.385  2.0288 -0.6484 -0.3539
  122MOL    H2938991   1.861   4.041   1.334  1.5179  0.3025  0.3792
  122MOL    H3038992   1.996   4.148   1.325 -0.5356  1.1849  0.1842
  122MOL    H3138993   1.875   4.157   1.204  0.1050  1.7195 -0.7995
  122MOL    H3238994   1.408   4.396   1.159  1.3057  1.6939 -1.0264
  122MOL    H3338995   1.536   4.389   1.043  1.3750 -0.0804  0.8188
  122MOL    C3438996   1.347   4.297   0.985  0.4852 -0.4637 -0.2209
  122MOL    O3538997   1.251   4.214   1.051 -0.0952  0.7614 -0.5351
  122MOL    C3638998   1.165   4.139   0.968 -0.5122  0.0610  0.0826
  122MOL    C3738999   1.100   4.030   1.060  0.1378  0.2829  0.5455
  122MOL    C3839000   1.188   3.927   1.129  0.3830 -0.4765 -1.2347
  122MOL    C3939001   1.268   4.424   0.938 -0.1517 -0.4730 -0.0326
  122MOL    H4039002   1.403   4.254   0.902 -0.1772  0.8093 -1.3433
  122MOL    H4139003   1.095   4.196   0.908 -1.9414  0.3465  1.9888
  122MOL    H4239004   1.235   4.089   0.900  2.8027  2.6388  1.4700
  122MOL    H4339005   1.030   3.979   0.995 -1.0880 -0.3826  2.3383
  122MOL    H4439006   1.035   4.092   1.122  1.7867  1.5486  1.0597
  122MOL    H4539007   1.280   3.968   1.171  0.1812 -1.9427  0.6862
  122MOL    H4639008   1.233   3.863   1.053 -0.3032 -3.2971  0.6781
  122MOL    H4739009   1.146   3.863   1.206 -1.2112  0.0349 -1.6642
  122MOL    H4839010   1.193   4.397   0.865 -1.3106 -0.3358  1.0961
  122MOL    H4939011   1.214   4.471   1.020  1.5278 -0.0994  0.8833
  122MOL    C5039012   1.352   4.534   0.864  0.2283  0.8036 -0.1674
  122MOL    O5139013   1.385   4.471   0.738  0.6840 -0.3117  0.3532
  122MOL    C5239014   1.529   4.463   0.713 -0.4983 -0.3413  0.1376
  122MOL    C5339015   1.553   4.380   0.589 -0.7720  0.1718  0.7082
  122MOL    C5439016   1.501   4.236   0.608  0.2642  0.5888  0.0695
  122MOL    C5539017   1.279   4.664   0.831  0.2500 -0.7174  0.3606
  122MOL    H5639018   1.437   4.557   0.929 -0.1450  0.4933  0.4366
  122MOL    H5739019   1.575   4.559   0.689  1.2745 -0.4677  2.8556
  122MOL    H5839020   1.569   4.422   0.806  0.1666  0.3101  0.1430
  122MOL    H5939021   1.661   4.379   0.573 -0.8934  0.2999 -0.1478
  122MOL    H6039022   1.505   4.420   0.499 -0.8181  0.6519  0.9473
  122MOL    H6139023   1.552   4.191   0.694  0.3252  0.8761  0.1822
  122MOL    H6239024   1.523   4.184   0.514  1.0383  0.0060  0.5636
  122MOL    H6339025   1.395   4.225   0.628  0.9105 -1.6937  2.5294
  122MOL    H6439026   1.179   4.642   0.794  2.6884 -2.4908 -5.8158
  122MOL    H6539027   1.261   4.712   0.927 -1.6225 -0.7533  0.0389
  122MOL    C6639028   1.354   4.761   0.729 -0.7669 -0.0618  0.2317
  122MOL    O6739029   1.246   4.841   0.677  0.4146 -0.2871  0.2543
  122MOL    C6839030   1.207   4.815   0.541 -0.1299  0.7125 -0.1236
  122MOL    C6939031   1.083   4.897   0.514 -0.2712  0.8643 -1.0534
  122MOL    C7039032   1.011   4.912   0.375 -0.4902 -0.5360  0.6346
  122MOL    C7139033   1.455   4.849   0.795  0.3231 -0.1882  0.0937
  122MOL    H7239034   1.409   4.714   0.647  1.7844  4.1181 -0.5961
  122MOL    H7339035   1.281   4.850   0.469 -1.3351  1.8131 -0.8423
  122MOL    H7439036   1.179   4.711   0.524  0.0319  0.5362  0.6771
  122MOL    H7539037   1.104   5.003   0.524 -1.4556  1.1795 -1.6876
  122MOL    H7639038   1.008   4.871   0.589  0.7218  2.4230  0.4872
  122MOL    H7739039   0.913   4.958   0.377  0.2388  1.0146  1.1021
  122MOL    H7839040   0.999   4.810   0.337 -0.7511  0.4702 -2.1232
  122MOL    H7939041   1.081   4.958   0.304 -3.4130  3.2748  0.0559
  122MOL    H8039042   1.403   4.924   0.853  1.6560  0.5244  0.3794
  122MOL    H8139043   1.495   4.796   0.881 -1.6104 -0.6154  0.7659
  122MOL    C8239044   1.577   4.897   0.707 -0.1332 -0.8918  0.2774
  122MOL    O8339045   1.516   4.961   0.592  0.0817 -0.6276 -0.2105
  122MOL    C8439046   1.595   4.948   0.474 -0.0382  0.9512  0.7695
  122MOL    C8539047   1.542   5.044   0.369 -0.3577 -0.3674  0.0558
  122MOL    C8639048   1.640   5.057   0.241 -0.4725 -0.0094 -0.1596
  122MOL    C8739049   1.666   5.000   0.772  0.0121 -0.2489  0.7204
  122MOL    H8839050   1.639   4.808   0.704 -2.6878 -2.7164  0.2441
  122MOL    H8939051   1.699   4.979   0.486  0.2767  0.3018 -0.2382
  122MOL    H9039052   1.592   4.846   0.435  0.9683  1.6797 -1.2417
  122MOL    H9139053   1.519   5.138   0.419 -1.5417 -1.5716  1.8061
  122MOL    H9239054   1.441   5.020   0.336 -0.9236  2.6905 -0.6087
  122MOL    H9339055   1.598   5.106   0.153 -1.5799 -1.5920 -0.5294
  122MOL    H9439056   1.659   4.953   0.211 -2.8582 -0.7823  0.9356
  122MOL    H9539057   1.727   5.118   0.264 -2.9834  3.0111  1.6833
  122MOL    H9639058   1.713   5.062   0.695 -1.1097 -0.4962 -0.1867
  122MOL    H9739059   1.589   5.071   0.801 -0.8791 -0.1856 -1.6174
  122MOL    C9839060   1.743   4.943   0.894  0.1184 -0.4892 -0.5257
  122MOL    O9939061   1.855   4.880   0.844  0.2865  0.0172  0.0580
  122MOL   C10039062   1.885   4.772   0.929  0.1018  0.4976  0.0007
  122MOL   C10139063   2.019   4.729   0.862 -0.1828 -0.1564  0.1947
  122MOL   C10239064   2.138   4.827   0.894 -0.2703  0.4777  0.3112
  122MOL   C10339065   1.808   5.051   0.985  0.3678 -0.3654 -0.1211
  122MOL   H10439066   1.677   4.894   0.964 -0.0807  0.8828  0.2665
  122MOL   H10539067   1.903   4.789   1.035 -3.0068  1.2381  0.4691
  122MOL   H10639068   1.808   4.695   0.918 -0.4123  1.1731 -1.3068
  122MOL   H10739069   1.999   4.699   0.759 -4.1473 -1.3342  1.2128
  122MOL   H10839070   2.049   4.639   0.914 -1.7318 -0.8107 -0.0071
  122MOL   H10939071   2.113   4.927   0.857 -0.0752  0.6231  0.5769
  122MOL   H11039072   2.231   4.796   0.846  0.5211  1.2335  1.3447
  122MOL   H11139073   2.165   4.831   0.999 -1.2771 -1.3326  0.6461
  122MOL   H11239074   1.867   4.997   1.061  1.2635 -0.0613 -0.5912
  122MOL   H11339075   1.874   5.120   0.933  1.1406 -0.0337  1.2624
  122MOL   C11439076   1.711   5.144   1.067  0.4292 -0.0246  0.5088
  122MOL   O11539077   1.622   5.071   1.148  0.1364  0.0940  0.1521
  122MOL   C11639078   1.509   5.134   1.213 -0.6438 -0.2575  0.4824
  122MOL   C11739079   1.416   5.020   1.269  0.5950 -0.1178 -0.0226
  122MOL   C11839080   1.408   4.893   1.179 -0.6542  0.2203 -0.2265
  122MOL   C11939081   1.797   5.236   1.156  0.2888 -0.1334  0.4006
  122MOL   H12039082   1.658   5.209   0.998  0.5773 -0.3472  0.0903
  122MOL   H12139083   1.547   5.203   1.288  0.7797 -0.3600 -0.1323
  122MOL   H12239084   1.463   5.196   1.136  1.8259  0.4281 -0.4759
  122MOL   H12339085   1.325   5.078   1.283  0.7340  0.7657 -2.5637
  122MOL   H12439086   1.446   4.986   1.368  0.3203 -0.6964 -0.1346
  122MOL   H12539087   1.345   4.815   1.222 -0.4135 -0.1963 -0.6371
  122MOL   H12639088   1.504   4.847   1.159  0.4045  1.5165  1.7074
  122MOL   H12739089   1.348   4.927   1.094  0.2364 -1.6521 -1.6313
  122MOL   H12839090   1.853   5.182   1.232  0.5713 -1.5783 -0.8131
  122MOL   H12939091   1.882   5.270   1.097  0.4069 -0.9946  0.0710
  122MOL   C13039092   1.740   5.370   1.221  0.3224 -0.7436 -0.6755
  122MOL   O13139093   1.847   5.446   1.280 -0.0174 -0.1111 -0.2866
  122MOL   C13239094   1.856   5.439   1.428 -0.1439  0.5343  0.8682
  122MOL   C13339095   1.987   5.506   1.469 -0.7240 -0.2425 -0.1602
  122MOL   C13439096   2.010   5.513   1.624 -0.5098  0.5111  0.2716
  122MOL   C13539097   1.671   5.463   1.121 -0.6225  0.6543 -0.3424
  122MOL   H13639098   1.670   5.361   1.305  1.9895  0.8595  0.9396
  122MOL   H13739099   1.775   5.487   1.484  0.4043 -1.1321  3.1731
  122MOL   H13839100   1.867   5.337   1.464 -1.4118 -0.4058 -1.2892
  122MOL   H13939101   1.995   5.607   1.428 -2.1228 -0.7263 -1.6702
  122MOL   H14039102   2.063   5.446   1.419 -1.0963 -0.9699  0.1406
  122MOL   H14139103   2.011   5.412   1.665 -0.2772 -0.5111 -2.1783
  122MOL   H14239104   1.933   5.568   1.678  0.1931  0.2698  1.5463
  122MOL   H14339105   2.103   5.560   1.656 -0.4637  0.6874 -0.1287
  122MOL   H14439106   1.740   5.479   1.038  0.3310  1.0307  0.5120
  122MOL   H14539107   1.585   5.411   1.077  0.8297 -0.8076 -1.5223
  122MOL   C14639108   1.620   5.598   1.172  0.3703 -0.3371  0.1813
  122MOL   O14739109   1.551   5.668   1.071 -0.0119  0.0887 -0.0096
  122MOL   C14839110   1.639   5.743   0.994  0.2381 -0.0128 -0.0760
  122MOL   C14939111   1.571   5.767   0.858 -0.3181 -0.0526  0.3646
  122MOL   C15039112   1.660   5.823   0.746 -0.0768  0.0732  0.2977
  122MOL   C15139113   1.515   5.581   1.287 -0.6304 -0.0487  0.2634
  122MOL   H15239114   1.705   5.660   1.199  0.1171  0.9876 -1.8870
  122MOL   H15339115   1.665   5.838   1.039  2.4643 -0.6786  0.1224
  122MOL   H15439116   1.727   5.683   0.971  0.0331 -0.4736  0.3357
  122MOL   H15539117   1.482   5.830   0.869  0.2296  1.1392 -1.7913
  122MOL   H15639118   1.528   5.674   0.822  0.8328 -0.6180  0.4510
  122MOL   H15739119   1.696   5.734   0.695  0.0253  0.5098 -0.3937
  122MOL   H15839120   1.734   5.889   0.790  0.9478 -2.4419  2.4967
  122MOL   H15939121   1.599   5.885   0.681  0.2729  1.2184  1.0391
  122MOL   H16039122   1.439   5.505   1.268 -0.1587 -0.8724  1.5950
  122MOL   H16139123   1.580   5.538   1.363 -0.3158  0.8420  0.4956
  122MOL   C16239124   1.459   5.724   1.327 -0.1212 -0.2398 -0.2246
  122MOL   O16339125   1.574   5.817   1.324 -0.5534 -0.0438 -0.3672
  122MOL   C16439126   1.662   5.800   1.430 -0.2879 -0.3023 -0.2445
  122MOL   C16539127   1.792   5.889   1.396 -0.4745 -0.3691 -0.4647
  122MOL   C16639128   1.784   6.043   1.422  0.1335  0.6452  0.9317
  122MOL   C16739129   1.340   5.791   1.242  0.3368  0.4643  0.2350
  122MOL   H16839130   1.421   5.718   1.429 -1.3328 -3.2428 -0.8206
  122MOL   H16939131   1.621   5.835   1.525  0.4357  2.4144 -0.8792
  122MOL   H17039132   1.686   5.695   1.445  0.2594 -0.3119 -1.1331
  122MOL   H17139133   1.834   5.866   1.298 -2.5726 -1.1184 -1.2088
  122MOL   H17239134   1.867   5.850   1.464 -0.0911  2.9132  1.1149
  122MOL   H17339135   1.871   6.106   1.400 -0.1771  1.0623  0.8904
  122MOL   H17439136   1.768   6.062   1.528  0.9394 -0.6336  1.2975
  122MOL   H17539137   1.708   6.093   1.362 -1.0099 -0.9639  1.0433
  122MOL   H17639138   1.313   5.888   1.282  1.3706  0.4159  1.0911
  122MOL   H17739139   1.385   5.806   1.144 -0.1002 -0.6409 -0.1469
  122MOL   C17839140   1.221   5.701   1.230  0.1818  0.2170  0.9645
  122MOL   O17939141   1.170   5.697   1.359 -0.2673  0.0053 -0.2147
  122MOL   C18039142   1.121   5.565   1.396  0.4902 -0.1407  0.1805
  122MOL   C18139143   1.084   5.564   1.542  0.3192  0.6493 -0.0049
  122MOL   C18239144   1.203   5.610   1.622  0.3011 -1.2676  0.1414
  122MOL   C18339145   1.109   5.751   1.139  0.4627  0.9948 -0.6486
  122MOL   H18439146   1.249   5.603   1.190  0.0834 -0.0570  1.5653
  122MOL   H18539147   1.035   5.538   1.336 -0.4075 -1.0200  1.8227
  122MOL   H18639148   1.198   5.490   1.376  0.1888 -1.2376  2.9123
  122MOL   H18739149   1.048   5.469   1.581  2.7160 -0.4768 -0.4471
  122MOL   H18839150   0.998   5.627   1.562 -1.0394 -0.7088 -1.4570
  122MOL   H18939151   1.205   5.571   1.723  1.4436 -0.8287  0.3052
  122MOL   H19039152   1.191   5.718   1.635  2.2224 -1.1254  0.9238
  122MOL   H19139153   1.301   5.593   1.576 -0.8122 -1.2007 -2.3491
  122MOL   H19239154   1.031   5.675   1.146 -0.3471  1.9008  0.4572
  122MOL   H19339155   1.079   5.853   1.163 -0.7353  0.6689 -0.6995
  122MOL   C19439156   1.133   5.744   0.987 -0.2103  0.3612  0.1395
  122MOL   O19539157   1.148   5.605   0.953 -0.1263 -0.5589 -1.1112
  122MOL   C19639158   1.221   5.583   0.834 -0.2577  0.4556  0.1310
  122MOL   C19739159   1.185   5.447   0.792  0.7235  0.4919 -0.2801
  122MOL   C19839160   1.221   5.338   0.895 -0.0683 -0.7290 -0.0039
  122MOL   C19939161   1.017   5.812   0.911 -0.6442  0.4923 -0.6662
  122MOL   H20039162   1.228   5.793   0.963  1.2167 -1.3559  2.0650
  122MOL   H20139163   1.204   5.652   0.751  1.0217  1.9808  1.1024
  122MOL   H20239164   1.326   5.590   0.862 -0.3277 -0.9413  0.7573
  122MOL   H20339165   1.224   5.422   0.694 -3.0115 -0.9916 -1.4893
  122MOL   H20439166   1.077   5.446   0.775  0.5174  1.6419  0.8764
  122MOL   H20539167   1.212   5.239   0.850 -0.6302 -0.7120  0.0720
  122MOL   H20639168   1.159   5.344   0.985 -1.9052 -1.4435 -1.1937
  122MOL   H20739169   1.323   5.345   0.935 -0.4954  0.5217  0.9016
  122MOL   H20839170   1.008   5.914   0.948 -0.8920 -0.1529  1.0607
  122MOL   H20939171   1.047   5.819   0.806 -0.4739  1.9314 -0.5289
  122MOL   C21039172   0.882   5.740   0.918  0.9748  0.1547  0.1047
  122MOL   O21139173   0.792   5.838   0.958  0.0261 -0.2959 -1.0391
  122MOL   C21239174   0.707   5.806   1.068 -0.0882 -0.9978  0.6734
  122MOL   C21339175   0.590   5.902   1.063  0.6329 -0.3258 -0.8484
  122MOL   C21439176   0.484   5.870   1.181 -0.2320  0.0399  0.0770
  122MOL   C21539177   0.840   5.689   0.774 -0.1519  0.1334  0.0079
  122MOL   H21639178   0.885   5.656   0.987 -0.7027 -0.2892 -0.3328
  122MOL   H21739179   0.666   5.708   1.041 -0.9270 -0.1075 -1.3635
  122MOL   H21839180   0.763   5.807   1.162  2.3924 -0.4739 -0.7690
  122MOL   H21939181   0.536   5.897   0.969  1.6862 -1.8444 -1.4068
  122MOL   H22039182   0.621   6.004   1.085  1.2876 -0.3037 -1.8257
  122MOL   H22139183   0.546   5.847   1.268 -2.7401 -0.9275  1.6377
  122MOL   H22239184   0.430   5.782   1.146 -2.1830  2.0400 -2.1321
  122MOL   H22339185   0.410   5.946   1.205  0.3846 -0.4555  3.9293
  122MOL   H22439186   0.836   5.775   0.708 -0.4525 -0.5882 -0.9096
  122MOL   H22539187   0.907   5.628   0.714 -1.0006 -0.6067 -0.1759
  122MOL   C22639188   0.715   5.608   0.772  0.1133  0.3503  0.5318
  122MOL   O22739189   0.683   5.594   0.632 -0.2811  0.1661 -0.0593
  122MOL   C22839190   0.611   5.697   0.578 -0.1132 -0.2046 -0.2919
  122MOL   C22939191   0.646   5.708   0.431 -0.7052  0.1705  0.1908
  122MOL   C23039192   0.784   5.748   0.397  0.0438  0.0622  0.0895
  122MOL   C23139193   0.736   5.458   0.818 -0.1806  0.3279  0.0839
  122MOL   H23239194   0.635   5.652   0.830 -0.7406 -1.5300  0.8075
  122MOL   H23339195   0.505   5.672   0.587 -0.0142 -0.6682 -0.4200
  122MOL   H23439196   0.625   5.796   0.621 -3.1783  0.5227 -0.8218
  122MOL   H23539197   0.588   5.779   0.372 -0.1675  2.3431  2.1983
  122MOL   H23639198   0.638   5.614   0.376  2.2460  0.4965 -0.8753
  122MOL   H23739199   0.854   5.668   0.419  2.2184  2.1516  1.0884
  122MOL   H23839200   0.809   5.842   0.448 -2.4150  0.7967  0.0072
  122MOL   H23939201   0.780   5.769   0.290 -0.1713 -0.9560 -0.1075
  122MOL   H24039202   0.748   5.390   0.734 -2.1287 -0.7813  0.6671
  122MOL   H24139203   0.831   5.442   0.869 -0.6610 -0.2772  0.7961
  122MOL   C24239204   0.620   5.403   0.902  0.2377  0.4489  0.0227
  122MOL   O24339205   0.607   5.471   1.026  0.0326  0.1958 -0.2060
  122MOL   C24439206   0.696   5.432   1.129 -0.2264 -0.0556 -0.1354
  122MOL   C24539207   0.659   5.496   1.265 -0.0457 -0.0633  0.3939
  122MOL   C24639208   0.508   5.460   1.296 -0.3925 -0.7501  0.1498
  122MOL   C24739209   0.478   5.405   0.830  0.1795  0.6040 -0.3781
  122MOL   H24839210   0.624   5.295   0.917 -0.8018  0.5905  1.3219
  122MOL   H24939211   0.681   5.327   1.156 -0.9578  0.4453  1.4615
  122MOL   H25039212   0.798   5.459   1.100 -0.1061  2.2840  2.2982
  122MOL   H25139213   0.662   5.604   1.250  0.2008 -0.5787 -4.0048
  122MOL   H25239214   0.727   5.471   1.346 -0.6603 -1.2828  0.5624
  122MOL   H25339215   0.485   5.355   1.316 -0.0024 -0.6665  1.0555
  122MOL   H25439216   0.438   5.494   1.219  1.8040 -0.3125 -1.7190
  122MOL   H25539217   0.469   5.512   1.383 -0.3880 -2.0311  0.9159
  122MOL   H25639218   0.405   5.357   0.895 -0.0513 -0.1695 -1.1970
  122MOL   H25739219   0.438   5.503   0.806  3.3470  1.8654 -0.8166
  122MOL   C25839220   0.470   5.345   0.682 -0.2108  0.4595 -0.5255
  122MOL   O25939221   0.474   5.202   0.684  0.2512  0.4305 -0.1934
  122MOL   C26039222   0.602   5.145   0.679 -0.7486  0.8062 -0.1913
  122MOL   C26139223   0.587   5.001   0.634 -0.4332 -0.3692 -0.0978
  122MOL   C26239224   0.503   4.925   0.738 -0.1947  0.3066  0.7953
  122MOL   C26339225   0.338   5.384   0.616 -0.1598  0.2670  0.2341
  122MOL   H26439226   0.555   5.381   0.624  1.8962  2.1498  3.4343
  122MOL   H26539227   0.670   5.205   0.618  0.7253  0.1792  0.8028
  122MOL   H26639228   0.644   5.147   0.780 -0.1312 -0.3148 -0.4204
  122MOL   H26739229   0.686   4.960   0.614  0.0819 -0.4551  2.5128
  122MOL   H26839230   0.545   5.015   0.534 -0.6223 -0.1312  0.0130
  122MOL   H26939231   0.488   4.824   0.700 -1.3998  0.3336  1.1640
  122MOL   H27039232   0.410   4.974   0.767 -1.2668 -2.5015  2.3167
  122MOL   H27139233   0.549   4.913   0.836 -1.8685  1.0715  1.7118
  122MOL   H27239234   0.253   5.367   0.682  1.9768  0.8615  3.2407
  122MOL   H27339235   0.330   5.493   0.617  2.5394  0.4948 -0.2964
  122MOL   C27439236   0.308   5.329   0.470  0.3624 -0.5066 -0.6679
  122MOL   O27539237   0.187   5.404   0.438  0.0946  0.2871  0.5460
  122MOL   C27639238   0.072   5.319   0.418  0.4909  0.0129  0.3377
  122MOL   C27739239   7.820   5.296   0.544 -0.2447 -0.5086  0.2254
  122MOL   C27839240   7.775   5.424   0.614  0.3069  0.6942  0.3357
  122MOL   C27939241   0.424   5.358   0.365  0.1968  0.1309 -0.3116
  122MOL   H28039242   0.283   5.224   0.478 -0.2280 -0.4576 -1.8176
  122MOL   H28139243   0.010   5.372   0.345  2.0669  1.0949 -0.2223
  122MOL   H28239244   0.098   5.224   0.372  0.8855  0.1984  0.1790
  122MOL   H28339245   0.057   5.237   0.608 -0.9480 -1.6334 -0.0820
  122MOL   H28439246   7.735   5.233   0.517 -0.7387  0.8220 -1.4246
  122MOL   H28539247   7.705   5.485   0.557  0.8682  0.6035 -0.4608
  122MOL   H28639248   0.024   5.500   0.628 -0.8231  2.0472 -0.6067
  122MOL   H28739249   7.725   5.405   0.709 -1.4589 -1.9182 -1.0675
  122MOL   H28839250   0.456   5.462   0.367  1.4723 -0.2384 -1.0076
  122MOL   H28939251   0.510   5.298   0.393 -0.0452  0.2449  0.6927
  122MOL   C29039252   0.393   5.312   0.220  0.4652 -0.2594  0.4407
  122MOL   O29139253   0.299   5.398   0.161 -0.0773  0.6681  0.7026
  122MOL   C29239254   0.211   5.338   0.065 -0.1573 -0.3378  0.2832
  122MOL   C29339255   0.138   5.439   7.813  0.5583  0.1191 -0.3286
  122MOL   C29439256   0.036   5.529   0.061  0.5455 -0.3652 -0.4184
  122MOL   C29539257   0.514   5.324   0.129  0.8874 -0.5977 -0.1206
  122MOL   H29639258   0.356   5.211   0.205 -1.8903  0.9706 -2.2607
  122MOL   H29739259   0.272   5.272   0.003  1.2283 -1.1168  2.4199
  122MOL   H29839260   0.141   5.275   0.120 -0.2187 -0.0676  0.5163
  122MOL   H29939261   0.092   5.388   7.728  1.0462  0.3242 -0.7198
  122MOL   H30039262   0.214   5.508   7.775 -0.7100  1.2272 -0.8968
  122MOL   H30139263   0.073   5.590   0.143 -0.0330 -1.5669  0.7528
  122MOL   H30239264   7.785   5.465   0.102  0.2665  0.4493  0.3234
  122MOL   H30339265   7.817   5.612   0.009 -0.7499 -1.6026 -1.2706
  122MOL   H30439266   0.485   5.360   0.031 -1.0062 -0.6733  0.3909
  122MOL   H30539267   0.575   5.405   0.169 -1.8526  1.1118  0.7816
  122MOL   C30639268   0.606   5.202   0.131 -0.5599  0.4677 -0.4324
  122MOL   O30739269   0.543   5.087   0.067 -0.2797 -0.1455  0.5384
  122MOL   C30839270   0.580   4.963   0.122 -0.6928  0.0513  0.3516
  122MOL   C30939271   0.597   4.862   0.009  0.5034  0.1623 -0.5294
  122MOL   C31039272   0.472   4.835   7.757  0.3215 -0.0459 -0.0342
  122MOL   C31139273   0.735   5.227   0.053  1.1487 -0.3049  0.1516
  122MOL   H31239274   0.644   5.172   0.229  2.3071  0.6623 -1.4315
  122MOL   H31339275   0.670   4.979   0.181 -0.5020  1.0817 -0.2215
  122MOL   H31439276   0.506   4.929   0.195 -3.3522  1.6864 -1.4830
  122MOL   H31539277   0.642   4.769   0.044 -0.3093 -0.6414 -1.5933
  122MOL   H31639278   0.673   4.900   7.769 -0.6606  0.4212 -1.7074
  122MOL   H31739279   0.460   4.913   7.682 -2.0969 -1.1716 -0.8821
  122MOL   H31839280   0.376   4.832   7.809 -0.9055  2.4535 -2.0275
  122MOL   H31939281   0.482   4.754   7.684 -0.6195  0.3649 -0.6325
  122MOL   H32039282   0.804   5.143   0.053  0.0391 -1.2684 -2.4600
  122MOL   H32139283   0.716   5.239   7.774  1.3869 -0.5053  0.0867
  122MOL   H32239284   0.786   5.321   0.074  1.3798 -0.6378  1.1249
  123MOL     C139285   7.822   4.761   6.274  0.8523  0.1585  0.0377
  123MOL     O239286   7.724   4.863   6.275  0.2715 -0.1536  0.0556
  123MOL     C339287   7.592   4.813   6.306  0.4522 -0.0007 -0.1287
  123MOL     C439288   7.487   4.885   6.214  0.0293 -0.7222 -0.1004
  123MOL     C539289   7.519   4.876   6.063  0.1066 -0.2139 -0.0655
  123MOL     C639290   0.008   4.695   6.132 -0.1090  0.6653 -0.4210
  123MOL     H739291   7.809   4.684   6.351 -1.2917 -1.5481 -1.9644
  123MOL     H839292   7.586   4.705   6.299  0.8095  0.0420 -1.1290
  123MOL     H939293   7.578   4.836   6.412  1.0381  0.5414 -0.1642
  123MOL    H1039294   7.487   4.990   6.243 -0.5290 -1.0442  1.0791
  123MOL    H1139295   7.386   4.850   6.235  0.5557 -2.3633 -0.2195
  123MOL    H1239296   7.541   4.770   6.048 -0.9723 -0.5600  0.7103
  123MOL    H1339297   7.607   4.932   6.031  0.3249 -0.4310  0.1518
  123MOL    H1439298   7.432   4.904   6.003  0.1348 -1.3661 -0.6629
  123MOL    H1539299   7.762   4.615   6.131  2.1118 -1.4884  1.5550
  123MOL    H1639300   7.809   4.766   6.054  0.6531  0.3126 -1.0169
  123MOL    H1739301   0.095   4.800   6.292  1.1359 -0.6915  0.3466
  123MOL    C1839302   0.150   4.634   6.115  0.1720  0.4263 -0.4300
  123MOL    O1939303   0.169   4.522   6.203  0.0855  0.2068 -0.3189
  123MOL    C2039304   0.297   4.515   6.265  0.2824 -0.3050  0.0903
  123MOL    C2139305   0.316   4.393   6.346 -0.0089 -0.1331  0.7228
  123MOL    C2239306   0.235   4.391   6.470 -0.8521  0.1420 -0.8250
  123MOL    C2339307   0.175   4.585   5.962  0.0289 -0.4262  0.4885
  123MOL    H2439308   0.219   4.716   6.135 -2.2311  1.4713  4.1409
  123MOL    H2539309   0.378   4.527   6.193  1.9127  1.6133  2.1469
  123MOL    H2639310   0.323   4.600   6.329 -0.0524 -0.9283  1.0737
  123MOL    H2739311   0.421   4.391   6.375 -0.2409 -0.6760  1.5688
  123MOL    H2839312   0.311   4.303   6.284 -3.0551  0.3270  0.2012
  123MOL    H2939313   0.238   4.302   6.532  2.0897  0.8793  0.1512
  123MOL    H3039314   0.130   4.393   6.440 -1.3433  0.8341  0.8973
  123MOL    H3139315   0.251   4.477   6.535 -4.2895 -0.7104  1.3025
  123MOL    H3239316   0.257   4.513   5.967  2.4892  2.2983  0.6351
  123MOL    H3339317   0.086   4.538   5.921  0.3767  0.5526 -1.4370
  123MOL    C3439318   0.226   4.692   5.866  0.0852 -0.0346  0.1517
  123MOL    O3539319   0.359   4.714   5.899  0.0924  0.0594 -0.3185
  123MOL    C3639320   0.400   4.850   5.878 -0.3587 -0.4261 -0.4498
  123MOL    C3739321   0.550   4.848   5.858  0.4313  0.0757 -0.1239
  123MOL    C3839322   0.618   4.782   5.736  0.2022  0.9909 -0.4755
  123MOL    C3939323   0.212   4.648   5.715 -0.1763  0.6236  0.1170
  123MOL    H4039324   0.161   4.779   5.877 -0.4404 -0.2663 -1.0264
  123MOL    H4139325   0.362   4.888   5.783  0.0557 -0.6217 -0.6986
  123MOL    H4239326   0.378   4.917   5.961  0.6471  0.0713 -0.5805
  123MOL    H4339327   0.596   4.817   5.952  1.0231 -0.2945 -0.5320
  123MOL    H4439328   0.583   4.951   5.845 -0.5344  0.5237  0.9297
  123MOL    H4539329   0.551   4.784   5.650 -1.1353  0.4931  0.5392
  123MOL    H4639330   0.626   4.677   5.764 -0.3630  0.5570 -1.8795
  123MOL    H4739331   0.711   4.833   5.708  0.9888  0.6328  1.4194
  123MOL    H4839332   0.313   4.622   5.683 -0.4540  0.2880 -0.4876
  123MOL    H4939333   0.156   4.555   5.704  1.4174 -0.4378  0.7711
  123MOL    C5039334   0.161   4.750   5.614 -0.3444 -0.5439 -0.2115
  123MOL    O5139335   0.210   4.714   5.486  0.4783 -0.6405  0.4008
  123MOL    C5239336   0.266   4.820   5.411 -0.1715  0.2065 -0.3102
  123MOL    C5339337   0.335   4.768   5.289  0.1705 -0.6263 -0.7062
  123MOL    C5439338   0.430   4.648   5.316 -0.6055 -0.7201 -0.1391
  123MOL    C5539339   0.008   4.761   5.616 -0.0779 -0.4704 -0.8182
  123MOL    H5639340   0.192   4.850   5.645  0.2193 -0.2591 -1.6312
  123MOL    H5739341   0.203   4.908   5.396  1.2862  1.1692 -0.9432
  123MOL    H5839342   0.346   4.861   5.474  0.0066  1.0178 -1.0613
  123MOL    H5939343   0.393   4.854   5.257  1.3763 -0.8904  0.6911
  123MOL    H6039344   0.265   4.753   5.207 -0.3356 -3.0835  0.1271
  123MOL    H6139345   0.441   4.589   5.224  2.3565 -3.0166  1.5967
  123MOL    H6239346   0.403   4.572   5.389 -1.1211 -0.0838  0.3284
  123MOL    H6339347   0.525   4.688   5.351  0.2332 -3.5875  1.0379
  123MOL    H6439348   7.809   4.659   5.589  0.4500 -0.7339 -0.3515
  123MOL    H6539349   7.799   4.764   5.718  0.0582 -0.5033 -0.7689
  123MOL    C6639350   7.754   4.865   5.526 -0.0602 -0.5515  0.3083
  123MOL    O6739351   7.620   4.813   5.528  0.1860  0.0722  0.0164
  123MOL    C6839352   7.587   4.726   5.423  0.5766 -0.7169 -0.4614
  123MOL    C6939353   7.450   4.670   5.459 -0.4021 -1.0656 -0.2698
  123MOL    C7039354   7.355   4.663   5.335  0.2005 -0.8505  0.0264
  123MOL    C7139355   7.758   5.005   5.586 -0.5063  0.1456  0.3094
  123MOL    H7239356   7.800   4.859   5.427 -2.3467  0.3301 -0.8561
  123MOL    H7339357   7.588   4.783   5.330 -0.8729 -1.9977 -1.2921
  123MOL    H7439358   7.658   4.644   5.412  0.6268 -0.6455 -0.6777
  123MOL    H7539359   7.416   4.748   5.527  2.4319  0.8373 -0.9136
  123MOL    H7639360   7.455   4.577   5.515 -0.6031 -0.7024  0.3540
  123MOL    H7739361   7.257   4.689   5.374 -0.7929  0.0765 -2.9767
  123MOL    H7839362   7.351   4.558   5.305  1.1112 -0.9680  0.2765
  123MOL    H7939363   7.373   4.735   5.256 -1.3741 -1.0685 -0.5472
  123MOL    H8039364   7.700   5.008   5.679  1.1775 -0.9720  1.4242
  123MOL    H8139365   0.032   5.026   5.617 -0.1601 -1.1312  0.0671
  123MOL    C8239366   7.708   5.118   5.500  0.2883 -0.0320 -0.7513
  123MOL    O8339367   7.711   5.238   5.575  0.1759  0.0868  0.3810
  123MOL    C8439368   7.585   5.290   5.625 -0.0375 -0.6984  0.3387
  123MOL    C8539369   7.605   5.401   5.724  0.3138 -0.3071 -0.2344
  123MOL    C8639370   7.669   5.514   5.647 -0.1015 -0.0853  0.0469
  123MOL    C8739371   7.811   5.151   5.388  0.6048  0.3919 -0.4016
  123MOL    H8839372   7.606   5.105   5.466  0.2149  3.2290 -1.9699
  123MOL    H8939373   7.520   5.329   5.547  1.6862 -0.9000 -1.2231
  123MOL    H9039374   7.528   5.210   5.672 -0.8770  0.2814  1.0118
  123MOL    H9139375   7.676   5.365   5.798  1.7134  0.8457 -1.0001
  123MOL    H9239376   7.510   5.437   5.764 -0.6339 -2.5621 -0.3917
  123MOL    H9339377   7.612   5.526   5.555 -0.1076 -1.3421 -0.1178
  123MOL    H9439378   7.776   5.507   5.630 -0.4106 -0.9653 -1.6611
  123MOL    H9539379   7.650   5.617   5.680 -3.1657 -0.6622  0.2414
  123MOL    H9639380   0.075   5.192   5.429 -1.0232  2.3992  1.3959
  123MOL    H9739381   0.017   5.057   5.344 -2.4931 -1.9130  1.9185
  123MOL    C9839382   7.760   5.252   5.285 -0.4270 -0.0221 -0.0800
  123MOL    O9939383   0.045   5.331   5.245 -0.1143  0.4307 -0.2046
  123MOL   C10039384   0.061   5.453   5.320  0.5244  0.3215 -0.7204
  123MOL   C10139385   0.210   5.508   5.309 -0.4553 -0.0061 -0.0020
  123MOL   C10239386   0.221   5.656   5.355  0.0511 -0.1979  0.3905
  123MOL   C10339387   7.709   5.190   5.150 -0.6281  0.0304 -0.4839
  123MOL   H10439388   7.680   5.310   5.331 -1.7938 -2.4302  0.6903
  123MOL   H10539389   7.821   5.527   5.278  1.0178  1.4331  0.4193
  123MOL   H10639390   0.042   5.426   5.424  0.9314  0.8675 -0.5037
  123MOL   H10739391   0.252   5.483   5.211 -0.0632  0.9028 -0.0717
  123MOL   H10839392   0.275   5.449   5.374 -0.3773 -1.3640 -1.2614
  123MOL   H10939393   0.323   5.689   5.330 -0.3939  2.0339  1.3393
  123MOL   H11039394   0.205   5.665   5.462 -0.2332 -2.2426  0.5312
  123MOL   H11139395   0.155   5.725   5.303 -1.4743 -2.1822 -0.3338
  123MOL   H11239396   7.674   5.278   5.095 -0.1048  1.1885  0.9774
  123MOL   H11339397   7.798   5.150   5.101 -0.2844 -0.5745  0.6136
  123MOL   C11439398   7.599   5.089   5.159  0.0908 -0.4368  0.2263
  123MOL   O11539399   7.492   5.151   5.229  0.8252  0.2523  0.2224
  123MOL   C11639400   7.396   5.060   5.286  0.3535 -0.2901  0.1023
  123MOL   C11739401   7.259   5.126   5.305  0.4580  0.1318 -0.2690
  123MOL   C11839402   7.150   5.027   5.335  0.4629  0.3436 -0.2883
  123MOL   C11939403   7.560   5.036   5.018 -0.3790 -0.5990 -0.0872
  123MOL   H12039404   7.623   5.008   5.228 -2.4388 -0.0475  1.6417
  123MOL   H12139405   7.372   4.982   5.214 -0.5650  0.8170 -0.7933
  123MOL   H12239406   7.428   5.009   5.378  2.4159 -0.0033 -0.4361
  123MOL   H12339407   7.251   5.171   5.206  1.4305  1.0954  0.0780
  123MOL   H12439408   7.266   5.200   5.385 -0.6045 -0.4889  0.4087
  123MOL   H12539409   7.125   4.957   5.256  2.9183  0.1540 -0.9131
  123MOL   H12639410   7.054   5.074   5.359  0.0221 -1.5684  1.8717
  123MOL   H12739411   7.159   4.966   5.424  1.2642  1.8561  0.6951
  123MOL   H12839412   7.453   5.052   5.004  0.3390  3.0235 -1.9223
  123MOL   H12939413   7.605   5.093   4.937 -0.5968 -2.0416 -1.2578
  123MOL   C13039414   7.574   4.882   5.010 -0.1400 -0.3424  0.2146
  123MOL   O13139415   7.502   4.860   4.896  0.4867  0.3109  0.7306
  123MOL   C13239416   7.390   4.770   4.910  0.0915  0.3076  0.5852
  123MOL   C13339417   7.346   4.714   4.776 -0.3061  0.3908  0.0289
  123MOL   C13439418   7.473   4.663   4.690  0.0850  0.7823  0.0564
  123MOL   C13539419   7.717   4.842   4.972 -0.3220 -0.1320  0.3812
  123MOL   H13639420   7.531   4.838   5.099 -0.0347 -0.2528  0.3095
  123MOL   H13739421   7.421   4.683   4.968 -0.6462 -1.1817 -1.2128
  123MOL   H13839422   7.314   4.832   4.958  0.1573  0.8280  0.0194
  123MOL   H13939423   7.290   4.789   4.721 -0.8563  0.0064  0.0648
  123MOL   H14039424   7.273   4.634   4.792 -0.0715 -0.0630 -1.0795
  123MOL   H14139425   7.548   4.740   4.674  0.3880  0.1047 -1.8912
  123MOL   H14239426   7.430   4.633   4.594 -0.6542 -3.5876  1.6497
  123MOL   H14339427   7.513   4.575   4.739 -1.4098 -1.5418 -2.7729
  123MOL   H14439428   7.731   4.888   4.874  3.3203  0.9179  1.2909
  123MOL   H14539429   7.791   4.902   5.026  0.3291  1.2209 -1.9358
  123MOL   C14639430   7.752   4.696   4.977  0.5063  1.2102 -0.2942
  123MOL   O14739431   0.047   4.681   4.908  0.2367  0.3622 -0.2205
  123MOL   C14839432   0.032   4.673   4.766  0.1002 -0.2192  0.5012
  123MOL   C14939433   0.172   4.649   4.704 -0.5692  0.3415  0.0619
  123MOL   C15039434   0.264   4.772   4.708 -0.0343  0.2838  0.4820
  123MOL   C15139435   7.762   4.644   5.121  0.5872  0.1308  0.1567
  123MOL   H15239436   7.671   4.637   4.934  0.4884 -0.1652  1.5584
  123MOL   H15339437   7.796   4.588   4.741 -0.3645  0.1766  0.3241
  123MOL   H15439438   7.819   4.762   4.720 -0.8724  0.3811  2.4567
  123MOL   H15539439   0.160   4.635   4.596  0.6341  2.2419 -0.3451
  123MOL   H15639440   0.223   4.562   4.745  2.1571  0.7140 -2.3319
  123MOL   H15739441   0.250   4.824   4.803  1.1314 -0.2256  0.9539
  123MOL   H15839442   0.239   4.835   4.623 -0.7528 -0.6604 -0.0115
  123MOL   H15939443   0.364   4.730   4.696  0.8894  1.9405  2.1106
  123MOL   H16039444   0.007   4.696   5.184  0.4549  0.4143  0.0750
  123MOL   H16139445   7.669   4.661   5.175  0.8237 -1.2230  1.0097
  123MOL   C16239446   7.771   4.496   5.142 -0.0063  0.0101  0.4458
  123MOL   O16339447   7.795   4.468   5.280 -0.0738  0.4431  0.2824
  123MOL   C16439448   0.100   4.425   5.311  0.1750  0.6007  0.0721
  123MOL   C16539449   0.080   4.375   5.453  0.3999  0.2491 -0.1132
  123MOL   C16639450   0.209   4.324   5.521 -0.9918  0.4822  0.2656
  123MOL   C16739451   7.646   4.404   5.100 -0.3181 -0.3335  0.4078
  123MOL   H16839452   0.036   4.471   5.091  0.8372  0.6052  1.6679
  123MOL   H16939453   0.133   4.345   5.244 -1.6284  0.5430 -0.7832
  123MOL   H17039454   0.165   4.511   5.293  0.4905  1.1145  3.4190
  123MOL   H17139455   0.003   4.298   5.458  0.9495 -0.2732  0.3890
  123MOL   H17239456   0.035   4.452   5.516  0.3411  1.3791 -1.5029
  123MOL   H17339457   0.277   4.408   5.541 -0.2133  0.0220 -0.4145
  123MOL   H17439458   0.271   4.255   5.464 -0.5568 -0.0813  1.4144
  123MOL   H17539459   0.176   4.270   5.609 -0.3457 -1.2284 -0.5214
  123MOL   H17639460   7.558   4.432   5.158 -1.2279 -0.8352 -0.7084
  123MOL   H17739461   7.623   4.436   4.999  0.5982  0.7289  0.5244
  123MOL   C17839462   7.682   4.254   5.098 -0.0065 -0.2914  1.2984
  123MOL   O17939463   7.812   4.228   5.042 -0.1977 -0.4009 -0.3409
  123MOL   C18039464   7.816   4.247   4.902  0.3330  0.0054  0.2320
  123MOL   C18139465   0.131   4.220   4.858 -0.2363 -0.2433 -0.6296
  123MOL   C18239466   0.226   4.321   4.926  0.3500  0.1342  0.0732
  123MOL   C18339467   7.668   4.186   5.238 -0.6344 -0.7926  0.5942
  123MOL   H18439468   7.599   4.214   5.040  0.1638  0.9471  0.1892
  123MOL   H18539469   7.745   4.186   4.845  1.4536 -0.0519 -1.1243
  123MOL   H18639470   7.776   4.342   4.866 -2.2473 -1.6633 -1.5745
  123MOL   H18739471   0.138   4.237   4.751  1.2766  0.5239 -0.4313
  123MOL   H18839472   0.173   4.122   4.881  3.3900  1.3287 -0.1234
  123MOL   H18939473   0.189   4.420   4.901  3.6103  0.7518 -2.6629
  123MOL   H19039474   0.328   4.311   4.889  0.3365 -0.5098  0.1886
  123MOL   H19139475   0.220   4.310   5.034  1.1095 -1.6805 -0.0408
  123MOL   H19239476   7.771   4.173   5.272 -0.2593 -2.8345 -1.1892
  123MOL   H19339477   7.611   4.248   5.306  0.7817  0.4410  0.6708
  123MOL   C19439478   7.602   4.049   5.227  0.4806  0.7665 -0.0857
  123MOL   O19539479   7.467   4.067   5.197 -0.6317 -0.1697 -0.3956
  123MOL   C19639480   7.384   4.066   5.310 -0.3210  0.7592 -0.1039
  123MOL   C19739481   7.262   4.143   5.272 -0.0648  1.1016  0.6453
  123MOL   C19839482   7.297   4.289   5.274  0.8563 -0.0437  0.1809
  123MOL   C19939483   7.662   3.941   5.133 -0.4763 -0.0410  0.3299
  123MOL   H20039484   7.622   4.009   5.326 -0.2750 -0.1412 -0.2909
  123MOL   H20139485   7.358   3.962   5.332 -0.2673  0.6209 -0.6748
  123MOL   H20239486   7.438   4.110   5.393  1.1754  0.6869 -1.0110
  123MOL   H20339487   7.173   4.127   5.333 -0.0745  0.3659  0.4344
  123MOL   H20439488   7.228   4.113   5.173 -0.1514  3.0073  0.0617
  123MOL   H20539489   7.205   4.343   5.253  0.1615 -0.4223  2.2022
  123MOL   H20639490   7.375   4.310   5.200  0.8639 -1.2620 -0.1754
  123MOL   H20739491   7.337   4.316   5.372  0.7608  1.4050 -0.1633
  123MOL   H20839492   7.604   3.848   5.138 -1.0303  0.1493 -2.2638
  123MOL   H20939493   7.670   3.976   5.030 -2.8451 -0.3317  0.0273
  123MOL   C21039494   7.810   3.896   5.157  0.1814 -0.2609 -0.4595
  123MOL   O21139495   7.817   3.814   5.273  0.3536  0.4754 -0.5743
  123MOL   C21239496   0.085   3.865   5.364 -0.6549 -0.0117  0.2319
  123MOL   C21339497   0.233   3.860   5.317 -0.6879 -0.4390  0.4231
  123MOL   C21439498   0.280   3.994   5.258 -0.3577 -0.0787 -0.3901
  123MOL   C21539499   0.042   3.819   5.036  0.1597 -1.1496 -1.0232
  123MOL   H21639500   0.046   3.984   5.167  0.0375 -0.0219 -1.5483
  123MOL   H21739501   0.049   3.963   5.395 -0.9776  1.1238 -3.5186
  123MOL   H21839502   0.070   3.808   5.456  2.1487 -2.0043 -0.4671
  123MOL   H21939503   0.254   3.786   5.240 -1.1031 -1.6114  1.4391
  123MOL   H22039504   0.298   3.834   5.400 -0.4429  1.5332  0.8913
  123MOL   H22139505   0.235   4.033   5.167  0.2261  1.5048 -0.0251
  123MOL   H22239506   0.387   4.002   5.238  0.0636  0.0367  1.7826
  123MOL   H22339507   0.270   4.064   5.342 -2.5316 -0.4701 -0.2786
  123MOL   H22439508   0.011   3.868   4.944 -5.0029 -1.4539  0.4209
  123MOL   H22539509   0.150   3.810   5.046 -0.0181 -1.2395  0.8709
  123MOL   C22639510   7.816   3.678   5.012 -0.3092 -0.2629  1.4194
  123MOL   O22739511   7.823   3.642   4.870 -0.0007  0.3776  0.0455
  123MOL   C22839512   7.709   3.665   4.781  0.9392 -0.2227 -0.1070
  123MOL   C22939513   7.765   3.658   4.634  0.3659  0.1147 -0.2212
  123MOL   C23039514   7.654   3.684   4.522  0.4142 -0.2293  0.4739
  123MOL   C23139515   0.054   3.562   5.092  0.3082 -0.2433 -0.1654
  123MOL   H23239516   7.710   3.679   5.037 -0.6824 -0.3741 -0.1450
  123MOL   H23339517   7.629   3.594   4.798  0.3745  0.3053 -0.5091
  123MOL   H23439518   7.663   3.763   4.795  0.4949 -0.5549  0.7650
  123MOL   H23539519   7.800   3.556   4.620  1.1060  0.3602 -0.2292
  123MOL   H23639520   0.012   3.734   4.610 -2.2166  2.5287 -0.8621
  123MOL   H23739521   7.576   3.608   4.532 -0.4434  0.2844 -2.1497
  123MOL   H23839522   7.701   3.674   4.425  0.3421 -0.6974  0.4863
  123MOL   H23939523   7.604   3.777   4.547  3.2372  1.4712 -0.0539
  123MOL   H24039524   0.161   3.561   5.070 -0.3189  2.4591 -3.7800
  123MOL   H24139525   0.043   3.589   5.197  0.0465  0.7818 -0.4477
  123MOL   C24239526   7.815   3.425   5.069 -0.9587 -0.4660  0.0208
  123MOL   O24339527   0.063   3.333   5.145 -0.1986 -0.0759  0.0833
  123MOL   C24439528   0.157   3.258   5.069 -0.6691  1.5571  0.1478
  123MOL   C24539529   0.244   3.164   5.159  0.5170  0.0601  1.2502
  123MOL   C24639530   0.336   3.068   5.077  0.3557 -0.5628 -0.2183
  123MOL   C24739531   7.669   3.423   5.122  0.3697  0.3004 -0.5749
  123MOL   H24839532   7.819   3.396   4.964  1.5411  2.6522 -0.8312
  123MOL   H24939533   0.098   3.185   5.012  1.4198 -0.8693  1.0286
  123MOL   H25039534   0.219   3.322   5.006  1.4108 -0.1341  0.4391
  123MOL   H25139535   0.189   3.098   5.226  0.7352  1.0996  2.4631
  123MOL   H25239536   0.302   3.225   5.228  0.2445  1.9559 -0.1734
  123MOL   H25339537   0.267   3.034   5.000  1.2828 -2.0156 -0.4211
  123MOL   H25439538   0.374   2.992   5.145  0.3918  0.9603  1.5144
  123MOL   H25539539   0.423   3.113   5.028 -0.4425  0.8029 -0.4222
  123MOL   H25639540   7.662   3.472   5.219  0.1588  0.7681 -0.8249
  123MOL   H25739541   7.619   3.483   5.046 -0.2359  1.3506  0.6425
  123MOL   C25839542   7.598   3.289   5.126 -0.4743  0.4310 -0.4388
  123MOL   O25939543   7.463   3.316   5.171 -0.1396 -0.4588 -0.4981
  123MOL   C26039544   7.431   3.314   5.310  0.1218 -0.0841 -0.4666
  123MOL   C26139545   7.431   3.179   5.378  0.3347  0.0447 -0.6247
  123MOL   C26239546   7.400   3.182   5.526 -0.7393  0.3795 -0.3190
  123MOL   C26339547   7.598   3.223   4.992 -0.0522 -0.5035 -1.4075
  123MOL   H26439548   7.661   3.230   5.192  1.1860  2.9179  0.2962
  123MOL   H26539549   7.497   3.376   5.370 -0.2226  0.1583 -0.3364
  123MOL   H26639550   7.329   3.352   5.315  0.7174  1.7317 -1.8140
  123MOL   H26739551   7.516   3.115   5.356 -0.3641 -2.1484  2.6494
  123MOL   H26839552   7.343   3.133   5.333 -1.8886 -0.3346  3.8326
  123MOL   H26939553   7.348   3.091   5.559  0.0402  0.6237  1.6254
  123MOL   H27039554   7.332   3.261   5.557  2.1261  2.1395  1.6944
  123MOL   H27139555   7.489   3.194   5.588 -1.6927 -2.5568  1.7557
  123MOL   H27239556   7.537   3.288   4.930  0.4699 -0.0137 -1.4084
  123MOL   H27339557   7.701   3.209   4.959  0.3104  0.0022 -0.4870
  123MOL   C27439558   7.550   3.076   4.995  0.7759 -0.3007  0.2574
  123MOL   O27539559   7.501   3.025   4.872  0.0481 -0.1060 -0.0751
  123MOL   C27639560   7.600   2.989   4.775  0.1770  0.0455 -0.1716
  123MOL   C27739561   7.516   2.965   4.644  0.1096  0.3136 -0.7255
  123MOL   C27839562   7.436   3.091   4.598 -0.1816 -0.3914 -0.3075
  123MOL   C27939563   7.646   2.986   5.075 -0.0100  0.0142 -0.1419
  123MOL   H28039564   7.458   3.079   5.053  0.8953 -0.7287  0.4702
  123MOL   H28139565   7.677   3.065   4.761 -0.3193  0.6566  0.4647
  123MOL   H28239566   7.639   2.887   4.787  1.6693  0.5890 -0.2256
  123MOL   H28339567   7.454   2.880   4.672 -0.3736  0.6268 -0.8275
  123MOL   H28439568   7.580   2.941   4.559  0.4156 -1.5906  0.0331
  123MOL   H28539569   7.367   3.054   4.522  0.4603 -0.4892 -0.8427
  123MOL   H28639570   7.508   3.166   4.566  1.6810 -0.8305  2.7142
  123MOL   H28739571   7.377   3.118   4.685 -0.5375  1.9618 -1.2448
  123MOL   H28839572   7.745   2.995   5.032  0.1008 -2.5200 -0.5311
  123MOL   H28939573   7.664   3.021   5.176  1.6515 -0.4187 -0.2797
  123MOL   C29039574   7.603   2.835   5.078 -0.1442 -0.2477 -0.7902
  123MOL   O29139575   7.699   2.759   5.162  0.3530 -0.0783 -0.2342
  123MOL   C29239576   7.719   2.623   5.114 -0.4982 -0.2055 -0.0821
  123MOL   C29339577   0.037   2.579   5.140  0.7990  0.6564  0.3525
  123MOL   C29439578   0.066   2.588   5.293 -0.3441  0.5809  0.1624
  123MOL   C29539579   7.461   2.794   5.146 -0.4513 -0.2313  0.1774
  123MOL   H29639580   7.598   2.794   4.978  0.2252 -1.2813 -0.3907
  123MOL   H29739581   7.659   2.558   5.176  0.3774 -2.0869 -1.1592
  123MOL   H29839582   7.693   2.601   5.010  1.6331 -0.5011 -0.5852
  123MOL   H29939583   0.109   2.651   5.101  0.3801  0.8223 -0.1256
  123MOL   H30039584   0.048   2.477   5.104  1.4981  0.7039  0.4295
  123MOL   H30139585   0.040   2.685   5.336 -2.5951 -0.2367  0.6959
  123MOL   H30239586   0.173   2.576   5.311  0.0742  2.4265 -0.9521
  123MOL   H30339587   0.022   2.514   5.360 -0.5119  0.7818  0.2756
  123MOL   H30439588   7.460   2.690   5.176 -0.7671 -1.0446 -2.4920
  123MOL   H30539589   7.447   2.864   5.229  1.6762 -0.2936  0.6267
  123MOL   C30639590   7.335   2.818   5.062  0.7124 -0.3052  0.5726
  123MOL   O30739591   7.335   2.720   4.961  0.3057 -0.3825  0.8408
  123MOL   C30839592   7.255   2.752   4.849  0.2309 -0.3187 -0.1273
  123MOL   C30939593   7.260   2.635   4.755  0.2605  0.6718 -0.1675
  123MOL   C31039594   7.188   2.681   4.621 -0.0301  0.1780 -0.0122
  123MOL   C31139595   7.215   2.809   5.154 -0.5582  0.9023  0.1223
  123MOL   H31239596   7.339   2.918   5.018  0.9538 -0.1227  1.0038
  123MOL   H31339597   7.154   2.774   4.882  0.6547  2.1733 -0.3990
  123MOL   H31439598   7.292   2.839   4.794  2.2294 -1.4830 -0.7042
  123MOL   H31539599   7.211   2.544   4.789  0.5074  0.0426 -1.4659
  123MOL   H31639600   7.361   2.599   4.736 -0.4397 -0.2631 -2.2372
  123MOL   H31739601   7.085   2.716   4.635  0.0656 -0.4138  2.3026
  123MOL   H31839602   7.178   2.590   4.562  0.4837 -0.8846  1.5136
  123MOL   H31939603   7.253   2.745   4.562  0.2297  0.6914  0.8321
  123MOL   H32039604   7.118   2.812   5.104 -0.7106  0.7674  0.4113
  123MOL   H32139605   7.225   2.715   5.208  2.0926  1.6034  0.9253
  123MOL   H32239606   7.220   2.892   5.224  0.1869 -0.0955  1.2621
  124MOL     C139607   1.909   5.858   2.102 -0.9507 -0.6081 -0.2034
  124MOL     O239608   1.996   5.914   2.008 -0.3073  0.1925  0.6442
  124MOL     C339609   1.993   5.836   1.891 -0.0372 -1.0161  0.7059
  124MOL     C439610   2.063   5.908   1.778  0.4704 -0.5713  0.5554
  124MOL     C539611   2.207   5.929   1.811  0.0302 -0.3832  0.8025
  124MOL     C639612   1.886   5.939   2.237  0.1508 -0.7826  0.4051
  124MOL     H739613   1.953   5.761   2.127  0.3705  0.2531  0.9540
  124MOL     H839614   2.044   5.742   1.910  2.0887  0.1129  0.7104
  124MOL     H939615   1.891   5.824   1.853 -0.1679  0.7302  0.4493
  124MOL    H1039616   2.011   6.001   1.754  0.7035 -0.7483 -0.6719
  124MOL    H1139617   2.054   5.855   1.684 -0.9058 -1.3858  1.1385
  124MOL    H1239618   2.262   5.991   1.740 -1.2819 -0.9326 -0.7453
  124MOL    H1339619   2.262   5.835   1.815 -1.1396 -1.1633 -0.6003
  124MOL    H1439620   2.218   5.973   1.910 -1.6686  0.1035  0.7949
  124MOL    H1539621   1.979   5.953   2.293 -0.0163 -4.7381  1.7863
  124MOL    H1639622   1.845   6.037   2.213  0.8354 -0.0345  2.2054
  124MOL    H1739623   1.816   5.842   2.049 -1.9955 -0.4099  1.5333
  124MOL    C1839624   1.766   5.874   2.325 -0.0954 -0.7498 -0.1586
  124MOL    O1939625   1.809   5.747   2.384  0.0532  0.1366  1.0199
  124MOL    C2039626   1.730   5.641   2.340 -0.1354  0.0998  0.4097
  124MOL    C2139627   1.797   5.517   2.393 -0.6112  0.4098 -0.3003
  124MOL    C2239628   1.794   5.509   2.544  0.2220  0.0066  0.5571
  124MOL    C2339629   1.712   5.963   2.441 -0.0308 -0.0543 -0.0471
  124MOL    H2439630   1.684   5.862   2.253  0.4533  0.0185 -0.9342
  124MOL    H2539631   1.628   5.648   2.377 -0.6183 -2.1478 -0.4015
  124MOL    H2639632   1.720   5.641   2.232 -2.1563  2.2685  0.5793
  124MOL    H2739633   1.901   5.505   2.363 -0.6162  0.9947 -0.5577
  124MOL    H2839634   1.750   5.429   2.348 -2.7631  0.6500  1.3968
  124MOL    H2939635   1.848   5.427   2.593 -2.7753 -1.7208  1.1007
  124MOL    H3039636   1.695   5.489   2.585 -0.9886 -0.3552 -2.4308
  124MOL    H3139637   1.838   5.596   2.593 -2.1136  0.9395  1.0711
  124MOL    H3239638   1.642   5.901   2.498 -0.2014 -0.0313 -0.2319
  124MOL    H3339639   1.785   5.990   2.517 -0.8329  2.5082 -0.1702
  124MOL    C3439640   1.627   6.087   2.393 -0.1850  0.2328 -0.1204
  124MOL    O3539641   1.517   6.038   2.322 -0.3173  0.3824 -1.0936
  124MOL    C3639642   1.467   6.142   2.236 -0.0714  0.6207  0.0744
  124MOL    C3739643   1.361   6.081   2.143 -0.1519  0.6182  0.1504
  124MOL    C3839644   1.418   5.966   2.059  0.9501 -0.1936 -0.0610
  124MOL    C3939645   1.584   6.173   2.521  0.2985  0.2627  0.1565
  124MOL    H4039646   1.691   6.149   2.329 -0.1525  0.0498 -0.2688
  124MOL    H4139647   1.427   6.226   2.292 -1.3686  0.8572 -1.1775
  124MOL    H4239648   1.545   6.194   2.181 -0.0395 -2.4102 -2.9199
  124MOL    H4339649   1.320   6.155   2.074  0.5516  2.0590  1.2462
  124MOL    H4439650   1.282   6.043   2.208 -0.2512 -1.5146 -1.1841
  124MOL    H4539651   1.482   5.994   1.975 -1.2609  1.9429 -1.0981
  124MOL    H4639652   1.336   5.919   2.004  1.1452 -0.2449 -0.3060
  124MOL    H4739653   1.465   5.888   2.118  1.9033  0.5159  0.1282
  124MOL    H4839654   1.512   6.249   2.490  0.3025 -0.3496 -1.3957
  124MOL    H4939655   1.530   6.107   2.590 -0.2328 -0.9630 -1.3888
  124MOL    C5039656   1.693   6.247   2.591 -0.2339  0.2146  0.0067
  124MOL    O5139657   1.721   6.373   2.534  0.1847 -0.1835  0.3873
  124MOL    C5239658   1.831   6.382   2.453  0.6471  0.3387 -0.7583
  124MOL    C5339659   1.820   6.520   2.387  0.4588 -0.1432 -0.8295
  124MOL    C5439660   1.834   6.636   2.487  0.4346 -0.8217  0.4463
  124MOL    C5539661   1.662   6.283   2.740 -0.4002  0.5920 -0.6486
  124MOL    H5639662   1.776   6.176   2.582 -0.2117  0.3708 -1.1047
  124MOL    H5739663   1.925   6.371   2.507 -0.7950  2.1403  2.2166
  124MOL    H5839664   1.820   6.306   2.376 -0.5195 -0.2803  0.0202
  124MOL    H5939665   1.725   6.520   2.333  1.4591  0.2460 -2.6584
  124MOL    H6039666   1.895   6.531   2.308  1.8753 -3.4633 -0.0375
  124MOL    H6139667   1.759   6.638   2.567 -0.6411 -0.4210 -0.5550
  124MOL    H6239668   1.837   6.733   2.437  0.9687 -0.6436  0.8080
  124MOL    H6339669   1.934   6.639   2.530  1.4829 -0.0768 -1.9801
  124MOL    H6439670   1.567   6.336   2.742 -0.9336 -0.4043  0.8245
  124MOL    H6539671   1.649   6.184   2.783 -0.3880  1.0520  0.4224
  124MOL    C6639672   1.767   6.361   2.826  0.1749  0.3068 -0.2930
  124MOL    O6739673   1.716   6.380   2.961  0.6632  0.1683  0.2552
  124MOL    C6839674   1.612   6.475   2.966 -0.0803 -0.0814  0.7812
  124MOL    C6939675   1.563   6.492   3.113 -0.0710 -0.1934  0.0528
  124MOL    C7039676   1.652   6.572   3.212 -0.5183 -0.1884 -0.1114
  124MOL    C7139677   1.904   6.293   2.836  0.3532 -0.6468  0.0465
  124MOL    H7239678   1.788   6.456   2.777 -2.2188  1.5833  1.0425
  124MOL    H7339679   1.651   6.570   2.930 -1.5973  0.7380  1.2623
  124MOL    H7439680   1.532   6.439   2.902 -0.2606 -0.1894  1.0643
  124MOL    H7539681   1.535   6.396   3.156 -0.2197  0.1870  0.8188
  124MOL    H7639682   1.466   6.542   3.109  1.2185  2.4256  0.4567
  124MOL    H7739683   1.739   6.515   3.244 -0.1323 -0.1848 -1.1062
  124MOL    H7839684   1.594   6.616   3.293  1.5063  1.2310  0.5881
  124MOL    H7939685   1.698   6.661   3.169  1.4292 -0.8907  0.4563
  124MOL    H8039686   1.942   6.282   2.735  1.0942 -0.7602  0.3341
  124MOL    H8139687   1.977   6.361   2.882 -0.4481  0.9319 -0.9702
  124MOL    C8239688   1.910   6.162   2.914 -0.1055 -0.1722 -0.0767
  124MOL    O8339689   2.025   6.099   2.858  0.2701 -0.3568  0.1559
  124MOL    C8439690   1.988   5.993   2.765 -0.0283 -0.2101 -0.2817
  124MOL    C8539691   2.119   5.957   2.692 -0.0847  0.0283 -0.4679
  124MOL    C8639692   2.182   6.070   2.609 -0.2692  0.3914 -0.4249
  124MOL    C8739693   1.930   6.193   3.066  0.4220 -0.1529 -0.0893
  124MOL    H8839694   1.821   6.100   2.904 -0.7518  0.8143 -0.4112
  124MOL    H8939695   1.969   5.897   2.813 -0.4780  0.6915  1.4274
  124MOL    H9039696   1.907   6.017   2.697  0.6668 -1.0633 -1.4268
  124MOL    H9139697   2.093   5.880   2.619 -0.8263  0.7496 -0.9752
  124MOL    H9239698   2.194   5.928   2.765 -0.2386  2.2245  0.6220
  124MOL    H9339699   2.287   6.061   2.581 -0.5961 -0.5180 -1.3892
  124MOL    H9439700   2.176   6.164   2.663  0.6165 -0.1369  0.6009
  124MOL    H9539701   2.127   6.092   2.517 -0.4788 -3.2499 -1.2633
  124MOL    H9639702   2.030   6.235   3.073  1.3487 -1.9892 -1.7814
  124MOL    H9739703   1.856   6.258   3.112 -0.3151  0.1249 -1.6298
  124MOL    C9839704   1.953   6.058   3.144  0.0331  0.2750 -0.6649
  124MOL    O9939705   2.004   6.095   3.269 -0.2343 -0.0327 -0.2009
  124MOL   C10039706   2.128   6.030   3.307  0.1871 -0.4354 -0.1781
  124MOL   C10139707   2.213   6.121   3.407 -0.3495  0.8647 -0.0266
  124MOL   C10239708   2.332   6.041   3.470  0.0226 -0.1054 -0.3880
  124MOL   C10339709   1.833   5.962   3.160  0.0407 -0.7284 -0.0639
  124MOL   H10439710   2.030   6.014   3.080 -1.0544  0.0161 -1.8091
  124MOL   H10539711   2.113   5.929   3.345  3.3764 -1.2674 -1.0092
  124MOL   H10639712   2.191   6.003   3.222  0.3809  0.1614 -0.2274
  124MOL   H10739713   2.151   6.171   3.480 -1.2616  1.2074 -1.0154
  124MOL   H10839714   2.253   6.202   3.346  0.8955  0.9990  0.9545
  124MOL   H10939715   2.395   6.117   3.515  0.7103 -0.3000 -1.0193
  124MOL   H11039716   2.391   6.004   3.386  0.2405  1.4026 -0.9168
  124MOL   H11139717   2.291   5.970   3.542 -1.5468  1.1807  0.0239
  124MOL   H11239718   1.759   6.016   3.219 -0.8050 -1.5541 -0.3580
  124MOL   H11339719   1.791   5.937   3.063  0.3675  1.0701 -0.6979
  124MOL   C11439720   1.861   5.819   3.224 -0.5040 -0.4510 -0.2167
  124MOL   O11539721   1.735   5.755   3.255 -0.2550  0.0030  0.6013
  124MOL   C11639722   1.680   5.787   3.381 -0.3186  0.1793 -0.6270
  124MOL   C11739723   1.718   5.688   3.493  0.5343  0.3470  0.9006
  124MOL   C11839724   1.650   5.718   3.628 -0.3666  0.4666 -0.2914
  124MOL   C11939725   1.943   5.738   3.123 -0.0407  0.2484 -1.1059
  124MOL   H12039726   1.917   5.823   3.317 -2.8876 -1.6571  1.3129
  124MOL   H12139727   1.722   5.887   3.394  2.6113 -1.1745  0.7468
  124MOL   H12239728   1.572   5.789   3.367 -0.3888  2.3389  0.0229
  124MOL   H12339729   1.827   5.690   3.504  0.7747  0.8830 -1.4177
  124MOL   H12439730   1.699   5.583   3.467 -1.6598  0.7583  0.7470
  124MOL   H12539731   1.700   5.795   3.686  1.5724 -1.0695  0.1495
  124MOL   H12639732   1.639   5.633   3.697 -1.9893  1.2167  0.4176
  124MOL   H12739733   1.549   5.748   3.601  0.4957  1.5655 -2.3596
  124MOL   H12839734   1.881   5.723   3.035  0.6000  0.0408 -1.5210
  124MOL   H12939735   2.026   5.801   3.092 -0.3147  0.7537 -0.8230
  124MOL   C13039736   2.000   5.606   3.170 -0.5501  0.1651 -0.3100
  124MOL   O13139737   2.071   5.540   3.066 -0.3932  0.4675 -0.1383
  124MOL   C13239738   1.989   5.474   2.969  0.9126  0.6766 -0.1697
  124MOL   C13339739   2.079   5.439   2.854 -0.0086 -0.0275  0.3625
  124MOL   C13439740   2.133   5.556   2.769 -0.4649 -0.3822  0.3816
  124MOL   C13539741   2.105   5.633   3.284  0.5233  0.7008  0.1848
  124MOL   H13639742   1.924   5.535   3.205  0.0974 -0.4462 -0.1334
  124MOL   H13739743   1.939   5.387   3.012 -1.5380  1.6698 -0.8902
  124MOL   H13839744   1.905   5.535   2.934 -0.7712 -1.3575  0.1725
  124MOL   H13939745   2.035   5.366   2.786  0.1979  1.3843 -1.2925
  124MOL   H14039746   2.170   5.399   2.900  1.0606  1.9892  0.0570
  124MOL   H14139747   2.053   5.608   2.716 -1.3235 -0.6531  1.3933
  124MOL   H14239748   2.201   5.510   2.697 -2.2724 -0.4715 -1.3065
  124MOL   H14339749   2.188   5.628   2.830  2.2470 -1.3278 -0.8796
  124MOL   H14439750   2.181   5.696   3.239 -0.8320  1.3618 -1.2092
  124MOL   H14539751   2.054   5.684   3.366 -1.6653 -0.5599 -0.3373
  124MOL   C14639752   2.182   5.511   3.354 -0.7673  0.2108 -0.2127
  124MOL   O14739753   2.271   5.565   3.448 -0.6385 -0.3524 -0.8580
  124MOL   C14839754   2.401   5.596   3.402  0.4298 -0.1829 -0.3055
  124MOL   C14939755   2.490   5.614   3.527 -0.3726 -0.6152  0.4253
  124MOL   C15039756   2.617   5.708   3.501  0.2162 -0.8283 -0.0858
  124MOL   C15139757   2.088   5.411   3.419  0.1625  0.1085 -0.8618
  124MOL   H15239758   2.248   5.453   3.290  2.0815  0.3008  2.5167
  124MOL   H15339759   2.438   5.508   3.349 -3.2165 -1.1119 -1.4555
  124MOL   H15439760   2.411   5.685   3.339  0.0529  0.2040  0.1818
  124MOL   H15539761   2.533   5.514   3.532 -0.7005 -0.7517  0.5363
  124MOL   H15639762   2.445   5.633   3.624  0.5092 -1.0726  0.9326
  124MOL   H15739763   2.702   5.691   3.567 -0.0595 -1.0357  0.2191
  124MOL   H15839764   2.606   5.816   3.497  1.7386 -0.6936 -1.0490
  124MOL   H15939765   2.651   5.677   3.402  2.7063  0.7206  0.2449
  124MOL   H16039766   2.140   5.366   3.503 -3.5630 -1.2095  0.8707
  124MOL   H16139767   1.997   5.466   3.445  0.2445  0.1224 -0.5945
  124MOL   C16239768   2.052   5.289   3.331  0.6682 -0.2405 -0.0752
  124MOL   O16339769   2.166   5.212   3.305 -0.2928  0.0221 -0.2515
  124MOL   C16439770   2.161   5.170   3.162  0.3042 -0.7083 -0.3202
  124MOL   C16539771   2.236   5.041   3.148  0.1335  0.5930 -0.4369
  124MOL   C16639772   2.382   5.045   3.196 -0.0507  0.0136 -0.1046
  124MOL   C16739773   1.952   5.190   3.407  0.5121 -0.2326 -0.0590
  124MOL   H16839774   2.014   5.329   3.237 -1.7818  0.0281  0.9613
  124MOL   H16939775   2.066   5.152   3.112 -1.0622  1.5850  1.3699
  124MOL   H17039776   2.214   5.241   3.098 -1.1306  1.7827  1.1861
  124MOL   H17139777   2.242   5.015   3.042  0.0824 -0.9550 -0.0702
  124MOL   H17239778   2.185   4.954   3.188  0.1520  0.4055 -0.8137
  124MOL   H17339779   2.433   4.953   3.169 -0.0055 -0.3784  1.2712
  124MOL   H17439780   2.393   5.047   3.305  0.2496 -1.3602 -0.1126
  124MOL   H17539781   2.428   5.132   3.149 -1.9295  0.8391 -0.4791
  124MOL   H17639782   1.948   5.106   3.337  1.3340 -0.7915  0.5473
  124MOL   H17739783   1.992   5.152   3.501 -1.2061  1.9405  1.6000
  124MOL   C17839784   1.810   5.244   3.435  0.2462 -0.0869  0.2510
  124MOL   O17939785   1.785   5.347   3.533  0.4247  0.0509 -0.3966
  124MOL   C18039786   1.784   5.290   3.660  0.6222  0.1416  0.4527
  124MOL   C18139787   1.809   5.391   3.774  0.1362 -0.3058  0.0475
  124MOL   C18239788   1.962   5.441   3.785  0.7468 -0.5086  0.1971
  124MOL   C18339789   1.724   5.294   3.314 -0.1817  0.1098 -0.6760
  124MOL   H18439790   1.769   5.152   3.477 -0.6518 -0.2460 -0.9387
  124MOL   H18539791   1.703   5.217   3.666  1.4279 -0.6263  2.5788
  124MOL   H18639792   1.871   5.225   3.677 -0.5275 -1.8235 -0.9684
  124MOL   H18739793   1.806   5.338   3.869 -0.3882 -0.6318 -0.1513
  124MOL   H18839794   1.742   5.477   3.774  0.7038  0.1584  1.1964
  124MOL   H18939795   1.997   5.468   3.685 -0.0936 -0.1151  0.0059
  124MOL   H19039796   2.025   5.362   3.824  3.0359  0.5820 -1.1641
  124MOL   H19139797   1.985   5.526   3.850 -2.7319  1.2473 -0.7672
  124MOL   H19239798   1.769   5.375   3.257  0.7612  1.0395  1.3170
  124MOL   H19339799   1.716   5.203   3.254  2.2869 -1.2255  0.9447
  124MOL   C19439800   1.576   5.335   3.339 -0.0791  0.3994 -0.4594
  124MOL   O19539801   1.512   5.350   3.213  0.1151  1.0762 -0.0994
  124MOL   C19639802   1.539   5.470   3.137 -0.5057 -0.6388  0.5436
  124MOL   C19739803   1.473   5.445   3.000 -0.3024 -0.1883 -0.4443
  124MOL   C19839804   1.574   5.360   2.922 -0.5569 -0.2927 -0.0518
  124MOL   C19939805   1.489   5.238   3.422  0.5060 -0.4194 -0.1800
  124MOL   H20039806   1.568   5.434   3.383  1.6123 -0.2998  1.4938
  124MOL   H20139807   1.493   5.555   3.186  0.1171 -0.3660  0.6659
  124MOL   H20239808   1.644   5.496   3.124 -0.8487  1.6426  2.0233
  124MOL   H20339809   1.461   5.541   2.949  1.4099 -0.1825 -0.8673
  124MOL   H20439810   1.376   5.395   3.004 -0.4907 -0.0146 -2.5808
  124MOL   H20539811   1.574   5.260   2.964 -0.9944 -0.3527 -0.1906
  124MOL   H20639812   1.675   5.397   2.943 -0.1005 -0.4513 -1.8690
  124MOL   H20739813   1.542   5.361   2.817 -1.9466  1.4388  0.3615
  124MOL   H20839814   1.479   5.143   3.370 -1.5780 -0.0421 -0.4939
  124MOL   H20939815   1.533   5.224   3.521  0.4599  0.5325 -0.0262
  124MOL   C21039816   1.351   5.300   3.454  0.4837  0.1269 -0.7873
  124MOL   O21139817   1.267   5.195   3.496 -0.3186 -0.0577 -0.1582
  124MOL   C21239818   1.200   5.119   3.390 -0.1460 -0.0588  0.2475
  124MOL   C21339819   1.094   5.030   3.448  0.5415 -0.4570  0.2063
  124MOL   C21439820   1.125   4.989   3.594 -0.7730  0.2527  0.5546
  124MOL   C21539821   1.363   5.407   3.566  0.2664  0.1922  0.1224
  124MOL   H21639822   1.305   5.341   3.364 -4.1104 -2.2075  0.3407
  124MOL   H21739823   1.157   5.178   3.310  1.8078  0.7520 -0.2196
  124MOL   H21839824   1.269   5.054   3.336 -1.0677 -0.6588 -0.2134
  124MOL   H21939825   1.071   4.947   3.381 -1.0839 -0.8467  1.2156
  124MOL   H22039826   1.006   5.093   3.454 -1.2301 -2.6177 -1.9150
  124MOL   H22139827   1.041   4.935   3.636 -0.5290 -1.4590 -1.0768
  124MOL   H22239828   1.153   5.078   3.649  4.1255 -0.6936 -0.1187
  124MOL   H22339829   1.215   4.928   3.601 -1.5394 -1.0043 -0.2503
  124MOL   H22439830   1.399   5.356   3.655  3.4529 -0.9516 -1.7516
  124MOL   H22539831   1.436   5.482   3.534 -2.9027  1.7344 -4.0089
  124MOL   C22639832   1.235   5.482   3.599  0.5639 -0.7526 -0.1526
  124MOL   O22739833   1.273   5.608   3.655 -0.3024  0.1759 -0.1287
  124MOL   C22839834   1.306   5.606   3.798  0.3251 -0.4403 -0.1314
  124MOL   C22939835   1.352   5.748   3.850 -0.9877 -0.2400 -0.5692
  124MOL   C23039836   1.252   5.859   3.820  0.3720  0.8107  0.2673
  124MOL   C23139837   1.125   5.498   3.490 -0.4120 -0.4583 -0.5185
  124MOL   H23239838   1.189   5.416   3.673  0.4721  0.1844  0.6434
  124MOL   H23339839   1.210   5.585   3.847  0.2823 -0.7630 -0.3554
  124MOL   H23439840   1.374   5.523   3.817 -0.3065 -0.9380  0.0060
  124MOL   H23539841   1.450   5.769   3.809  0.4887 -3.1183  1.3445
  124MOL   H23639842   1.362   5.741   3.958  2.0740 -1.5055 -0.8899
  124MOL   H23739843   1.179   5.837   3.742  1.0835  4.2651 -1.4320
  124MOL   H23839844   1.309   5.944   3.783 -0.0257  0.6292 -0.7864
  124MOL   H23939845   1.194   5.885   3.909 -0.6549  2.3948 -0.8386
  124MOL   H24039846   1.097   5.394   3.469  0.9603 -1.1896  1.1585
  124MOL   H24139847   1.035   5.543   3.531  1.1967 -1.2510  4.1663
  124MOL   C24239848   1.178   5.575   3.364  1.0082  0.0409 -0.6439
  124MOL   O24339849   1.073   5.576   3.267 -0.0096  0.7396  0.1537
  124MOL   C24439850   1.064   5.453   3.196 -0.1373  0.0281  0.1643
  124MOL   C24539851   0.952   5.455   3.087 -0.1160  0.0422  0.0669
  124MOL   C24639852   0.980   5.546   2.970  1.0841 -0.4710 -0.0674
  124MOL   C24739853   1.218   5.715   3.392 -0.5382 -0.1946 -0.0502
  124MOL   H24839854   1.264   5.529   3.317  1.9652  0.8499  0.2841
  124MOL   H24939855   1.156   5.425   3.144 -0.1607 -1.1287  0.7302
  124MOL   H25039856   1.021   5.372   3.256 -1.4927 -0.4870 -1.4647
  124MOL   H25139857   0.864   5.481   3.145  0.2449 -0.3279  0.7823
  124MOL   H25239858   0.958   5.352   3.054  3.1331 -0.5056  2.1827
  124MOL   H25339859   0.985   5.650   3.000  0.5733 -0.6268  0.5748
  124MOL   H25439860   0.887   5.547   2.913  0.1632 -2.2428  1.3431
  124MOL   H25539861   1.069   5.518   2.912  0.0407 -1.4102 -1.2581
  124MOL   H25639862   1.152   5.744   3.475 -0.3934  0.2135 -0.0766
  124MOL   H25739863   1.319   5.706   3.431 -0.7429 -0.4217  0.4405
  124MOL   C25839864   1.217   5.818   3.266  0.6011 -0.4162 -0.0801
  124MOL   O25939865   1.239   5.952   3.309  0.1371  0.6521  0.1102
  124MOL   C26039866   1.123   6.033   3.334 -0.4651  0.3682  0.9384
  124MOL   C26139867   1.170   6.179   3.352 -0.4864 -0.4181 -0.2856
  124MOL   C26239868   1.245   6.182   3.487  0.7128  0.2505  0.4561
  124MOL   C26339869   1.322   5.789   3.154 -0.0491  0.0641 -0.2108
  124MOL   H26439870   1.115   5.807   3.231  0.3508 -0.2048  0.5844
  124MOL   H26539871   1.058   6.023   3.246  1.4050  0.2036 -0.4625
  124MOL   H26639872   1.067   6.001   3.422 -1.7736 -0.2585 -0.0929
  124MOL   H26739873   1.079   6.239   3.359 -0.5665 -0.6062  0.2927
  124MOL   H26839874   1.220   6.218   3.264 -1.6264  0.6641 -0.4744
  124MOL   H26939875   1.301   6.275   3.497 -0.8987  1.1588  1.1292
  124MOL   H27039876   1.323   6.108   3.470  1.7951  1.2561  0.9353
  124MOL   H27139877   1.194   6.164   3.581  0.2228 -1.0664 -0.0594
  124MOL   H27239878   1.416   5.814   3.202 -0.5460  0.1890  0.7205
  124MOL   H27339879   1.316   5.687   3.118 -0.3802  0.7848 -2.2775
  124MOL   C27439880   1.309   5.885   3.027 -0.0546  0.0764  0.2828
  124MOL   O27539881   1.398   5.840   2.918 -0.2920  0.2138 -0.1180
  124MOL   C27639882   1.532   5.891   2.933  0.6823  0.5119 -0.0837
  124MOL   C27739883   1.620   5.853   2.817  0.2012 -0.1405  0.1426
  124MOL   C27839884   1.664   5.707   2.810 -0.3188 -0.2706 -0.0803
  124MOL   C27939885   1.176   5.877   2.961 -0.1178  0.6822 -0.0949
  124MOL   H28039886   1.338   5.982   3.065 -0.8730  0.3900  0.1136
  124MOL   H28139887   1.521   5.999   2.934  1.6621  0.6259 -0.9135
  124MOL   H28239888   1.575   5.858   3.027  0.0341  1.8401  0.6919
  124MOL   H28339889   1.711   5.913   2.825 -1.1114  2.2112 -1.9336
  124MOL   H28439890   1.558   5.885   2.733 -0.7491  0.6931  1.1343
  124MOL   H28539891   1.754   5.694   2.748 -0.7585  0.9296 -1.0003
  124MOL   H28639892   1.583   5.646   2.770 -2.2342  2.0505  0.1930
  124MOL   H28739893   1.681   5.675   2.913 -0.0703 -0.4149 -0.1635
  124MOL   H28839894   1.157   5.776   2.926 -0.4648  0.7347 -0.0604
  124MOL   H28939895   1.101   5.896   3.038 -0.1181  0.8080 -0.1253
  124MOL   C29039896   1.153   5.980   2.848 -0.6235  0.3446  0.8351
  124MOL   O29139897   1.047   5.939   2.757 -0.8731  0.0281 -0.0277
  124MOL   C29239898   0.919   5.925   2.828  0.7144 -0.0419 -0.0611
  124MOL   C29339899   0.806   5.900   2.731 -0.8012  0.1576  0.1020
  124MOL   C29439900   0.825   5.768   2.649 -0.0648 -0.0016 -0.2642
  124MOL   C29539901   1.131   6.121   2.903  0.4636  0.1065  0.2394
  124MOL   H29639902   1.243   5.976   2.787 -1.3213  0.2763 -0.2060
  124MOL   H29739903   0.909   5.839   2.894  2.7930 -1.2753 -1.3143
  124MOL   H29839904   0.907   6.018   2.883  0.3017  0.4182 -0.9088
  124MOL   H29939905   0.780   5.993   2.680  0.0509 -0.1669 -0.9492
  124MOL   H30039906   0.710   5.888   2.780 -0.1948 -1.4566  0.9583
  124MOL   H30139907   0.728   5.740   2.609 -0.0299  0.0370 -0.3764
  124MOL   H30239908   0.862   5.682   2.704 -0.0289 -0.1342 -0.4961
  124MOL   H30339909   0.899   5.785   2.571 -0.4716  1.0947 -0.4313
  124MOL   H30439910   1.055   6.132   2.980  1.1328 -0.0840  0.9352
  124MOL   H30539911   1.217   6.155   2.961 -0.0518  0.6485  0.6931
  124MOL   C30639912   1.098   6.232   2.798  0.2805  0.3756 -0.0229
  124MOL   O30739913   1.089   6.357   2.870  0.6839  0.8029 -0.3851
  124MOL   C30839914   0.989   6.375   2.969  0.7303 -0.2823  0.3964
  124MOL   C30939915   0.938   6.519   2.978  0.2993 -0.1274  0.2370
  124MOL   C31039916   1.040   6.601   3.056 -0.2487 -0.3439  0.0777
  124MOL   C31139917   1.204   6.241   2.687 -0.4742 -0.0768 -0.0770
  124MOL   H31239918   1.005   6.228   2.742 -0.2320  0.9156  0.7863
  124MOL   H31339919   0.903   6.315   2.941  0.2210  0.8932 -0.6300
  124MOL   H31439920   1.027   6.338   3.064 -1.4128  0.4220  1.5630
  124MOL   H31539921   0.838   6.523   3.020 -0.5460  2.2131 -1.8737
  124MOL   H31639922   0.927   6.552   2.875 -0.4419  0.9005  0.6364
  124MOL   H31739923   1.140   6.588   3.014  0.2071 -0.9767  1.3652
  124MOL   H31839924   1.031   6.550   3.151  0.7512  0.0533  0.3890
  124MOL   H31939925   1.012   6.706   3.067  1.4119  0.4928 -3.0038
  124MOL   H32039926   1.178   6.323   2.619 -0.0553  0.1721  0.0632
  124MOL   H32139927   1.294   6.268   2.741  0.2928 -0.8801 -0.9446
  124MOL   H32239928   1.228   6.156   2.623 -1.5060 -0.6875  0.3388
  125MOL     C139929   1.673   0.503   6.738 -0.1124 -0.2667  0.2652
  125MOL     O239930   1.759   0.560   6.630  0.3155 -0.1162 -0.0661
  125MOL     C339931   1.801   0.452   6.544  0.1729  0.0861 -0.1357
  125MOL     C439932   1.887   0.499   6.428 -0.3744  0.2649  0.1262
  125MOL     C539933   2.002   0.584   6.492  0.7659 -0.1983 -0.2084
  125MOL     C639934   1.636   0.610   6.849  0.0593  0.0637  0.3200
  125MOL     H739935   1.725   0.426   6.795 -1.7933 -0.3751  1.7200
  125MOL     H839936   1.852   0.370   6.593 -2.5027 -2.4319 -1.4185
  125MOL     H939937   1.713   0.402   6.504  0.2707 -0.1680 -0.0288
  125MOL    H1039938   1.829   0.555   6.356 -0.8210  0.0710  0.3364
  125MOL    H1139939   1.929   0.411   6.380  1.0875  0.2201  1.4329
  125MOL    H1239940   1.959   0.680   6.521  4.3209  0.7616  2.1450
  125MOL    H1339941   2.075   0.617   6.418 -0.1809 -0.3431 -1.2409
  125MOL    H1439942   2.036   0.525   6.577 -2.7895 -1.1341  0.6357
  125MOL    H1539943   1.605   0.706   6.809  0.2229  0.0287  0.1085
  125MOL    H1639944   1.548   0.571   6.900 -0.4687 -0.4885 -0.9955
  125MOL    H1739945   1.576   0.468   6.702 -0.6517  1.6206 -0.1929
  125MOL    C1839946   1.751   0.627   6.950  0.0854  0.4184  0.1800
  125MOL    O1939947   1.781   0.500   7.014  0.5672  0.4263 -0.3723
  125MOL    C2039948   1.701   0.459   7.125  0.7142  0.1315  0.1080
  125MOL    C2139949   1.750   0.322   7.162 -0.2826 -0.1427 -0.0405
  125MOL    C2239950   1.693   0.203   7.081 -0.4764  0.6117 -0.0573
  125MOL    C2339951   1.881   0.687   6.885  0.0156 -0.8263 -0.2310
  125MOL    H2439952   1.707   0.694   7.024  1.0581  0.6674  0.5396
  125MOL    H2539953   1.723   0.526   7.208  4.1400 -0.7731  0.0197
  125MOL    H2639954   1.597   0.452   7.094  0.7025  2.4409 -0.4602
  125MOL    H2739955   1.735   0.302   7.268  1.7499 -0.3775  0.2132
  125MOL    H2839956   1.858   0.317   7.150 -0.6174 -2.5790 -2.6480
  125MOL    H2939957   1.726   0.106   7.118 -1.0281  0.7773  0.8846
  125MOL    H3039958   1.708   0.201   6.973  0.4246  1.4320  0.0420
  125MOL    H3139959   1.587   0.207   7.102 -0.1138  2.5024  1.4902
  125MOL    H3239960   1.910   0.622   6.802  2.1355 -0.2647  0.0381
  125MOL    H3339961   1.866   0.778   6.827 -1.4409 -0.2855  0.9599
  125MOL    C3439962   2.007   0.689   6.974 -0.7101 -0.2041  0.6750
  125MOL    O3539963   2.111   0.772   6.918  0.4968  0.4657 -0.0699
  125MOL    C3639964   2.166   0.703   6.810 -0.4570  0.2086  0.2236
  125MOL    C3739965   2.279   0.793   6.759  0.1489 -0.1519 -0.1598
  125MOL    C3839966   2.359   0.741   6.638  0.2519  0.9332 -0.1490
  125MOL    C3939967   1.965   0.742   7.113  0.0394  0.1680  0.2349
  125MOL    H4039968   2.043   0.586   6.981 -2.0520 -0.6711  0.9116
  125MOL    H4139969   2.198   0.602   6.836 -1.3135  0.5938  2.9528
  125MOL    H4239970   2.089   0.707   6.733 -0.5680 -0.1411  0.3162
  125MOL    H4339971   2.350   0.813   6.839 -0.4826 -0.5449  0.5001
  125MOL    H4439972   2.233   0.888   6.733 -2.2598 -0.8152  1.5586
  125MOL    H4539973   2.292   0.721   6.555  1.1671 -0.2066 -0.6329
  125MOL    H4639974   2.418   0.653   6.664 -0.0536  0.8714  0.3357
  125MOL    H4739975   2.427   0.821   6.608  0.2783  0.5942 -1.0055
  125MOL    H4839976   1.917   0.838   7.092  2.0050  0.6420 -2.2519
  125MOL    H4939977   1.891   0.685   7.170  1.0125 -0.4945  0.8389
  125MOL    C5039978   2.088   0.763   7.210 -0.0565 -0.1005  0.2171
  125MOL    O5139979   2.031   0.817   7.330 -0.8460 -0.0406  0.1841
  125MOL    C5239980   2.017   0.957   7.337  0.0375  0.1248 -0.2396
  125MOL    C5339981   1.920   0.997   7.452  0.2230 -0.5216  0.3825
  125MOL    C5439982   1.992   0.989   7.589 -0.1020 -0.5911  0.5389
  125MOL    C5539983   2.165   0.631   7.239  0.1267  0.3491  0.9532
  125MOL    H5639984   2.154   0.842   7.174 -1.9379  0.8989 -1.1295
  125MOL    H5739985   2.113   1.004   7.358  0.2113 -0.2532 -0.1767
  125MOL    H5839986   1.983   1.012   7.249  1.1359  2.7098  0.9018
  125MOL    H5939987   1.835   0.929   7.446  0.1797 -0.4910  0.6182
  125MOL    H6039988   1.881   1.098   7.439 -0.8809 -1.4113 -3.8635
  125MOL    H6139989   2.072   1.063   7.592 -1.6805  1.1387  0.8065
  125MOL    H6239990   2.050   0.898   7.605 -1.4019 -1.2058  1.7369
  125MOL    H6339991   1.924   1.008   7.671 -1.5616  4.4360 -1.6232
  125MOL    H6439992   2.210   0.629   7.338  0.3300 -0.5566  0.8500
  125MOL    H6539993   2.101   0.542   7.242 -0.1699  0.5965  2.1354
  125MOL    C6639994   2.289   0.613   7.146 -0.2938  0.2488 -0.5465
  125MOL    O6739995   2.378   0.712   7.199 -0.9056  0.2164  0.2776
  125MOL    C6839996   2.425   0.798   7.093  0.2758 -0.8090  0.3438
  125MOL    C6939997   2.545   0.878   7.138 -0.0096  0.1932  0.2612
  125MOL    C7039998   2.515   0.993   7.232  0.2804 -0.7515  0.3325
  125MOL    C7139999   2.354   0.479   7.152 -0.2401 -0.1860 -0.1339
  125MOL    H7240000   2.258   0.631   7.043 -0.8276 -3.9713 -1.2039
  125MOL    H7340001   2.450   0.722   7.019  1.5284  0.2237 -0.3179
  125MOL    H7440002   2.338   0.855   7.060 -0.1589 -1.8327 -0.2995
  125MOL    H7540003   2.575   0.915   7.040 -3.4523  1.8334 -0.2296
  125MOL    H7640004   2.626   0.813   7.172  0.1238 -0.4341 -1.2311
  125MOL    H7740005   2.428   1.049   7.196 -1.4598 -3.0405  0.8733
  125MOL    H7840006   2.584   1.077   7.221  1.8191 -2.0980 -0.5188
  125MOL    H7940007   2.509   0.965   7.337 -1.1729  1.4271  0.8603
  125MOL    H8040008   2.445   0.460   7.096 -1.0891  0.6645 -1.8085
  125MOL    H8140009   2.386   0.471   7.256 -1.3726  0.9480  0.3210
  125MOL    C8240010   2.264   0.355   7.123  0.1364 -0.2228  0.2026
  125MOL    O8340011   2.233   0.361   6.987 -0.1453 -0.1059  0.1077
  125MOL    C8440012   2.132   0.278   6.941 -0.1393 -0.3709  0.1205
  125MOL    C8540013   2.132   0.300   6.795 -0.5262  0.3252  0.3407
  125MOL    C8640014   2.047   0.197   6.723 -0.5864  0.1914  0.0852
  125MOL    C8740015   2.345   0.227   7.151 -0.1453 -0.3322  0.6343
  125MOL    H8840016   2.168   0.354   7.173 -0.0840 -1.3627 -0.2192
  125MOL    H8940017   2.150   0.173   6.961 -0.5410 -0.6182 -0.7962
  125MOL    H9040018   2.030   0.297   6.973  0.0735 -0.7547  1.0535
  125MOL    H9140019   2.230   0.312   6.749 -0.3263 -1.0396  0.3849
  125MOL    H9240020   2.090   0.394   6.762  0.0950 -0.5519 -3.0945
  125MOL    H9340021   1.942   0.226   6.737 -0.6164  0.9694 -1.6392
  125MOL    H9440022   2.051   0.089   6.734  0.7028  0.2457  0.1643
  125MOL    H9540023   2.047   0.216   6.615 -0.8645  0.1215  0.0725
  125MOL    H9640024   2.291   0.151   7.095  0.4059  0.8138 -1.5405
  125MOL    H9740025   2.446   0.239   7.111 -0.3903  0.1585  0.1489
  125MOL    C9840026   2.346   0.178   7.299  0.2682  0.1688 -0.5128
  125MOL    O9940027   2.210   0.191   7.338  0.2312  0.1498 -0.4702
  125MOL   C10040028   2.208   0.242   7.473  0.4449 -0.4105  0.3089
  125MOL   C10140029   2.058   0.241   7.518 -0.3187 -0.0668 -1.4327
  125MOL   C10240030   1.961   0.343   7.462  0.5827 -0.0561  0.5619
  125MOL   C10340031   2.392   0.031   7.321  0.5051  0.9063  0.3943
  125MOL   H10440032   2.406   0.248   7.357  0.2206  0.3156 -0.6442
  125MOL   H10540033   2.264   0.172   7.536 -0.0903 -2.4012 -1.3670
  125MOL   H10640034   2.239   0.347   7.474 -0.4846 -0.1210 -1.1450
  125MOL   H10740035   2.047   0.254   7.626 -0.4711  2.5529 -1.7378
  125MOL   H10840036   2.019   0.144   7.489 -2.7520 -0.0062  1.3782
  125MOL   H10940037   1.858   0.342   7.499  0.3064 -0.2174 -0.1913
  125MOL   H11040038   1.951   0.329   7.354 -1.0562  0.5476  0.6081
  125MOL   H11140039   1.991   0.447   7.475 -0.9556  0.5269 -0.3581
  125MOL   H11240040   2.397   0.013   7.429 -0.8000  0.6096  0.4120
  125MOL   H11340041   2.317   7.784   7.293 -0.2846  1.7081  0.3280
  125MOL   C11440042   2.524   7.809   7.262 -0.3794 -0.5339  0.3260
  125MOL   O11540043   2.510   7.808   7.119  0.0072  0.1950  0.5133
  125MOL   C11640044   2.483   7.681   7.068  0.0699 -0.3908  0.3273
  125MOL   C11740045   2.441   7.688   6.922 -0.3199  0.0033 -0.3239
  125MOL   C11840046   2.334   7.792   6.880  0.3784  0.3612  0.3043
  125MOL   C11940047   2.652   0.057   7.310 -0.3902 -0.8240 -0.1408
  125MOL   H12040048   2.535   7.707   7.300 -0.4419 -0.2867  1.0090
  125MOL   H12140049   2.565   7.610   7.079  0.1087 -0.3885  0.0534
  125MOL   H12240050   2.397   7.639   7.121  1.0064  1.1702  3.2172
  125MOL   H12340051   2.410   7.591   6.884 -0.4568 -0.3250  0.6027
  125MOL   H12440052   2.535   7.708   6.871 -1.3503  0.1118 -2.2292
  125MOL   H12540053   2.238   7.757   6.918 -0.8366  0.5633 -2.4664
  125MOL   H12640054   2.326   7.785   6.771 -1.6503 -5.4945  0.6757
  125MOL   H12740055   2.350   0.067   6.913 -2.2148  1.3252 -1.2652
  125MOL   H12840056   2.656   0.141   7.241 -1.0109 -2.6166 -2.4179
  125MOL   H12940057   2.634   0.097   7.410  2.2832  0.3817 -0.1049
  125MOL   C13040058   2.780   7.794   7.317 -0.4058  0.1745 -0.3291
  125MOL   O13140059   2.742   7.692   7.416 -0.0923  0.3798  0.4540
  125MOL   C13240060   2.842   7.613   7.477  0.0369 -0.0368  0.3502
  125MOL   C13340061   2.800   7.474   7.514  0.9346  0.6446 -0.4050
  125MOL   C13440062   2.744   7.384   7.403  0.1418  0.1499 -0.1546
  125MOL   C13540063   2.829   7.727   7.188 -0.8097  0.6856  0.2913
  125MOL   H13640064   2.859   0.027   7.361 -1.0959  0.8259  0.0155
  125MOL   H13740065   2.935   7.609   7.422  0.0443  2.0858  0.1775
  125MOL   H13840066   2.869   7.667   7.568  0.1266 -1.5437  1.2417
  125MOL   H13940067   2.721   7.485   7.589  0.5962 -0.5799 -0.5688
  125MOL   H14040068   2.889   7.425   7.553  0.6371 -0.9639 -1.6489
  125MOL   H14140069   2.831   7.340   7.354 -1.5795 -1.4761 -1.8235
  125MOL   H14240070   2.682   7.432   7.327 -0.2790 -1.3152 -0.7461
  125MOL   H14340071   2.692   7.300   7.447  0.1745 -0.6234 -1.5524
  125MOL   H14440072   2.894   7.646   7.225 -2.5154 -1.2292 -0.8258
  125MOL   H14540073   2.759   7.663   7.135 -0.1231  0.9602 -0.9543
  125MOL   C14640074   2.906   0.001   7.104 -0.1192 -0.0675  0.3718
  125MOL   O14740075   3.027   0.008   7.172  0.3383  0.1451 -0.3188
  125MOL   C14840076   3.074   0.141   7.188 -0.0996 -0.0357 -0.2369
  125MOL   C14940077   3.220   0.148   7.233 -0.1387 -0.4862  0.1153
  125MOL   C15040078   3.330   0.075   7.153  0.0106  0.1639  0.5352
  125MOL   C15140079   2.952   7.782   6.961  0.5002  1.0924  0.3615
  125MOL   H15240080   2.868   0.103   7.103  0.4149  0.1368  0.4511
  125MOL   H15340081   3.068   0.213   7.106  0.1018  0.5528  0.2628
  125MOL   H15440082   3.015   0.182   7.269 -1.3057 -1.2577 -0.4783
  125MOL   H15540083   3.232   0.121   7.338 -0.8768 -2.4792 -0.2951
  125MOL   H15640084   3.243   0.254   7.230  1.1593 -0.7035  2.0615
  125MOL   H15740085   3.312   7.796   7.137  0.1905  0.5258 -2.2968
  125MOL   H15840086   3.431   0.090   7.193  0.0442  0.5523  0.3069
  125MOL   H15940087   3.317   0.111   7.051 -1.9044 -3.5975 -0.6688
  125MOL   H16040088   3.034   0.020   6.932  1.1270 -0.7574 -2.2056
  125MOL   H16140089   2.978   7.677   6.955  1.0032  1.1993  0.6331
  125MOL   C16240090   2.850   7.796   6.850  0.0485 -0.5688 -0.5776
  125MOL   O16340091   2.843   0.107   6.817  0.0727  0.0332  0.0100
  125MOL   C16440092   2.710   0.157   6.822 -0.5385 -0.5387 -0.6325
  125MOL   C16540093   2.712   0.299   6.766  0.2109  0.7840 -0.2515
  125MOL   C16640094   2.575   0.371   6.787  0.5366  0.3107 -0.9324
  125MOL   C16740095   2.864   7.721   6.723  0.6134  0.3727  0.0791
  125MOL   H16840096   2.758   7.767   6.901 -0.1854  1.5408  0.2675
  125MOL   H16940097   2.637   0.086   6.785 -0.8500 -0.8497  0.5507
  125MOL   H17040098   2.684   0.163   6.928  1.5000  3.0938 -0.2458
  125MOL   H17140099   2.746   0.308   6.663 -0.6109 -2.4454 -0.8669
  125MOL   H17240100   2.793   0.353   6.815  0.8578 -1.4535  1.2476
  125MOL   H17340101   2.563   0.461   6.727  1.0136  0.3298 -0.9939
  125MOL   H17440102   2.571   0.396   6.893  1.2966 -0.0338 -0.8192
  125MOL   H17540103   2.488   0.312   6.757 -2.3062  2.7946  2.0621
  125MOL   H17640104   2.835   7.793   6.647 -0.4951 -1.0062 -0.8396
  125MOL   H17740105   2.971   7.708   6.704  1.4341  3.8966  1.9584
  125MOL   C17840106   2.787   7.591   6.718  0.5536  0.5115 -0.5001
  125MOL   O17940107   2.780   7.551   6.577 -0.3169  0.2695  0.3089
  125MOL   C18040108   2.668   7.584   6.510 -0.1967 -0.0882  0.5580
  125MOL   C18140109   2.659   7.511   6.377  0.1358  0.2445  0.2722
  125MOL   C18240110   2.590   7.379   6.388 -0.3758  1.1026  0.1242
  125MOL   C18340111   2.853   7.473   6.791  0.1555 -0.3978  0.3566
  125MOL   H18440112   2.687   7.600   6.759  0.9054  0.9944  0.2644
  125MOL   H18540113   2.573   7.567   6.560 -0.7932 -1.4215 -0.9804
  125MOL   H18640114   2.666   7.690   6.485  0.7484 -0.4588 -1.1462
  125MOL   H18740115   2.751   7.494   6.320 -0.3393 -2.3607  0.2235
  125MOL   H18840116   2.599   7.579   6.317  2.5894  0.5616 -1.9112
  125MOL   H18940117   2.499   7.396   6.445 -1.2390 -1.5815 -0.3886
  125MOL   H19040118   2.644   7.296   6.434 -0.7862 -0.2383 -1.7846
  125MOL   H19140119   2.560   7.359   6.286  0.1925 -0.3451  0.2292
  125MOL   H19240120   2.953   7.460   6.751  0.1630 -1.6204  0.7505
  125MOL   H19340121   2.876   7.491   6.896  1.0259 -3.2695  0.7067
  125MOL   C19440122   2.780   7.342   6.786 -0.2564  0.1219 -0.1987
  125MOL   O19540123   2.849   7.252   6.867  0.2396 -0.0545  0.6659
  125MOL   C19640124   2.894   7.135   6.805  0.1160  0.3998  0.1539
  125MOL   C19740125   2.998   7.169   6.699 -0.2160 -0.0730 -0.5112
  125MOL   C19840126   3.053   7.050   6.618 -0.4590 -0.2250  0.1933
  125MOL   C19940127   2.640   7.354   6.855  0.0705  0.2765  0.2684
  125MOL   H20040128   2.763   7.305   6.685  0.5868 -0.1186 -0.2561
  125MOL   H20140129   2.952   7.082   6.881 -2.9311 -0.9115  1.6589
  125MOL   H20240130   2.809   7.085   6.759  0.5168 -0.0802 -0.0740
  125MOL   H20340131   3.068   7.233   6.754  0.1230 -0.8930  0.0189
  125MOL   H20440132   2.958   7.228   6.617 -1.2121  1.8493  1.3062
  125MOL   H20540133   2.974   7.001   6.560  0.4400 -0.4415 -0.8591
  125MOL   H20640134   3.104   6.976   6.679  0.5793  2.5310  2.7778
  125MOL   H20740135   3.135   7.086   6.556  0.0382  0.8961  1.4831
  125MOL   H20840136   2.653   7.408   6.948  0.8892  1.9592 -0.7970
  125MOL   H20940137   2.583   7.414   6.784  0.4584 -0.7986 -0.9809
  125MOL   C21040138   2.557   7.226   6.878  0.9751  0.1215  0.2185
  125MOL   O21140139   2.438   7.272   6.942  0.3442 -0.2529 -0.5893
  125MOL   C21240140   2.448   7.274   7.088  0.2679  0.4451  0.1869
  125MOL   C21340141   2.326   7.345   7.155 -0.3045  0.0573  0.2362
  125MOL   C21440142   2.382   7.398   7.296 -0.0994  0.1290  0.2235
  125MOL   C21540143   2.515   7.149   6.751  0.3077 -0.4551 -0.4100
  125MOL   H21640144   2.610   7.164   6.950  0.9916 -0.6966 -0.4953
  125MOL   H21740145   2.451   7.175   7.133  0.2665  0.1332 -0.4861
  125MOL   H21840146   2.539   7.320   7.127  0.4135 -1.6239  2.4268
  125MOL   H21940147   2.239   7.280   7.166  0.3542 -0.8336  0.1826
  125MOL   H22040148   2.304   7.441   7.107 -0.3824  0.8672  1.8690
  125MOL   H22140149   2.412   7.313   7.358 -0.4818 -0.3514 -0.2462
  125MOL   H22240150   2.316   7.456   7.360 -0.8786  2.3959 -2.5301
  125MOL   H22340151   2.462   7.471   7.283  0.0584 -0.3707 -1.8075
  125MOL   H22440152   2.450   7.197   6.679 -0.7641 -4.7416 -2.4884
  125MOL   H22540153   2.598   7.126   6.684  0.2459  2.0259 -1.3754
  125MOL   C22640154   2.462   7.011   6.784  0.0061  0.7264 -0.0207
  125MOL   O22740155   2.571   6.947   6.857 -0.7093 -0.2035 -0.3285
  125MOL   C22840156   2.536   6.820   6.911  0.3910 -0.7702 -0.5877
  125MOL   C22940157   2.666   6.766   6.981  0.3152 -0.3076  1.0259
  125MOL   C23040158   2.763   6.724   6.880  0.1825 -0.0418  0.0545
  125MOL   C23140159   2.323   7.002   6.850  1.1604  0.3946  0.0071
  125MOL   H23240160   2.456   6.949   6.694 -0.9826  0.3975  0.2649
  125MOL   H23340161   2.461   6.829   6.990 -1.1135  1.7070 -2.2342
  125MOL   H23440162   2.492   6.753   6.837  0.0728  0.2231 -1.3039
  125MOL   H23540163   2.633   6.680   7.038 -1.7280 -1.8981 -2.4012
  125MOL   H23640164   2.717   6.834   7.050  2.6877 -0.8301 -0.1826
  125MOL   H23740165   2.789   6.811   6.819  3.3758 -0.2971  0.9496
  125MOL   H23840166   2.707   6.655   6.818  0.3799 -0.8369  0.7532
  125MOL   H23940167   2.860   6.691   6.919 -0.5697 -2.1597  0.1630
  125MOL   H24040168   2.283   6.907   6.886  3.2010 -1.4523 -2.4859
  125MOL   H24140169   2.328   7.060   6.942  2.8463  0.1605  0.0713
  125MOL   C24240170   2.209   7.062   6.764 -0.3010 -0.6662 -0.3705
  125MOL   O24340171   2.214   6.980   6.652  0.1080  0.5865  0.8714
  125MOL   C24440172   2.161   7.040   6.533  0.2223 -0.3753  0.2336
  125MOL   C24540173   2.164   6.938   6.416  0.2565 -1.1154 -0.6790
  125MOL   C24640174   2.319   6.929   6.379 -0.2890  0.3823 -0.0105
  125MOL   C24740175   2.071   7.053   6.827  0.9645  0.1764  0.2111
  125MOL   H24840176   2.226   7.166   6.738  0.6731 -0.9963 -1.0860
  125MOL   H24940177   2.055   7.057   6.553  0.6287  0.3308  1.9024
  125MOL   H25040178   2.208   7.135   6.508  0.8328 -0.5909  0.5377
  125MOL   H25140179   2.104   6.981   6.336 -1.8198  0.2596  1.5165
  125MOL   H25240180   2.120   6.842   6.443 -0.6508 -1.2732 -2.6568
  125MOL   H25340181   2.350   7.026   6.340 -0.8732  1.3203  1.7807
  125MOL   H25440182   2.342   6.848   6.309 -1.4087 -0.8689  1.0450
  125MOL   H25540183   2.377   6.911   6.469  1.1139  2.1163 -0.5399
  125MOL   H25640184   1.994   7.055   6.750  1.0875  1.2407  0.1104
  125MOL   H25740185   2.057   6.958   6.877  2.2682 -0.1372  0.0049
  125MOL   C25840186   2.029   7.165   6.922  0.1836 -0.1173  0.5140
  125MOL   O25940187   2.025   7.282   6.846 -0.4075  0.0909 -0.4443
  125MOL   C26040188   2.121   7.388   6.879 -0.6764 -0.1255  0.3416
  125MOL   C26140189   2.156   7.468   6.756 -0.1203  0.8680  0.2125
  125MOL   C26240190   2.032   7.515   6.680  0.3073 -0.8603  0.2617
  125MOL   C26340191   1.884   7.143   6.970  0.0811 -0.3589  0.3574
  125MOL   H26440192   2.099   7.170   7.006  1.2674 -0.3563 -0.3723
  125MOL   H26540193   2.088   7.447   6.964 -1.0949  0.1241  0.0073
  125MOL   H26640194   2.210   7.330   6.904 -2.0846 -2.3915  0.2345
  125MOL   H26740195   2.224   7.414   6.691  0.5142  2.7646 -0.7300
  125MOL   H26840196   2.205   7.559   6.790 -0.0681  1.5861 -1.7124
  125MOL   H26940197   1.993   7.431   6.622  0.0209 -0.6926  0.2094
  125MOL   H27040198   2.053   7.605   6.623 -1.1650 -0.3774  0.4638
  125MOL   H27140199   1.946   7.543   6.741 -0.3974 -1.9312 -0.2173
  125MOL   H27240200   1.815   7.119   6.889  0.7776 -0.3790 -0.2294
  125MOL   H27340201   1.874   7.060   7.040  1.1033 -0.3777  0.4875
  125MOL   C27440202   1.840   7.267   7.058 -0.3322 -0.2609 -0.4934
  125MOL   O27540203   1.701   7.290   7.032  0.0561 -0.1663 -0.2750
  125MOL   C27640204   1.677   7.351   6.905 -0.4638 -0.2502 -0.2412
  125MOL   C27740205   1.529   7.383   6.879 -0.3868  0.0046 -0.7842
  125MOL   C27840206   1.442   7.252   6.874 -0.0134  0.0883 -0.2955
  125MOL   C27940207   1.865   7.241   7.206 -1.2319 -0.8373  0.0544
  125MOL   H28040208   1.892   7.357   7.026  0.6823 -0.2931  0.9877
  125MOL   H28140209   1.732   7.445   6.903  1.2824 -1.2560 -0.5584
  125MOL   H28240210   1.716   7.294   6.821 -0.8392  0.2815 -0.7785
  125MOL   H28340211   1.520   7.446   6.791 -2.4112  2.0800  0.8288
  125MOL   H28440212   1.497   7.448   6.961  0.3894  2.1938 -2.1724
  125MOL   H28540213   1.483   7.177   6.806  0.4330 -0.5694  0.6863
  125MOL   H28640214   1.336   7.264   6.856 -0.8222 -1.0150  3.2803
  125MOL   H28740215   1.452   7.202   6.970 -1.2739  0.3842 -0.0061
  125MOL   H28840216   1.794   7.169   7.247 -0.2550 -0.6727  2.0757
  125MOL   H28940217   1.963   7.199   7.228 -1.0512 -0.4301  0.0458
  125MOL   C29040218   1.846   7.360   7.298 -0.7494  0.3764  0.2072
  125MOL   O29140219   1.936   7.459   7.251 -0.3931 -0.1110  0.3823
  125MOL   C29240220   1.979   7.567   7.343  0.1232  0.1785  0.5907
  125MOL   C29340221   1.952   7.684   7.255  0.6535 -0.3261 -0.4990
  125MOL   C29440222   2.062   7.692   7.147  0.1206  0.0068 -0.3839
  125MOL   C29540223   1.703   7.421   7.300  0.1498 -0.3992 -0.1160
  125MOL   H29640224   1.878   7.332   7.399  1.2108  0.8369 -0.2574
  125MOL   H29740225   1.914   7.570   7.430 -1.7413 -1.6801 -0.6768
  125MOL   H29840226   2.082   7.555   7.374 -0.1581 -0.1555  1.4162
  125MOL   H29940227   1.951   7.770   7.322 -2.5500 -0.9929  0.4330
  125MOL   H30040228   1.849   7.675   7.221  0.5914 -2.0735  0.1067
  125MOL   H30140229   2.053   7.786   7.092 -2.1566  0.2798  0.3761
  125MOL   H30240230   2.058   7.615   7.070  2.1016 -0.3541 -0.1420
  125MOL   H30340231   2.159   7.685   7.195  0.0608 -1.3906 -0.4392
  125MOL   H30440232   1.686   7.509   7.361 -4.7328 -0.5401 -1.0680
  125MOL   H30540233   1.687   7.457   7.198  0.0504 -3.2458 -1.1541
  125MOL   C30640234   1.588   7.333   7.337 -0.3411  0.8021  0.4940
  125MOL   O30740235   1.608   7.322   7.477  0.4636  0.1272 -0.3391
  125MOL   C30840236   1.540   7.212   7.537  0.1702 -0.9873 -0.1974
  125MOL   C30940237   1.517   7.245   7.683  0.1037  0.0302 -0.4128
  125MOL   C31040238   1.439   7.132   7.749 -0.3352 -0.2826 -0.3363
  125MOL   C31140239   1.452   7.394   7.298  0.1452  0.2795  0.9835
  125MOL   H31240240   1.589   7.239   7.283  1.0598  0.7884  0.5214
  125MOL   H31340241   1.444   7.189   7.490 -0.0005  1.0594 -0.9010
  125MOL   H31440242   1.606   7.130   7.509  0.9015  0.0690 -1.6366
  125MOL   H31540243   1.466   7.341   7.695 -0.6655 -0.1829 -1.8183
  125MOL   H31640244   1.613   7.263   7.730  0.3889  0.4798 -1.1489
  125MOL   H31740245   1.503   7.045   7.736 -1.1713 -1.3038  2.0551
  125MOL   H31840246   1.343   7.116   7.700 -0.5979 -0.5987  0.2728
  125MOL   H31940247   1.413   7.156   0.024 -0.5040 -0.3629 -0.3599
  125MOL   H32040248   1.427   7.487   7.349 -0.9019  0.6173 -0.1181
  125MOL   H32140249   1.446   7.434   7.197 -0.2000 -2.7808 -0.2578
  125MOL   H32240250   1.373   7.321   7.318 -1.2782  1.0015 -1.7682
  126MOL     C140251   1.886   1.170   4.340  0.3112  0.0958  1.2065
  126MOL     O240252   1.826   1.052   4.290  0.3519  0.0221 -0.2985
  126MOL     C340253   1.812   0.962   4.400 -0.1667  0.0979 -0.3572
  126MOL     C440254   1.705   0.852   4.361 -0.0055  0.3375  0.3793
  126MOL     C540255   1.716   0.723   4.450 -0.7909  0.1802  0.3078
  126MOL     C640256   2.040   1.169   4.318  0.2790  0.7281  0.5986
  126MOL     H740257   1.858   1.193   4.443 -0.5968 -0.5050  1.1009
  126MOL     H840258   1.906   0.912   4.421 -1.1470 -1.1240  1.2891
  126MOL     H940259   1.779   1.020   4.486  0.3103 -1.9437  1.2167
  126MOL    H1040260   1.704   0.837   4.253 -0.3416  0.8440  0.3138
  126MOL    H1140261   1.612   0.904   4.385 -2.5949 -2.7981 -2.3485
  126MOL    H1240262   1.728   0.758   4.553 -1.0784  2.0657 -0.2815
  126MOL    H1340263   1.815   0.688   4.421 -1.1541 -0.5315 -0.0773
  126MOL    H1440264   1.644   0.642   4.451 -1.6988  0.9818  1.1967
  126MOL    H1540265   2.076   1.085   4.377  0.6376  1.7016  1.8091
  126MOL    H1640266   2.063   1.126   4.221 -1.6099  1.4660 -0.2035
  126MOL    H1740267   1.842   1.256   4.289  2.0885  0.9656  1.1264
  126MOL    C1840268   2.116   1.297   4.362  1.2111 -0.3700  0.8614
  126MOL    O1940269   2.106   1.301   4.497 -0.1089 -0.0642 -0.0765
  126MOL    C2040270   2.094   1.435   4.547 -0.0852 -0.3238 -0.5922
  126MOL    C2140271   2.064   1.438   4.692 -0.1475 -0.7597 -0.9893
  126MOL    C2240272   2.052   1.583   4.738 -0.0856  0.1805  0.0687
  126MOL    C2340273   2.264   1.290   4.320 -0.5915  0.2741  0.0761
  126MOL    H2440274   2.063   1.380   4.314  1.2538 -0.3868  0.7849
  126MOL    H2540275   2.193   1.480   4.542  0.2383 -1.1232 -1.7249
  126MOL    H2640276   2.018   1.496   4.497 -0.8803 -0.6683  0.1855
  126MOL    H2740277   2.143   1.388   4.748  0.1128  1.2107  0.4654
  126MOL    H2840278   1.971   1.384   4.711 -0.2623 -0.3239 -0.3211
  126MOL    H2940279   2.021   1.590   4.843 -0.8949  1.2408 -0.2311
  126MOL    H3040280   1.974   1.629   4.677  1.5429 -0.4541 -2.5544
  126MOL    H3140281   2.147   1.636   4.737  0.6343 -1.0045  2.4442
  126MOL    H3240282   2.309   1.386   4.344 -1.8911  1.2046 -1.1565
  126MOL    H3340283   2.322   1.216   4.376 -1.2214 -0.2012  0.1059
  126MOL    C3440284   2.279   1.268   4.166 -0.9525  0.3141 -0.4858
  126MOL    O3540285   2.239   1.389   4.098  0.3769  0.6625  0.1058
  126MOL    C3640286   2.129   1.362   3.999 -0.6137  0.4996 -0.5495
  126MOL    C3740287   2.100   1.497   3.932 -0.0296  0.3672 -0.3774
  126MOL    C3840288   2.043   1.607   4.024  0.5323  0.3098  0.2502
  126MOL    C3940289   2.426   1.257   4.130  0.5822 -0.3992 -0.6614
  126MOL    H4040290   2.234   1.179   4.124 -0.1041 -0.6975  0.7099
  126MOL    H4140291   2.161   1.281   3.934 -2.2209 -1.9179  1.5595
  126MOL    H4240292   2.044   1.319   4.053  0.6978 -0.0832  1.1224
  126MOL    H4340293   2.045   1.491   3.839  1.5820 -0.1205 -1.3158
  126MOL    H4440294   2.202   1.525   3.905 -0.7435  2.1921 -1.2989
  126MOL    H4540295   2.053   1.705   3.978 -1.0651  0.6459  0.5839
  126MOL    H4640296   2.092   1.610   4.122 -0.3345 -1.4034  0.7598
  126MOL    H4740297   1.940   1.580   4.045  0.6132 -1.9741 -2.0105
  126MOL    H4840298   2.469   1.355   4.112  0.6644 -0.2777  0.1890
  126MOL    H4940299   2.487   1.224   4.214  0.7866 -1.8515 -1.3494
  126MOL    C5040300   2.469   1.168   4.003 -0.1108 -0.7898  0.9425
  126MOL    O5140301   2.610   1.158   4.012 -0.1037  0.2877 -0.8106
  126MOL    C5240302   2.681   1.257   3.932 -0.0586 -0.3715  0.2493
  126MOL    C5340303   2.817   1.275   4.002 -0.1846  0.3209  0.3438
  126MOL    C5440304   2.808   1.360   4.134  0.0572  0.7307  0.0002
  126MOL    C5540305   2.409   1.022   4.008 -0.1990 -1.0242 -0.0478
  126MOL    H5640306   2.433   1.221   3.916 -0.7801 -1.5688  0.7349
  126MOL    H5740307   2.692   1.217   3.832  1.7397  0.4500  0.1058
  126MOL    H5840308   2.631   1.353   3.917  1.0254  0.2156  0.3435
  126MOL    H5940309   2.882   1.335   3.937  0.5859 -2.2313 -1.3306
  126MOL    H6040310   2.866   1.182   4.031 -1.6426  0.1606  2.3588
  126MOL    H6140311   2.756   1.454   4.117 -0.9564  0.5015  1.6526
  126MOL    H6240312   2.906   1.380   4.176  0.0835  0.8050 -0.0990
  126MOL    H6340313   2.753   1.316   4.218  0.3535 -2.3292 -1.3178
  126MOL    H6440314   2.305   1.025   3.975 -0.4938  3.3911  1.0421
  126MOL    H6540315   2.466   0.976   3.927  0.1278 -0.8800  0.0988
  126MOL    C6640316   2.426   0.950   4.145  0.4373  0.5333 -0.2369
  126MOL    O6740317   2.343   0.835   4.138  0.8253  0.2697 -0.9344
  126MOL    C6840318   2.208   0.845   4.177 -0.1042 -1.2480 -0.2332
  126MOL    C6940319   2.144   0.703   4.153 -0.1375  0.6353  0.7995
  126MOL    C7040320   2.001   0.704   4.198 -0.0827  0.2340 -0.1334
  126MOL    C7140321   2.558   0.884   4.182  0.0017 -0.2333  0.8982
  126MOL    H7240322   2.373   1.004   4.223 -1.1833 -0.5591 -0.5350
  126MOL    H7340323   2.201   0.879   4.281 -1.5717 -0.3292 -0.6185
  126MOL    H7440324   2.168   0.925   4.114  1.5745  0.3332  0.6361
  126MOL    H7540325   2.194   0.620   4.202 -2.3299 -0.8846  0.5145
  126MOL    H7640326   2.161   0.681   4.048  1.9800 -2.3603  1.7009
  126MOL    H7740327   1.959   0.604   4.202 -0.2051  0.2988  0.2297
  126MOL    H7840328   1.936   0.765   4.135 -0.5167  0.1269  0.2143
  126MOL    H7940329   2.003   0.742   4.300 -1.2567  0.6761 -0.2659
  126MOL    H8040330   2.568   0.794   4.122  0.1826  0.4716 -0.1464
  126MOL    H8140331   2.645   0.942   4.149 -0.5440 -0.2089 -0.5474
  126MOL    C8240332   2.563   0.852   4.330  0.2555 -0.7837 -0.7117
  126MOL    O8340333   2.660   0.745   4.364 -0.5009  0.5279 -0.1121
  126MOL    C8440334   2.637   0.611   4.310  0.0673 -0.1924 -0.5825
  126MOL    C8540335   2.536   0.541   4.402  0.2358 -0.3716  0.2432
  126MOL    C8640336   2.571   0.540   4.558  0.3871  0.0341 -0.4843
  126MOL    C8740337   2.587   0.971   4.417 -0.1381  0.1372  0.3673
  126MOL    H8840338   2.467   0.819   4.368  0.2146 -0.3337 -0.4243
  126MOL    H8940339   2.592   0.614   4.211  0.5468  1.8649 -0.7559
  126MOL    H9040340   2.727   0.554   4.291  0.9139  0.9541 -0.1025
  126MOL    H9140341   2.551   0.436   4.375  0.0156 -0.2120 -0.4880
  126MOL    H9240342   2.432   0.562   4.380 -0.0141 -1.4842  0.2947
  126MOL    H9340343   2.676   0.540   4.588 -0.7992 -3.5194  4.2150
  126MOL    H9440344   2.528   0.447   4.593 -0.0642  0.5022  0.2256
  126MOL    H9540345   2.519   0.611   4.622  0.6657 -2.7417  2.9030
  126MOL    H9640346   2.690   1.003   4.400 -0.9021  0.9790 -2.9862
  126MOL    H9740347   2.526   1.044   4.365 -0.8247  0.4198  1.5412
  126MOL    C9840348   2.560   0.956   4.567  0.0261  0.4753  0.1457
  126MOL    O9940349   2.646   1.044   4.637 -0.0013 -0.1849  0.0286
  126MOL   C10040350   2.775   0.997   4.656 -0.1493 -0.1115  0.4670
  126MOL   C10140351   2.872   1.114   4.664  0.5694 -0.1399  0.3668
  126MOL   C10240352   2.887   1.201   4.527 -0.0001  0.0189 -0.1498
  126MOL   C10340353   2.413   0.982   4.605  0.2825 -0.4683  0.1090
  126MOL   H10440354   2.588   0.857   4.604  0.0195  0.0822 -0.8843
  126MOL   H10540355   2.776   0.939   4.749 -0.1544 -3.0432 -1.3198
  126MOL   H10640356   2.807   0.919   4.588  2.9551  0.9244  0.6777
  126MOL   H10740357   2.968   1.071   4.694  0.8281  1.7374  2.3489
  126MOL   H10840358   2.837   1.182   4.742  1.2772  4.0787 -2.7967
  126MOL   H10940359   2.788   1.235   4.497  1.3999  1.7348 -3.0143
  126MOL   H11040360   2.930   1.136   4.451 -0.6050 -0.1530 -0.3405
  126MOL   H11140361   2.947   1.290   4.547  0.9994 -0.5726 -0.4567
  126MOL   H11240362   2.377   1.080   4.573  1.2754 -0.0938  0.1032
  126MOL   H11340363   2.345   0.918   4.548 -1.2933 -0.3729  1.8375
  126MOL   C11440364   2.383   0.960   4.755  0.4353 -0.1487  0.6979
  126MOL   O11540365   2.240   0.974   4.772  0.5400 -0.2972  0.3498
  126MOL   C11640366   2.186   1.105   4.786 -0.6210  0.0803 -0.2859
  126MOL   C11740367   2.036   1.075   4.805 -0.4409 -0.1989 -0.8897
  126MOL   C11840368   1.991   1.008   4.936  0.0063  0.2961  0.7118
  126MOL   C11940369   2.411   0.823   4.811 -0.7978 -0.1774 -0.3277
  126MOL   H12040370   2.431   1.037   4.817 -1.0690  1.0921  0.3568
  126MOL   H12140371   2.211   1.170   4.869 -2.5464 -1.1307  1.2993
  126MOL   H12240372   2.216   1.151   4.692  2.4194  0.4962  0.8665
  126MOL   H12340373   1.987   1.024   4.723  0.5534  0.3808 -1.8660
  126MOL   H12440374   1.972   1.162   4.788 -1.6172 -0.6652  1.0405
  126MOL   H12540375   2.035   0.913   4.968  0.5884 -0.0500 -1.0551
  126MOL   H12640376   1.886   0.980   4.930 -0.3505  1.3556  1.7903
  126MOL   H12740377   1.997   1.077   5.020  2.1729 -0.1400  0.9509
  126MOL   H12840378   2.365   0.742   4.754  2.7918 -2.8733  0.4224
  126MOL   H12940379   2.517   0.798   4.815 -0.6385  0.8107  2.2716
  126MOL   C13040380   2.357   0.794   4.952 -0.3776  0.0377 -0.0242
  126MOL   O13140381   2.409   0.669   4.992 -0.5755  0.2523  0.2626
  126MOL   C13240382   2.324   0.556   4.969  0.6344  0.8764 -0.0838
  126MOL   C13340383   2.223   0.542   5.078  0.2267  0.2335  0.1538
  126MOL   C13440384   2.292   0.515   5.216 -0.2792 -0.6400  0.0001
  126MOL   C13540385   2.394   0.889   5.064  0.3726 -0.2465  0.0720
  126MOL   H13640386   2.248   0.794   4.951 -0.3964 -1.8008  0.1377
  126MOL   H13740387   2.255   0.562   4.885  1.7686  0.1033 -1.0867
  126MOL   H13840388   2.380   0.463   4.969  0.6801  0.9031  0.0533
  126MOL   H13940389   2.154   0.462   5.051  0.0925  0.1193  0.8162
  126MOL   H14040390   2.159   0.630   5.085 -1.9095 -1.4832  3.0172
  126MOL   H14140391   2.324   0.411   5.212 -0.6863 -0.7035 -2.5128
  126MOL   H14240392   2.214   0.531   5.291  0.7021  3.6154  0.2559
  126MOL   H14340393   2.375   0.584   5.227 -0.3591 -0.7185  1.1395
  126MOL   H14440394   2.332   0.979   5.058  0.5287 -0.0182  1.6523
  126MOL   H14540395   2.354   0.840   5.152 -0.3489 -1.6596 -1.0218
  126MOL   C14640396   2.542   0.932   5.083  0.4071 -0.6696  0.6495
  126MOL   O14740397   2.538   1.058   5.140  0.2526 -0.5636  0.8461
  126MOL   C14840398   2.548   1.166   5.046  0.0617 -0.1553 -0.4014
  126MOL   C14940399   2.577   1.300   5.113 -0.3103 -0.2033 -0.6861
  126MOL   C15040400   2.698   1.293   5.210 -1.0871  0.0542  0.2116
  126MOL   C15140401   2.616   0.828   5.174  0.4791 -0.9931 -0.3422
  126MOL   H15240402   2.592   0.935   4.986 -0.4051 -0.5549  0.2312
  126MOL   H15340403   2.620   1.148   4.966  0.9779  2.1190 -0.1170
  126MOL   H15440404   2.451   1.182   4.998 -1.0457 -0.0580  1.8251
  126MOL   H15540405   2.494   1.335   5.175  0.5124  1.0297 -0.2537
  126MOL   H15640406   2.591   1.376   5.037 -1.2691  0.4809 -0.1890
  126MOL   H15740407   2.784   1.235   5.177 -0.4687 -0.2078  2.1993
  126MOL   H15840408   2.671   1.245   5.304 -0.3753  1.0933  0.9631
  126MOL   H15940409   2.728   1.392   5.246  0.2528 -0.2084 -0.1610
  126MOL   H16040410   2.574   0.841   5.274  3.1835 -2.8673  1.1123
  126MOL   H16140411   2.590   0.728   5.142  0.6066 -2.0806  2.7394
  126MOL   C16240412   2.768   0.855   5.186  0.2071  0.1231 -0.7526
  126MOL   O16340413   2.828   0.784   5.303  0.4154 -0.0715  0.0136
  126MOL   C16440414   2.857   0.861   5.422 -0.2431 -0.2086  0.2835
  126MOL   C16540415   2.930   0.777   5.529  0.2859 -1.4132  0.3567
  126MOL   C16640416   3.063   0.725   5.483 -0.1870 -0.5348  0.2605
  126MOL   C16740417   2.849   0.798   5.065 -0.5011 -0.3028 -0.7184
  126MOL   H16840418   2.779   0.963   5.195 -2.8292  0.3247  1.0677
  126MOL   H16940419   2.920   0.946   5.395 -0.8582 -0.1566 -1.0265
  126MOL   H17040420   2.763   0.901   5.461  0.9623  1.7699  1.2130
  126MOL   H17140421   2.870   0.689   5.556 -1.6453 -0.9445 -2.1789
  126MOL   H17240422   2.942   0.844   5.614  0.4607  1.0295 -1.5513
  126MOL   H17340423   3.139   0.803   5.483 -0.6082 -0.1056 -1.2180
  126MOL   H17440424   3.064   0.675   5.386  1.3244 -2.2048  1.1243
  126MOL   H17540425   3.096   0.644   5.547  1.3019  0.6307  0.9979
  126MOL   H17640426   2.841   0.691   5.083  0.1410 -0.4557 -1.3467
  126MOL   H17740427   2.802   0.820   4.969  2.1785 -1.7126 -2.4030
  126MOL   C17840428   3.002   0.834   5.057 -0.5864  0.0084  0.9143
  126MOL   O17940429   3.042   0.748   4.951 -0.2862 -0.1428 -0.1339
  126MOL   C18040430   3.185   0.730   4.942 -0.0192 -0.3010  0.1274
  126MOL   C18140431   3.248   0.627   5.032  0.5306  0.3908 -0.9243
  126MOL   C18240432   3.392   0.593   5.002 -0.2695  0.5485 -0.3414
  126MOL   C18340433   3.036   0.982   5.018 -0.3899  0.0417 -0.3223
  126MOL   H18440434   3.047   0.802   5.151 -1.7016  1.1724  1.8556
  126MOL   H18540435   3.185   0.681   4.845  0.0391 -0.7714  0.3604
  126MOL   H18640436   3.246   0.819   4.934 -1.6316  0.8326  0.2947
  126MOL   H18740437   3.186   0.537   5.029  0.8938  0.0328  1.4417
  126MOL   H18840438   3.240   0.664   5.135 -0.6713  1.6033 -1.4418
  126MOL   H18940439   3.446   0.687   4.996 -0.9102  0.8203 -2.1679
  126MOL   H19040440   3.391   0.545   4.904  2.3504 -0.6542  0.1831
  126MOL   H19140441   3.435   0.524   5.075  2.1642 -0.1784 -2.3875
  126MOL   H19240442   3.098   0.992   4.930  1.8044 -1.4093  0.9928
  126MOL   H19340443   2.941   1.029   4.990 -0.8071 -1.3210 -1.2532
  126MOL   C19440444   3.095   1.062   5.139 -0.0261  0.0905  0.3702
  126MOL   O19540445   3.219   1.002   5.146  0.3325 -0.0133  0.4029
  126MOL   C19640446   3.300   1.013   5.265  0.2811  0.1618 -0.4111
  126MOL   C19740447   3.420   0.931   5.250 -0.3588  0.0453  0.9804
  126MOL   C19840448   3.501   0.973   5.130  0.1385 -0.3086 -0.3197
  126MOL   C19940449   3.106   1.216   5.131 -0.2120  0.2205 -0.6078
  126MOL   H20040450   3.031   1.038   5.224 -0.2111  0.9222  0.4711
  126MOL   H20140451   3.321   1.119   5.278  3.3080 -0.3913 -0.4482
  126MOL   H20240452   3.248   0.975   5.353  0.6399  0.9626  0.1518
  126MOL   H20340453   3.399   0.824   5.253  2.4617 -0.5593  0.3681
  126MOL   H20440454   3.494   0.945   5.328  0.2030  0.0315  0.4550
  126MOL   H20540455   3.547   1.071   5.141  1.9218 -1.0714 -0.6509
  126MOL   H20640456   3.451   0.960   5.034 -1.8807  0.7617  0.5775
  126MOL   H20740457   3.589   0.908   5.130  1.3906  1.3473  1.3600
  126MOL   H20840458   3.014   1.254   5.177  0.0443  0.6813 -0.4652
  126MOL   H20940459   3.182   1.262   5.194  0.6067  0.3297 -1.6631
  126MOL   C21040460   3.129   1.272   4.994  0.6197  0.4081  0.0576
  126MOL   O21140461   3.106   1.410   4.984  0.1045 -0.5013 -0.2842
  126MOL   C21240462   2.967   1.444   4.935  0.1386 -0.4662  0.3467
  126MOL   C21340463   2.950   1.586   4.953  0.2855 -0.2921  0.1245
  126MOL   C21440464   2.916   1.634   5.092 -0.1608  0.5382  1.0653
  126MOL   C21540465   3.278   1.249   4.955  0.4840 -0.0914  0.1254
  126MOL   H21640466   3.061   1.221   4.926 -1.8494  0.7351  2.1929
  126MOL   H21740467   2.955   1.412   4.832  1.3889  0.6908 -0.1612
  126MOL   H21840468   2.894   1.378   4.983 -1.0904  0.5927 -0.0754
  126MOL   H21940469   2.880   1.628   4.880  1.9124 -0.2265 -1.4508
  126MOL   H22040470   3.044   1.626   4.915 -0.6823  1.8233 -0.1336
  126MOL   H22140471   2.886   1.739   5.095 -1.0163  0.3030  0.9560
  126MOL   H22240472   3.006   1.622   5.151  0.4292 -0.2050  0.0328
  126MOL   H22340473   2.833   1.574   5.128 -0.7489  0.2806 -0.6464
  126MOL   H22440474   3.340   1.303   5.026  0.2908  0.4462 -0.1073
  126MOL   H22540475   3.302   1.144   4.963  0.6542 -0.1984 -1.5516
  126MOL   C22640476   3.317   1.302   4.812  0.0763  0.6285  0.0396
  126MOL   O22740477   3.454   1.286   4.797  0.3917 -0.2633 -0.1554
  126MOL   C22840478   3.532   1.383   4.852 -0.2665 -0.8383 -0.5297
  126MOL   C22940479   3.679   1.341   4.853 -0.4620 -0.0215 -0.0225
  126MOL   C23040480   3.737   1.336   4.711  0.1060  0.4729  0.1125
  126MOL   C23140481   3.260   1.214   4.697  0.2731 -0.2527 -0.2682
  126MOL   H23240482   3.281   1.404   4.803 -1.3412 -0.0068 -1.7036
  126MOL   H23340483   3.523   1.468   4.784 -1.6027 -0.3712  0.2059
  126MOL   H23440484   3.506   1.422   4.951 -2.2705 -0.2454 -1.2594
  126MOL   H23540485   3.684   1.246   4.906  0.6763  0.1666  0.2273
  126MOL   H23640486   3.741   1.408   4.913 -0.1167 -0.8493  0.5589
  126MOL   H23740487   3.666   1.284   4.647 -0.6133 -0.6356  1.7520
  126MOL   H23840488   3.831   1.280   4.706 -1.3143 -2.2214  1.8798
  126MOL   H23940489   3.759   1.434   4.671 -1.4107 -0.0997 -2.1727
  126MOL   H24040490   3.303   1.119   4.727  1.7806  0.1240 -1.1603
  126MOL   H24140491   3.152   1.217   4.684  0.1697 -1.8411  0.1879
  126MOL   C24240492   3.309   1.247   4.554  0.0750  0.0892 -0.7115
  126MOL   O24340493   3.262   1.147   4.462  0.1078  0.1067  0.3459
  126MOL   C24440494   3.357   1.042   4.432 -0.0599  0.7924  0.7411
  126MOL   C24540495   3.317   0.974   4.306  0.3051  0.3469  0.0618
  126MOL   C24640496   3.349   1.058   4.183  0.3041 -0.5144  0.4974
  126MOL   C24740497   3.263   1.379   4.500  0.0983  0.0633  0.7581
  126MOL   H24840498   3.417   1.252   4.539 -0.0368  1.1391 -1.2153
  126MOL   H24940499   3.462   1.067   4.423  0.1651 -0.2639  0.3808
  126MOL   H25040500   3.359   0.955   4.498 -0.7937 -0.5108 -0.9088
  126MOL   H25140501   3.212   0.945   4.307  0.7209 -1.2024 -0.1346
  126MOL   H25240502   3.365   0.878   4.287  0.5951  0.1277  1.8795
  126MOL   H25340503   3.294   1.151   4.170 -0.0962 -0.7692  0.3629
  126MOL   H25440504   3.334   0.994   4.096 -1.8382 -0.5362  0.8578
  126MOL   H25540505   3.450   1.098   4.172 -0.1291  0.3368 -0.4052
  126MOL   H25640506   3.156   1.370   4.485  0.4036  0.0645 -1.5668
  126MOL   H25740507   3.275   1.454   4.579 -0.8194  0.3497  0.6261
  126MOL   C25840508   3.333   1.432   4.365  0.1222 -0.4154 -0.1446
  126MOL   O25940509   3.266   1.547   4.328  0.3560  0.3595  0.6267
  126MOL   C26040510   3.153   1.522   4.248  0.4200 -0.1295 -0.3454
  126MOL   C26140511   3.100   1.640   4.159 -0.5241 -0.3038  0.3221
  126MOL   C26240512   3.182   1.662   4.028  0.6660  0.6199  0.6831
  126MOL   C26340513   3.479   1.469   4.390 -0.4863 -0.1256  0.0764
  126MOL   H26440514   3.346   1.355   4.290 -0.4167  0.0607 -0.7297
  126MOL   H26540515   3.169   1.434   4.186 -1.5657 -1.2267  0.6455
  126MOL   H26640516   3.071   1.501   4.317  0.8281  1.8692  0.7932
  126MOL   H26740517   3.089   1.729   4.220 -3.2644 -0.2759 -0.1319
  126MOL   H26840518   2.998   1.616   4.128 -0.1696 -0.0522 -1.0771
  126MOL   H26940519   3.287   1.683   4.043  0.6536  0.8783  0.4298
  126MOL   H27040520   3.158   1.753   3.972  0.6147  0.1362 -0.0889
  126MOL   H27140521   3.178   1.579   3.957 -0.0426  0.5786  0.7672
  126MOL   H27240522   3.468   1.535   4.476  1.0884  0.8654 -0.4714
  126MOL   H27340523   3.532   1.378   4.417 -1.9338 -1.0059  0.0595
  126MOL   C27440524   3.558   1.547   4.280 -0.3102  0.2526  1.0008
  126MOL   O27540525   3.693   1.551   4.322  0.2402  0.0352 -0.8081
  126MOL   C27640526   3.713   1.645   4.425  0.3745  0.0042  0.6701
  126MOL   C27740527   3.860   1.674   4.457 -1.6190  0.3354 -0.5417
  126MOL   C27840528   3.948   1.718   4.339  0.4140  0.2410 -0.2566
  126MOL   C27940529   3.558   1.484   4.139  0.4631 -0.2001  0.0664
  126MOL   H28040530   3.508   1.643   4.265 -1.7167 -0.8994 -1.9517
  126MOL   H28140531   3.671   1.744   4.410 -0.9524 -0.9011 -1.6777
  126MOL   H28240532   3.669   1.618   4.521  1.4214 -1.6034  0.7089
  126MOL   H28340533   3.913   1.589   4.500 -0.1028  1.8245  0.5731
  126MOL   H28440534   3.872   1.755   4.529 -1.9534  1.0346 -1.2718
  126MOL   H28540535   3.917   1.808   4.285  0.8977  0.2855 -0.4595
  126MOL   H28640536   3.947   1.636   4.268  0.3961  0.2544 -0.2710
  126MOL   H28740537   4.051   1.743   4.364  0.6124 -0.8522  0.0087
  126MOL   H28840538   3.593   1.384   4.164  2.1909 -0.1406 -1.9138
  126MOL   H28940539   3.460   1.467   4.093 -0.2083  0.0290  1.4036
  126MOL   C29040540   3.667   1.536   4.033  0.3084  0.3394  0.0298
  126MOL   O29140541   3.697   1.432   3.945 -0.0527  0.2032 -0.2150
  126MOL   C29240542   3.834   1.385   3.965  0.6193 -0.5601 -0.2999
  126MOL   C29340543   3.872   1.273   3.862  0.0335 -0.5284  0.3715
  126MOL   C29440544   3.857   1.310   3.714  0.1147  0.0596  0.2985
  126MOL   C29540545   3.610   1.648   3.942 -0.1539 -0.2053 -0.1908
  126MOL   H29640546   3.755   1.567   4.090  2.2587  0.3727 -2.9185
  126MOL   H29740547   3.906   1.466   3.966  0.4888 -0.4249 -1.6097
  126MOL   H29840548   3.842   1.342   4.065  0.5469 -1.1889 -0.5586
  126MOL   H29940549   3.809   1.185   3.874  0.7872 -1.5484 -2.6058
  126MOL   H30040550   3.977   1.247   3.876  0.3491  1.5325  2.0474
  126MOL   H30140551   3.886   1.230   3.645 -0.4865  1.5236 -1.6938
  126MOL   H30240552   3.903   1.405   3.690  0.5290 -0.1965  0.0620
  126MOL   H30340553   3.750   1.320   3.697  0.3320  3.4705  0.7085
  126MOL   H30440554   3.532   1.591   3.892 -0.9729 -1.2095  2.2020
  126MOL   H30540555   3.563   1.721   4.008 -2.1563 -0.9245 -0.7737
  126MOL   C30640556   3.716   1.719   3.855  0.2406  0.1453 -0.5709
  126MOL   O30740557   3.654   1.760   3.731  0.1232  0.2095  0.1576
  126MOL   C30840558   3.616   1.650   3.645  0.3700  0.7681 -0.5026
  126MOL   C30940559   3.480   1.693   3.571  0.0277  0.5300 -0.7390
  126MOL   C31040560   3.388   1.583   3.527 -0.4102 -0.4578  0.4625
  126MOL   C31140561   3.769   1.844   3.911  0.5045  0.8204  0.0402
  126MOL   H31240562   3.796   1.648   3.837  0.8559  0.3999  1.0735
  126MOL   H31340563   3.692   1.638   3.568  0.0900 -3.0541 -0.2928
  126MOL   H31440564   3.603   1.556   3.700 -0.5711 -0.0935 -2.1567
  126MOL   H31540565   3.489   1.769   3.493  2.5082  0.1232 -0.8876
  126MOL   H31640566   3.422   1.744   3.648  2.5872  0.9223  1.0004
  126MOL   H31740567   3.308   1.624   3.465 -0.5919  0.0961  1.0644
  126MOL   H31840568   3.337   1.537   3.613  0.4006 -1.4577  0.4168
  126MOL   H31940569   3.434   1.502   3.471 -1.5637 -0.3660 -0.6442
  126MOL   H32040570   3.692   1.918   3.934 -1.6902 -0.9387 -1.3744
  126MOL   H32140571   3.818   1.825   4.006 -1.2161 -3.9189  0.1437
  126MOL   H32240572   3.844   1.894   3.850  0.0664  1.7728  0.2723
  127MOL     C140573   5.115   2.915   4.487  0.3829 -0.4512  0.3365
  127MOL     O240574   5.057   2.840   4.384  0.0552  0.4345 -0.7350
  127MOL     C340575   5.112   2.848   4.255 -0.4286 -0.5746 -0.2366
  127MOL     C440576   5.012   2.793   4.149  0.0107 -0.2012  0.1932
  127MOL     C540577   4.890   2.885   4.132 -0.2579 -0.1964  0.0438
  127MOL     C640578   5.068   3.060   4.466 -0.2443  0.7498  0.1499
  127MOL     H740579   5.221   2.891   4.487  0.2062 -1.4303 -3.0029
  127MOL     H840580   5.142   2.949   4.227 -0.0890 -0.1819  1.4613
  127MOL     H940581   5.207   2.795   4.253 -0.2545 -0.2769 -0.0122
  127MOL    H1040582   4.995   2.688   4.174 -0.2324 -0.3848 -0.7460
  127MOL    H1140583   5.066   2.790   4.055 -1.0131 -3.1709 -0.3727
  127MOL    H1240584   4.832   2.863   4.042 -2.2711  1.1959  0.9799
  127MOL    H1340585   4.925   2.987   4.118  0.9570 -0.4711  1.0388
  127MOL    H1440586   4.818   2.872   4.213 -0.1544 -0.5917  0.0751
  127MOL    H1540587   5.092   3.099   4.367 -1.7484  0.1538 -0.4562
  127MOL    H1640588   4.960   3.056   4.474 -0.4024  1.2506 -1.4060
  127MOL    H1740589   5.066   2.882   4.579 -2.9155  0.3326 -1.0592
  127MOL    C1840590   5.113   3.143   4.585 -0.5681 -0.3301 -0.1135
  127MOL    O1940591   5.259   3.162   4.587  0.6090 -0.1659  0.2600
  127MOL    C2040592   5.323   3.219   4.698 -1.1570 -0.0311  0.0153
  127MOL    C2140593   5.478   3.197   4.685  0.0930 -0.9425 -0.3772
  127MOL    C2240594   5.532   3.066   4.750 -0.4852  0.3994 -0.3600
  127MOL    C2340595   5.044   3.285   4.569 -0.0818  0.3066  0.2670
  127MOL    H2440596   5.084   3.095   4.679  0.0087  0.0494  0.2649
  127MOL    H2540597   5.309   3.325   4.680 -2.4468 -0.0405  0.8932
  127MOL    H2640598   5.274   3.180   4.787 -0.3448 -0.3070  0.3492
  127MOL    H2740599   5.526   3.285   4.725 -0.5918  0.0420 -1.6707
  127MOL    H2840600   5.523   3.204   4.586 -0.8341 -0.5789 -0.7829
  127MOL    H2940601   5.517   3.073   4.858  1.5479 -1.8538  0.1094
  127MOL    H3040602   5.635   3.044   4.725 -0.0774  0.4267  1.2012
  127MOL    H3140603   5.472   2.977   4.728 -1.5927  0.8687  0.6691
  127MOL    H3240604   5.086   3.360   4.638  1.6224 -1.2367  0.9584
  127MOL    H3340605   5.073   3.322   4.471  2.1140  1.0416  1.1497
  127MOL    C3440606   4.893   3.295   4.583  0.0458 -0.2603  0.5298
  127MOL    O3540607   4.883   3.252   4.720 -0.0248 -0.2089 -0.2957
  127MOL    C3640608   4.799   3.143   4.754 -0.8322 -0.3429  0.1551
  127MOL    C3740609   4.652   3.169   4.733  0.0341  0.1815 -0.4708
  127MOL    C3840610   4.594   3.277   4.831 -0.0955  0.1137 -0.0111
  127MOL    C3940611   4.841   3.442   4.564 -0.3544 -0.3249 -0.5110
  127MOL    H4040612   4.838   3.234   4.512  2.7100  0.2199 -2.0671
  127MOL    H4140613   4.819   3.059   4.687  0.1721  0.6235 -0.7741
  127MOL    H4240614   4.830   3.114   4.854  1.6162  0.3345 -0.3610
  127MOL    H4340615   4.585   3.087   4.760 -1.1759  0.6674 -1.9408
  127MOL    H4440616   4.632   3.203   4.631 -1.4769  2.8268  0.6477
  127MOL    H4540617   4.485   3.280   4.831 -0.1083 -0.3819  0.4075
  127MOL    H4640618   4.628   3.375   4.796  0.6209 -0.6875 -1.5877
  127MOL    H4740619   4.632   3.262   4.932 -0.7408  0.1508  0.2387
  127MOL    H4840620   4.736   3.449   4.595  0.0148  1.9497  0.3431
  127MOL    H4940621   4.879   3.514   4.637 -0.1416 -0.7222 -0.2273
  127MOL    C5040622   4.859   3.507   4.431  0.0851  0.2679 -0.3577
  127MOL    O5140623   4.780   3.432   4.343 -0.1311 -0.2589 -0.1513
  127MOL    C5240624   4.844   3.408   4.223 -0.0000 -0.1479  0.2517
  127MOL    C5340625   4.756   3.314   4.146  0.1896 -0.1229  0.0788
  127MOL    C5440626   4.722   3.180   4.224 -0.2280 -0.3338 -0.1012
  127MOL    C5540627   4.791   3.649   4.429 -0.6633 -0.1243 -0.2711
  127MOL    H5640628   4.966   3.524   4.417  0.1815  0.7186  0.8492
  127MOL    H5740629   4.874   3.503   4.178 -0.7373  0.8795  1.8443
  127MOL    H5840630   4.933   3.352   4.248  0.2305  0.6037  1.1811
  127MOL    H5940631   4.813   3.282   4.059  1.1089  1.0536  0.2345
  127MOL    H6040632   4.676   3.370   4.099  0.3413 -1.6288 -2.0283
  127MOL    H6140633   4.799   3.161   4.299 -0.1978  0.2799  0.0331
  127MOL    H6240634   4.709   3.091   4.163  0.4371  1.0922 -2.3860
  127MOL    H6340635   4.631   3.201   4.280  0.0161  1.5925 -0.3685
  127MOL    H6440636   4.831   3.702   4.342  0.5627 -1.6331 -0.6474
  127MOL    H6540637   4.687   3.642   4.399 -1.0783  0.4004  1.0230
  127MOL    C6640638   4.800   3.747   4.556 -0.0570 -0.4688 -0.0331
  127MOL    O6740639   4.936   3.772   4.579  0.5465 -0.0994 -0.4391
  127MOL    C6840640   4.971   3.818   4.711 -0.5330 -0.1073 -0.2813
  127MOL    C6940641   5.118   3.807   4.729 -1.0509 -0.2018 -0.3081
  127MOL    C7040642   5.172   3.838   4.874  0.2110 -0.1782  0.6016
  127MOL    C7140643   4.748   3.885   4.517  0.0009 -0.1193 -0.5939
  127MOL    H7240644   4.745   3.701   4.638  0.9464 -2.3783 -0.3982
  127MOL    H7340645   4.934   3.916   4.740  1.0862  0.7925 -1.1907
  127MOL    H7440646   4.906   3.755   4.772  0.6223 -1.1275 -0.0679
  127MOL    H7540647   5.161   3.880   4.661 -0.2809 -1.2718 -0.9842
  127MOL    H7640648   5.161   3.709   4.708  0.5119  0.5504 -0.6872
  127MOL    H7740649   5.148   3.938   4.911 -1.6805 -0.6447  0.7086
  127MOL    H7840650   5.279   3.822   4.886 -0.2912 -3.4537  1.0709
  127MOL    H7940651   5.123   3.774   4.947 -0.9318 -1.7129 -1.4483
  127MOL    H8040652   4.778   3.947   4.602  2.8714 -2.3452  0.0685
  127MOL    H8140653   4.798   3.925   4.429  0.1877  0.6398 -0.1537
  127MOL    C8240654   4.595   3.906   4.486  0.3545 -0.2552 -0.1557
  127MOL    O8340655   4.531   3.891   4.606 -0.2364 -0.0202 -0.0334
  127MOL    C8440656   4.425   3.801   4.592 -0.0692 -0.5020 -0.0766
  127MOL    C8540657   4.349   3.800   4.724 -0.7719  0.6961  0.7889
  127MOL    C8640658   4.447   3.757   4.844 -0.0658  0.1343  0.3695
  127MOL    C8740659   4.555   4.045   4.433 -0.0599  0.2294 -0.0493
  127MOL    H8840660   4.568   3.825   4.418 -1.3043 -0.1709  0.3940
  127MOL    H8940661   4.355   3.833   4.515  0.3157 -2.0615 -1.1031
  127MOL    H9040662   4.459   3.703   4.558 -1.9406 -0.9893 -0.6002
  127MOL    H9140663   4.250   3.755   4.716 -1.0772  1.2217  1.5339
  127MOL    H9240664   4.323   3.905   4.736 -0.0001  1.0767 -0.7147
  127MOL    H9340665   4.396   3.752   4.940 -0.0618  0.1225  0.3711
  127MOL    H9440666   4.524   3.833   4.857 -0.3547  0.3303  0.9830
  127MOL    H9540667   4.490   3.661   4.816 -1.0611  0.1260 -1.2101
  127MOL    H9640668   4.447   4.060   4.443 -0.3381 -1.3555 -0.4518
  127MOL    H9740669   4.594   4.117   4.505 -0.8186  0.5085  0.0917
  127MOL    C9840670   4.584   4.067   4.283  0.1473  0.2934  0.1156
  127MOL    O9940671   4.713   4.123   4.258  0.0855 -0.0410  0.1710
  127MOL   C10040672   4.735   4.191   4.130  0.4952  0.2140 -0.2890
  127MOL   C10140673   4.865   4.278   4.153  0.4796 -1.1016  0.3351
  127MOL   C10240674   4.852   4.387   4.259 -0.4697 -0.9733  0.2339
  127MOL   C10340675   4.560   3.945   4.193 -0.5049 -0.2144  0.1281
  127MOL   H10440676   4.513   4.147   4.261 -0.4620 -0.1663  0.4003
  127MOL   H10540677   4.744   4.117   4.050 -0.4480 -1.3141  0.9916
  127MOL   H10640678   4.652   4.254   4.097  1.1769  1.4507  0.3367
  127MOL   H10740679   4.891   4.328   4.059  0.7733 -4.3435 -1.3636
  127MOL   H10840680   4.958   4.228   4.179 -1.1613 -3.1915  2.3079
  127MOL   H10940681   4.847   4.484   4.208  0.9284 -0.4220  1.0923
  127MOL   H11040682   4.943   4.390   4.318 -0.1572 -0.8299 -0.2471
  127MOL   H11140683   4.762   4.375   4.318 -2.4137  0.8443 -2.2353
  127MOL   H11240684   4.583   3.972   4.090 -1.1478  0.4574  0.1550
  127MOL   H11340685   4.634   3.868   4.214 -0.1011 -0.0515 -0.6594
  127MOL   C11440686   4.410   3.895   4.189  1.1569  1.1500  0.1418
  127MOL   O11540687   4.310   3.996   4.156 -0.3047  0.1929  0.0695
  127MOL   C11640688   4.317   4.056   4.025  0.2160 -0.2618 -0.6613
  127MOL   C11740689   4.261   4.195   4.028 -0.3816  0.1920  0.5158
  127MOL   C11840690   4.321   4.289   4.120  0.2414  0.0118  0.2394
  127MOL   C11940691   4.401   3.768   4.102  0.3410 -0.3202 -0.2039
  127MOL   H12040692   4.392   3.860   4.290  0.1320 -1.5763 -0.9540
  127MOL   H12140693   4.423   4.065   3.999  0.8029 -0.9023  1.4671
  127MOL   H12240694   4.254   3.996   3.959 -3.0182  2.2945 -0.0368
  127MOL   H12340695   4.158   4.176   4.056  0.0165 -1.4468  0.9392
  127MOL   H12440696   4.252   4.242   3.930  2.2391 -1.4626 -0.5883
  127MOL   H12540697   4.308   4.267   4.226 -0.0744 -0.4878  0.0949
  127MOL   H12640698   4.269   4.385   4.117 -0.6391 -0.4757 -0.6082
  127MOL   H12740699   4.429   4.304   4.112  0.2504  1.7348  2.6727
  127MOL   H12840700   4.414   3.789   3.996  0.0435  1.0583  0.0277
  127MOL   H12940701   4.493   3.716   4.127  0.5540 -0.2663 -0.8666
  127MOL   C13040702   4.262   3.690   4.116  0.0137 -0.1330 -0.4071
  127MOL   O13140703   4.174   3.753   4.019  0.9847 -0.2863 -0.4690
  127MOL   C13240704   4.034   3.762   4.060  0.4664  0.2327 -0.1176
  127MOL   C13340705   4.016   3.868   4.163 -0.1877 -0.1480  0.2235
  127MOL   C13440706   3.876   3.863   4.225  0.1221 -0.0602  0.8715
  127MOL   C13540707   4.267   3.546   4.077 -0.5716 -0.1061 -0.0839
  127MOL   H13640708   4.225   3.681   4.219  1.7207  0.1045  0.2332
  127MOL   H13740709   3.976   3.782   3.970 -0.4214 -1.4334  0.0576
  127MOL   H13840710   4.007   3.662   4.094  1.4491 -0.2157 -0.6221
  127MOL   H13940711   4.058   3.956   4.115  1.9398 -1.8386 -1.0904
  127MOL   H14040712   4.091   3.859   4.242  0.5863  1.5068 -0.3081
  127MOL   H14140713   3.858   3.946   4.294 -3.2606  0.1855 -0.1890
  127MOL   H14240714   3.872   3.778   4.293  0.2402 -1.5438 -0.9418
  127MOL   H14340715   3.792   3.858   4.155 -0.4984 -0.9691  1.6750
  127MOL   H14440716   4.171   3.499   4.097 -1.7204  2.4808  0.5806
  127MOL   H14540717   4.270   3.549   3.968 -1.5654  0.3681 -0.1004
  127MOL   C14640718   4.382   3.459   4.131  0.3950 -0.0147  0.3030
  127MOL   O14740719   4.384   3.472   4.277  0.4428  0.6519  0.4081
  127MOL   C14840720   4.267   3.435   4.352  0.4141  0.6446 -0.6351
  127MOL   C14940721   4.275   3.478   4.497 -0.1163 -0.0064 -0.0364
  127MOL   C15040722   4.387   3.407   4.574 -0.0153 -0.0076  0.3001
  127MOL   C15140723   4.368   3.316   4.094 -0.3519 -0.0008 -0.1411
  127MOL   H15240724   4.478   3.491   4.090  0.7485  0.5304  1.5090
  127MOL   H15340725   4.176   3.489   4.327  1.8066  2.6411 -1.6167
  127MOL   H15440726   4.232   3.334   4.331  1.1970 -0.2380  2.0941
  127MOL   H15540727   4.179   3.469   4.547 -0.9094  0.5747 -1.4062
  127MOL   H15640728   4.282   3.587   4.493  1.2066  0.0299  2.3524
  127MOL   H15740729   4.482   3.440   4.533  0.6186  0.6525  2.2339
  127MOL   H15840730   4.383   3.298   4.569  2.2918 -0.2214  1.9915
  127MOL   H15940731   4.378   3.436   4.679 -1.3928  3.1415 -0.6212
  127MOL   H16040732   4.433   3.252   4.153 -0.7442  0.1712  0.4804
  127MOL   H16140733   4.266   3.285   4.120 -0.6709  2.3699  1.6000
  127MOL   C16240734   4.389   3.302   3.939 -0.2357  0.0809 -0.0514
  127MOL   O16340735   4.527   3.283   3.914  0.2634 -0.2339 -0.0420
  127MOL   C16440736   4.567   3.365   3.800 -0.2845 -0.0026  0.1206
  127MOL   C16540737   4.710   3.311   3.763 -0.0377  0.3011  0.7210
  127MOL   C16640738   4.713   3.181   3.688 -0.2641  0.0850  0.2469
  127MOL   C16740739   4.339   3.172   3.874 -1.0835  0.4128 -0.1659
  127MOL   H16840740   4.353   3.395   3.893  2.2648  0.8109 -0.5888
  127MOL   H16940741   4.509   3.346   3.710 -1.0537  0.0637  0.5971
  127MOL   H17040742   4.578   3.471   3.820 -0.8250  0.3134 -1.2704
  127MOL   H17140743   4.763   3.302   3.857  1.0008  0.8592  0.1900
  127MOL   H17240744   4.759   3.385   3.700 -0.9442 -0.1975 -0.6118
  127MOL   H17340745   4.650   3.107   3.738  1.9752 -2.0701 -0.0596
  127MOL   H17440746   4.816   3.148   3.695 -0.3442 -0.2495 -0.1370
  127MOL   H17540747   4.675   3.190   3.586  0.3364 -0.2534 -0.0097
  127MOL   H17640748   4.362   3.165   3.767  0.8741  0.3938  0.2271
  127MOL   H17740749   4.398   3.088   3.911 -1.7991 -0.5354 -1.1500
  127MOL   C17840750   4.193   3.129   3.889 -0.6421 -0.3840 -0.2138
  127MOL   O17940751   4.128   3.231   3.819  0.1588  0.1060  0.1671
  127MOL   C18040752   3.992   3.244   3.856 -0.4937  0.3358  0.9256
  127MOL   C18140753   3.949   3.363   3.771 -0.0507  1.0866  0.5204
  127MOL   C18240754   3.994   3.502   3.812 -0.5189  0.8426 -0.0711
  127MOL   C18340755   4.161   2.990   3.824  0.2599  0.3942  0.0635
  127MOL   H18440756   4.164   3.112   3.993  0.0013 -2.0332 -0.2810
  127MOL   H18540757   3.928   3.160   3.829 -2.0743  1.6486  0.5624
  127MOL   H18640758   3.989   3.261   3.964  1.2384  0.2644  1.0021
  127MOL   H18740759   3.840   3.358   3.777 -0.1846  2.0371 -0.9080
  127MOL   H18840760   3.976   3.331   3.670  0.8622 -0.7638  1.3205
  127MOL   H18940761   3.995   3.578   3.734  0.8549  2.1397  1.1950
  127MOL   H19040762   4.099   3.505   3.840 -0.6357  1.2582  0.3210
  127MOL   H19140763   3.953   3.548   3.902  1.1835 -1.0335  1.7086
  127MOL   H19240764   4.052   2.984   3.821  0.2058  1.5424 -1.3859
  127MOL   H19340765   4.173   2.998   3.715  2.5485  0.8490  0.3162
  127MOL   C19440766   4.232   2.868   3.894  0.2602 -1.1865 -0.7276
  127MOL   O19540767   4.192   2.854   4.026 -0.6100  0.1782 -0.8960
  127MOL   C19640768   4.288   2.893   4.120  0.1999  0.4632  0.3395
  127MOL   C19740769   4.210   2.896   4.257 -0.2006 -0.1698  0.3763
  127MOL   C19840770   4.097   2.996   4.261 -0.2882  0.0221 -0.6319
  127MOL   C19940771   4.192   2.736   3.826  0.1812  0.3453 -0.3928
  127MOL   H20040772   4.340   2.874   3.883  0.6189  2.9752  3.9086
  127MOL   H20140773   4.371   2.823   4.107 -0.6372 -0.3562 -0.7170
  127MOL   H20240774   4.353   2.979   4.106 -0.1374  0.4303 -1.5962
  127MOL   H20340775   4.280   2.925   4.336 -0.6047  0.8167  0.3787
  127MOL   H20440776   4.178   2.795   4.282  0.1438 -0.4306 -0.2233
  127MOL   H20540777   4.038   2.965   4.174 -0.4121  1.2087 -0.9734
  127MOL   H20640778   4.131   3.099   4.263 -0.7740  0.1755  0.4721
  127MOL   H20740779   4.035   2.977   4.349 -0.0609 -0.0796 -0.4931
  127MOL   H20840780   4.139   2.685   3.907 -1.6022  1.5301 -0.7877
  127MOL   H20940781   4.110   2.751   3.757  0.7272 -0.2302 -1.1753
  127MOL   C21040782   4.315   2.648   3.783  0.0158 -0.2568 -0.2968
  127MOL   O21140783   4.364   2.585   3.907  0.3378 -0.4245  0.4161
  127MOL   C21240784   4.497   2.609   3.935  0.3004 -0.1753  0.1105
  127MOL   C21340785   4.516   2.547   4.081 -0.6904 -0.1934 -0.1225
  127MOL   C21440786   4.658   2.553   4.131 -0.2115 -0.1836 -0.0809
  127MOL   C21540787   4.277   2.534   3.690  0.6982 -0.1033  0.1139
  127MOL   H21640788   4.389   2.708   3.731  2.6187 -3.0155  0.1150
  127MOL   H21740789   4.558   2.550   3.867 -0.9094 -2.5671  1.0559
  127MOL   H21840790   4.512   2.716   3.920  1.2711 -0.5021 -1.2823
  127MOL   H21940791   4.474   2.447   4.076 -1.9149  0.2422  1.1711
  127MOL   H22040792   4.451   2.601   4.149 -0.1192  2.8387 -1.8894
  127MOL   H22140793   4.727   2.490   4.074 -2.2730 -2.6212  0.0127
  127MOL   H22240794   4.666   2.528   4.236 -0.2333  0.6225  0.1129
  127MOL   H22340795   4.692   2.654   4.112  0.2933 -0.1617  0.9152
  127MOL   H22440796   4.357   2.460   3.695 -0.4245 -1.4677 -1.7259
  127MOL   H22540797   4.187   2.482   3.722  0.1188  0.4676 -0.5752
  127MOL   C22640798   4.265   2.575   3.540  0.0735 -0.0935 -0.0096
  127MOL   O22740799   4.375   2.520   3.474 -0.4018  0.3659  0.0753
  127MOL   C22840800   4.496   2.584   3.494  0.6068  0.3991 -0.0682
  127MOL   C22940801   4.606   2.534   3.397  0.0345 -0.2089 -0.8943
  127MOL   C23040802   4.633   2.387   3.414 -0.0027 -0.2621  0.1787
  127MOL   C23140803   4.141   2.505   3.471  1.4498 -0.2012 -0.5367
  127MOL   H23240804   4.250   2.682   3.529 -0.7916  0.0641  2.3227
  127MOL   H23340805   4.473   2.687   3.466 -0.6218 -0.1916 -1.2480
  127MOL   H23440806   4.532   2.571   3.596  0.3839 -0.3003 -0.0803
  127MOL   H23540807   4.700   2.576   3.431 -0.5101  0.7558 -0.5520
  127MOL   H23640808   4.584   2.575   3.298 -0.0711 -0.7744 -1.1050
  127MOL   H23740809   4.672   2.357   3.511 -1.8503  1.8003  1.5970
  127MOL   H23840810   4.693   2.346   3.333 -0.7699 -0.5991 -0.2223
  127MOL   H23940811   4.544   2.323   3.407  1.0607 -1.7514 -0.0681
  127MOL   H24040812   4.158   2.522   3.365  1.4879 -0.8987 -0.6485
  127MOL   H24140813   4.149   2.396   3.481 -2.0015 -0.5345 -0.8053
  127MOL   C24240814   4.004   2.547   3.511 -0.1189  0.0409  0.2309
  127MOL   O24340815   3.983   2.685   3.477  0.0448 -0.2504 -0.2963
  127MOL   C24440816   3.881   2.744   3.543 -0.0850 -0.1238 -0.6128
  127MOL   C24540817   3.894   2.892   3.514 -0.5449 -0.5240 -0.3164
  127MOL   C24640818   3.792   2.982   3.590 -0.2228 -0.2854 -0.3005
  127MOL   C24740819   3.908   2.468   3.421  0.3831 -0.1707 -0.0347
  127MOL   H24840820   3.985   2.526   3.616 -0.5838 -4.8560 -0.7222
  127MOL   H24940821   3.781   2.709   3.519 -0.5905  0.6849  0.2601
  127MOL   H25040822   3.897   2.749   3.651  3.3429 -1.4023 -0.9732
  127MOL   H25140823   3.897   2.920   3.409 -0.6512  1.8702  0.3063
  127MOL   H25240824   3.985   2.938   3.551 -1.0229  0.2860 -0.1458
  127MOL   H25340825   3.692   2.943   3.570 -0.1175 -0.3932 -0.6164
  127MOL   H25440826   3.810   3.088   3.575  0.5382 -0.5616 -1.4265
  127MOL   H25540827   3.812   2.960   3.696  1.3907  0.6450 -0.3936
  127MOL   H25640828   3.808   2.511   3.416 -0.9236 -3.1528 -0.4707
  127MOL   H25740829   3.949   2.477   3.320 -1.7303 -3.7714 -1.3159
  127MOL   C25840830   3.878   2.319   3.464  0.1275  0.7507 -0.3518
  127MOL   O25940831   3.792   2.324   3.582 -0.2618 -0.9435 -0.3902
  127MOL   C26040832   3.780   2.207   3.659 -0.0533  0.1712  0.6480
  127MOL   C26140833   3.696   2.228   3.787  0.3871  0.3002  0.3620
  127MOL   C26240834   3.731   2.352   3.869 -0.5364 -0.0184 -0.4127
  127MOL   C26340835   3.821   2.227   3.351 -0.4146 -0.1037 -0.6413
  127MOL   H26440836   3.973   2.281   3.499 -0.4033 -0.1337  0.1506
  127MOL   H26540837   3.738   2.123   3.603  0.8803  0.7185 -0.9237
  127MOL   H26640838   3.882   2.181   3.686 -0.4357 -0.8717  1.1071
  127MOL   H26740839   3.715   2.145   3.856  0.2574 -0.3344 -0.3681
  127MOL   H26840840   3.590   2.243   3.772  0.9314  1.0526 -3.0150
  127MOL   H26940841   3.664   2.374   3.952  0.7085  1.1493  0.2888
  127MOL   H27040842   3.728   2.443   3.809  1.3872 -0.2971 -0.9547
  127MOL   H27140843   3.829   2.330   3.911 -0.8497  0.2700  0.4757
  127MOL   H27240844   3.767   2.144   3.396  1.0738 -2.8653 -3.7322
  127MOL   H27340845   3.755   2.292   3.294 -0.7034  2.3536  2.3517
  127MOL   C27440846   3.917   2.173   3.243  0.0836 -0.1771  0.1431
  127MOL   O27540847   4.022   2.111   3.313 -0.1522 -0.4064  0.0507
  127MOL   C27640848   4.145   2.110   3.249 -0.8653 -0.1396  0.2315
  127MOL   C27740849   4.257   2.073   3.344  0.0715 -0.0340 -0.2949
  127MOL   C27840850   4.387   2.066   3.270 -0.1131 -0.2735 -0.2960
  127MOL   C27940851   3.851   2.070   3.153  0.1883 -0.9502 -0.0717
  127MOL   H28040852   3.950   2.255   3.178  0.8910 -0.0974  0.6469
  127MOL   H28140853   4.135   2.052   3.158  2.4865 -0.0782 -0.2327
  127MOL   H28240854   4.165   2.206   3.202  0.8281  1.1117  3.3315
  127MOL   H28340855   4.255   1.978   3.397 -1.8611 -0.5044 -1.1775
  127MOL   H28440856   4.267   2.150   3.420 -2.9043 -0.1077  0.2043
  127MOL   H28540857   4.462   2.052   3.348 -0.2671  0.9185  0.0744
  127MOL   H28640858   4.419   2.155   3.216  0.9019  0.1736  1.0271
  127MOL   H28740859   4.395   1.980   3.205  4.6442  0.3081 -0.6356
  127MOL   H28840860   3.923   2.017   3.090  0.6161  0.1498 -0.5168
  127MOL   H28940861   3.797   2.005   3.222  0.9430 -2.3523 -0.7653
  127MOL   C29040862   3.739   2.119   3.056 -0.9646 -0.4824 -0.6853
  127MOL   O29140863   3.799   2.206   2.963 -0.4040 -0.0324  0.4269
  127MOL   C29240864   3.731   2.317   2.912 -0.3795 -1.2850 -0.1779
  127MOL   C29340865   3.832   2.415   2.847 -0.9450 -0.3083  0.6310
  127MOL   C29440866   3.937   2.457   2.944 -0.2315  0.5192  0.5516
  127MOL   C29540867   3.680   2.001   2.969 -0.1596 -0.1720  0.3560
  127MOL   H29640868   3.666   2.167   3.122 -1.2549  0.2960 -1.5661
  127MOL   H29740869   3.647   2.281   2.852 -1.5244  0.7693  0.1493
  127MOL   H29840870   3.677   2.370   2.991  0.8510 -0.8007  0.3528
  127MOL   H29940871   3.779   2.505   2.816  1.7185  2.3016  3.2706
  127MOL   H30040872   3.858   2.356   2.759  0.1426  1.0300  0.0603
  127MOL   H30140873   3.989   2.367   2.978 -0.9344  0.1105  0.5501
  127MOL   H30240874   3.898   2.500   3.036 -2.3166  2.1650 -1.0458
  127MOL   H30340875   4.004   2.528   2.895  0.2674 -2.0138 -2.6661
  127MOL   H30440876   3.610   2.059   2.909 -0.1396  0.1401  0.6365
  127MOL   H30540877   3.756   1.946   2.913  0.3250 -0.9700  1.7748
  127MOL   C30640878   3.592   1.904   3.047  0.2791 -0.1329 -0.2468
  127MOL   O30740879   3.492   1.993   3.097  0.1766  0.7081 -0.0533
  127MOL   C30840880   3.392   1.936   3.184  0.1834  0.7751  0.5157
  127MOL   C30940881   3.391   2.025   3.310 -0.8082  0.1378  0.1457
  127MOL   C31040882   3.299   1.972   3.416 -0.3897  0.0906  0.5328
  127MOL   C31140883   3.528   1.809   2.941 -0.1798 -0.1068  0.3521
  127MOL   H31240884   3.649   1.847   3.121 -0.2464  2.4855  2.2572
  127MOL   H31340885   3.291   1.944   3.145 -0.3515 -0.9748  1.4673
  127MOL   H31440886   3.411   1.830   3.204 -2.5529  0.5652  2.1598
  127MOL   H31540887   3.372   2.131   3.290  0.0470 -0.3984 -3.8787
  127MOL   H31640888   3.493   2.028   3.348 -0.1716  1.5667 -1.6418
  127MOL   H31740889   3.293   1.867   3.444  1.5711 -0.1176  0.2528
  127MOL   H31840890   3.195   1.990   3.386 -1.0274 -2.7358  0.8740
  127MOL   H31940891   3.317   2.016   3.514 -1.8036  0.6304  0.5698
  127MOL   H32040892   3.602   1.744   2.894  1.3199  0.6658  1.5916
  127MOL   H32140893   3.467   1.737   2.996  0.3179  0.3495  1.5065
  127MOL   H32240894   3.465   1.853   2.864 -2.0093  0.0019  1.8756
  128MOL     C140895   2.115   5.586   6.488  0.3338 -0.7283  0.0967
  128MOL     O240896   1.993   5.509   6.461  0.3141  0.0823  0.0084
  128MOL     C340897   1.932   5.539   6.333 -0.3375 -0.5066 -0.2698
  128MOL     C440898   1.801   5.469   6.304  0.2100 -0.9262 -0.3275
  128MOL     C540899   1.745   5.497   6.164 -0.5566  0.3943 -0.1709
  128MOL     C640900   2.092   5.734   6.522 -0.5021  0.7916  0.0641
  128MOL     H740901   2.199   5.568   6.420  0.6435  0.2134  0.2304
  128MOL     H840902   1.924   5.648   6.331  0.0427 -0.4216  1.5675
  128MOL     H940903   2.003   5.509   6.256 -0.2732 -0.4385 -0.2371
  128MOL    H1040904   1.730   5.486   6.386  1.1982 -0.1898  0.3863
  128MOL    H1140905   1.821   5.363   6.317 -1.4239 -1.3486 -1.1404
  128MOL    H1240906   1.732   5.601   6.136 -0.5249 -0.2254 -2.5977
  128MOL    H1340907   1.655   5.436   6.157 -0.4865  0.3511 -0.7069
  128MOL    H1440908   1.822   5.473   6.090  0.3987  0.0189  0.9353
  128MOL    H1540909   2.038   5.783   6.440 -0.5481 -1.4726 -1.2840
  128MOL    H1640910   2.037   5.748   6.615 -0.3127 -0.1865  0.3259
  128MOL    H1740911   2.158   5.537   6.576  0.3629 -0.3889  0.2726
  128MOL    C1840912   2.231   5.801   6.529  0.3680  0.8040 -0.4106
  128MOL    O1940913   2.305   5.792   6.407  0.1040 -0.3612 -0.8025
  128MOL    C2040914   2.444   5.826   6.421  0.1570  0.4252 -0.2126
  128MOL    C2140915   2.530   5.716   6.351  0.4810 -0.7112  0.7518
  128MOL    C2240916   2.510   5.710   6.203  0.3291 -0.2907  0.2952
  128MOL    C2340917   2.214   5.951   6.576 -0.3779 -0.0991 -0.4390
  128MOL    H2440918   2.290   5.752   6.607  1.3122  2.6563  0.0672
  128MOL    H2540919   2.461   5.925   6.379 -1.3313 -0.1053 -2.1555
  128MOL    H2640920   2.470   5.827   6.527 -1.5100 -2.1586  0.2753
  128MOL    H2740921   2.534   5.624   6.410  0.2541 -1.7456 -0.8246
  128MOL    H2840922   2.632   5.750   6.374  0.2585  1.9469 -1.8463
  128MOL    H2940923   2.404   5.687   6.189  0.0720  0.5132  0.8198
  128MOL    H3040924   2.567   5.626   6.165 -0.3195 -0.4371 -0.3719
  128MOL    H3140925   2.527   5.805   6.151 -2.0256 -0.9759 -1.8011
  128MOL    H3240926   2.308   6.002   6.594 -0.5078 -0.6280  1.9154
  128MOL    H3340927   2.170   6.000   6.490 -0.7722  0.6323  0.1724
  128MOL    C3440928   2.139   5.980   6.704 -0.2414  0.2026 -0.3997
  128MOL    O3540929   2.223   5.967   6.816 -0.0827 -0.4830 -0.2722
  128MOL    C3640930   2.162   5.905   6.925  0.0516  0.4892 -0.2245
  128MOL    C3740931   2.244   5.926   7.055  0.1477 -0.4933 -0.0492
  128MOL    C3840932   2.230   6.070   7.109 -0.2856  0.6636 -0.2309
  128MOL    C3940933   2.099   6.127   6.705  0.7465 -0.7746  0.1541
  128MOL    H4040934   2.045   5.926   6.716 -1.4887  2.6078  0.9334
  128MOL    H4140935   2.069   5.959   6.945 -0.1743 -0.5048  1.5710
  128MOL    H4240936   2.141   5.800   6.902 -0.6809  0.0893  2.1320
  128MOL    H4340937   2.351   5.911   7.047  0.4045  0.2597  1.8053
  128MOL    H4440938   2.212   5.853   7.130 -1.6683 -1.3401 -1.5971
  128MOL    H4540939   2.125   6.087   7.133  0.2531 -1.9707  4.7701
  128MOL    H4640940   2.260   6.146   7.036  1.7549  0.6034  0.4886
  128MOL    H4740941   2.288   6.075   7.202 -0.3933  0.2384 -0.1423
  128MOL    H4840942   2.059   6.145   6.805  3.3553 -1.0500  1.2776
  128MOL    H4940943   2.182   6.197   6.698 -0.7123  1.0620  0.8270
  128MOL    C5040944   1.994   6.159   6.601 -0.1735  0.1192 -0.3736
  128MOL    O5140945   1.892   6.054   6.618 -0.0508  0.0257  0.1142
  128MOL    C5240946   1.797   6.048   6.517  0.4332 -0.4267  0.0779
  128MOL    C5340947   1.738   5.905   6.518 -0.3013 -0.2169  0.3474
  128MOL    C5440948   1.639   5.867   6.636  0.0763 -0.3040  0.2356
  128MOL    C5540949   1.931   6.303   6.620  0.3075  0.3495 -0.3685
  128MOL    H5640950   2.046   6.157   6.506 -0.4543  2.9695 -0.6249
  128MOL    H5740951   1.722   6.126   6.521  1.9419  1.1363 -1.1853
  128MOL    H5840952   1.860   6.056   6.428  0.3302 -2.2526 -0.1936
  128MOL    H5940953   1.825   5.841   6.505 -0.3908  0.0592 -1.8000
  128MOL    H6040954   1.680   5.894   6.426 -1.2386 -0.8343  0.9930
  128MOL    H6140955   1.690   5.865   6.732 -0.7981 -1.0233  0.6996
  128MOL    H6240956   1.587   5.774   6.614 -0.0808  0.0329 -0.8712
  128MOL    H6340957   1.551   5.931   6.648  0.0677 -0.2935  0.1217
  128MOL    H6440958   1.836   6.300   6.673 -0.1710  0.7027 -1.1971
  128MOL    H6540959   1.994   6.350   6.696 -1.9810 -0.1830  1.9277
  128MOL    C6640960   1.917   6.404   6.499 -0.4832 -0.2647  0.5476
  128MOL    O6740961   1.819   6.350   6.410 -0.3523  0.3264 -0.8186
  128MOL    C6840962   1.823   6.392   6.278  0.8286  0.2298  0.1623
  128MOL    C6940963   1.721   6.304   6.203 -0.2787 -0.3660  0.2232
  128MOL    C7040964   1.573   6.336   6.222  0.0749  0.6637 -0.2817
  128MOL    C7140965   1.866   6.540   6.544 -0.1074 -0.4387 -0.4282
  128MOL    H7240966   2.012   6.401   6.446 -1.6342 -1.1231 -1.5568
  128MOL    H7340967   1.799   6.498   6.271 -1.6819 -0.2874  0.4180
  128MOL    H7440968   1.925   6.376   6.242  0.2628 -0.3778 -1.1812
  128MOL    H7540969   1.728   6.196   6.217 -2.2516 -0.6088 -0.5321
  128MOL    H7640970   1.751   6.319   6.099  0.4386  2.0976  0.7732
  128MOL    H7740971   1.499   6.275   6.169  0.7429  0.1226 -0.5878
  128MOL    H7840972   1.550   6.442   6.206  1.0845  0.6068 -2.2591
  128MOL    H7940973   1.571   6.315   6.329  0.6956 -0.8519 -0.5581
  128MOL    H8040974   1.857   6.616   6.466  0.5373 -1.3308 -1.3739
  128MOL    H8140975   1.767   6.522   6.585 -0.4378  3.8109  0.8562
  128MOL    C8240976   1.971   6.603   6.641 -0.3694 -0.1498 -0.1947
  128MOL    O8340977   2.101   6.573   6.588 -0.4220  0.3633 -0.1352
  128MOL    C8440978   2.206   6.559   6.685 -0.2359 -0.2516  0.3074
  128MOL    C8540979   2.339   6.517   6.622 -0.4607  0.7196 -0.1809
  128MOL    C8640980   2.415   6.622   6.532 -0.0681 -0.0195  0.4222
  128MOL    C8740981   1.946   6.751   6.677 -0.2739  0.3351  0.0380
  128MOL    H8840982   1.962   6.552   6.736 -2.6616  1.0154  0.2452
  128MOL    H8940983   2.216   6.653   6.738  0.3740 -0.0230 -0.1962
  128MOL    H9040984   2.174   6.486   6.759  1.6198  0.8580  2.2283
  128MOL    H9140985   2.318   6.420   6.576 -0.4866 -0.4148  2.1261
  128MOL    H9240986   2.411   6.496   6.701 -1.2210  0.8627  0.5673
  128MOL    H9340987   2.389   6.717   6.578  3.0595  1.2939 -0.3958
  128MOL    H9440988   2.396   6.628   6.424 -0.4295 -1.5572  0.3840
  128MOL    H9540989   2.520   6.595   6.545 -0.1760 -0.9461 -0.5299
  128MOL    H9640990   2.034   6.792   6.726 -0.5964  1.8366 -0.6289
  128MOL    H9740991   1.935   6.803   6.581  1.0673  0.3662 -0.1125
  128MOL    C9840992   1.823   6.769   6.763  0.0048  0.3084 -0.2734
  128MOL    O9940993   1.699   6.741   6.701  0.2889 -0.2800 -0.2828
  128MOL   C10040994   1.654   6.844   6.615 -0.4002  0.5561 -0.6838
  128MOL   C10140995   1.522   6.794   6.560  0.6265  0.3747  0.2200
  128MOL   C10240996   1.546   6.709   6.434 -0.0652  0.3371  0.4370
  128MOL   C10340997   1.824   6.683   6.887 -0.1255  0.1405 -0.4923
  128MOL   H10440998   1.832   6.873   6.794  1.3518  0.6163 -1.6441
  128MOL   H10540999   1.634   6.929   6.682 -0.2281  1.1144 -1.3397
  128MOL   H10641000   1.721   6.877   6.536 -0.1024 -4.3636 -2.6378
  128MOL   H10741001   1.449   6.869   6.534  0.8033  0.2612 -0.6384
  128MOL   H10841002   1.494   6.720   6.635 -0.3765  2.2265  1.7048
  128MOL   H10941003   1.596   6.772   6.359  0.4674  0.4684  0.8994
  128MOL   H11041004   1.456   6.664   6.393 -0.6056  0.4797  1.4828
  128MOL   H11141005   1.621   6.633   6.457  0.2192  1.0978  2.0536
  128MOL   H11241006   1.790   6.582   6.862  1.4037 -0.0699 -1.8119
  128MOL   H11341007   1.928   6.673   6.917 -0.3544 -1.3842 -0.1467
  128MOL   C11441008   1.764   6.743   7.016  0.3410 -0.4136  0.0617
  128MOL   O11541009   1.622   6.770   6.992  0.1336  0.3061 -0.3878
  128MOL   C11641010   1.571   6.900   7.010 -0.1474 -0.2799  0.4683
  128MOL   C11741011   1.434   6.916   7.089  0.1131 -0.4330  0.0867
  128MOL   C11841012   1.452   6.914   7.237  0.7822 -0.3304 -0.1613
  128MOL   C11941013   1.766   6.639   7.128 -0.5261 -0.3754 -0.4173
  128MOL   H12041014   1.817   6.830   7.054  1.0699 -0.9789  0.3536
  128MOL   H12141015   1.643   6.979   7.033  1.5143 -1.7425  0.3899
  128MOL   H12241016   1.541   6.930   6.910 -0.6846  0.2919  0.7970
  128MOL   H12341017   1.370   6.836   7.051  0.8522 -0.8801 -0.2382
  128MOL   H12441018   1.376   7.006   7.068 -1.7490 -1.4944  0.6159
  128MOL   H12541019   1.352   6.906   7.280  0.6794 -0.0089 -0.3369
  128MOL   H12641020   1.490   7.013   7.262  1.7601 -0.0203 -2.7039
  128MOL   H12741021   1.522   6.838   7.270  2.0702  0.4127 -1.1534
  128MOL   H12841022   1.733   6.696   7.215  1.2098  1.3176 -0.8191
  128MOL   H12941023   1.676   6.580   7.112 -0.7955 -0.1438  0.2180
  128MOL   C13041024   1.897   6.558   7.148 -0.0140  0.0175 -0.3263
  128MOL   O13141025   1.987   6.665   7.173  0.4279  1.1584 -0.5009
  128MOL   C13241026   2.125   6.635   7.165  0.6600 -0.4808 -0.0827
  128MOL   C13341027   2.192   6.755   7.103 -0.4228 -0.0247 -0.0538
  128MOL   C13441028   2.197   6.878   7.187  0.0953  0.0998 -0.1980
  128MOL   C13541029   1.891   6.451   7.259  0.6089 -0.1039  0.5838
  128MOL   H13641030   1.918   6.505   7.054 -0.0146  0.4590 -0.5756
  128MOL   H13741031   2.167   6.625   7.265  2.4000 -1.1350 -0.8616
  128MOL   H13841032   2.136   6.545   7.105 -0.3131 -2.1414  2.1509
  128MOL   H13941033   2.155   6.779   7.004 -2.6007  2.8243  1.3854
  128MOL   H14041034   2.295   6.720   7.096 -0.1394  1.1626 -2.3500
  128MOL   H14141035   2.252   6.863   7.280 -0.7040 -0.7222  0.1550
  128MOL   H14241036   2.099   6.925   7.197  0.1267  0.2837 -0.7608
  128MOL   H14341037   2.269   6.937   7.130  1.2285 -1.4241 -0.3901
  128MOL   H14441038   1.986   6.399   7.269  0.6484  0.2447  2.0374
  128MOL   H14541039   1.865   6.512   7.346 -0.5339 -0.6517  0.6292
  128MOL   C14641040   1.781   6.348   7.230  0.3076 -0.4519 -0.0257
  128MOL   O14741041   1.836   6.249   7.149 -0.2630 -0.3727 -0.0059
  128MOL   C14841042   1.752   6.190   7.054 -0.6570  0.0483  0.1500
  128MOL   C14941043   1.803   6.060   6.989  0.2469 -0.5954  0.4689
  128MOL   C15041044   1.824   5.940   7.090  0.1994  0.0890  0.3620
  128MOL   C15141045   1.730   6.278   7.359  0.2017  0.0165  0.2242
  128MOL   H15241046   1.696   6.400   7.187 -0.3729 -0.4608  1.2903
  128MOL   H15341047   1.650   6.171   7.090 -0.4883  1.0367  1.1966
  128MOL   H15441048   1.736   6.259   6.971 -1.6455  0.6299  0.7996
  128MOL   H15541049   1.898   6.091   6.945  1.1105  0.3127  2.8567
  128MOL   H15641050   1.730   6.023   6.917  0.8263  0.7363 -0.8309
  128MOL   H15741051   1.732   5.902   7.135  0.4473 -2.3921 -1.0771
  128MOL   H15841052   1.893   5.975   7.166 -0.4972  1.8191  0.2183
  128MOL   H15941053   1.863   5.856   7.032 -0.9920 -1.4274  1.6961
  128MOL   H16041054   1.669   6.198   7.315  0.1795 -0.3720  0.9522
  128MOL   H16141055   1.818   6.232   7.406 -0.4834  0.2823  1.8000
  128MOL   C16241056   1.654   6.355   7.467 -0.7978 -0.4803  0.5381
  128MOL   O16341057   1.524   6.370   7.429  0.1166  0.1200 -0.1448
  128MOL   C16441058   1.486   6.508   7.419  0.2105  0.0776  0.7611
  128MOL   C16541059   1.336   6.521   7.393  0.1881 -0.7520  0.6951
  128MOL   C16641060   1.286   6.444   7.267 -0.0986  0.0974  1.0680
  128MOL   C16741061   1.645   6.298   7.609 -0.3021  0.2431 -0.4419
  128MOL   H16841062   1.705   6.448   7.487 -3.3063  0.9293  0.6271
  128MOL   H16941063   1.484   6.556   7.517 -1.5901  0.7194  0.4395
  128MOL   H17041064   1.544   6.565   7.346  1.8393 -0.4665  1.6058
  128MOL   H17141065   1.303   6.625   7.393  1.0593 -0.4740  2.2389
  128MOL   H17241066   1.291   6.464   7.474 -2.6837 -0.0241 -0.2979
  128MOL   H17341067   1.178   6.433   7.262  0.0676 -1.5269  0.6925
  128MOL   H17441068   1.319   6.340   7.267 -1.6802 -0.4543 -1.4943
  128MOL   H17541069   1.332   6.485   7.177  0.0394 -0.3981  0.9099
  128MOL   H17641070   1.592   6.370   7.671 -0.8817  0.6278 -1.3629
  128MOL   H17741071   1.594   6.201   7.613 -2.3196  1.3393  1.1261
  128MOL   C17841072   1.785   6.281   7.674 -0.5479  0.3463  0.2206
  128MOL   O17941073   1.844   6.155   7.631 -0.1039 -0.2397 -0.3098
  128MOL   C18041074   1.820   6.054   7.732 -0.1849  0.2016  0.3154
  128MOL   C18141075   1.863   5.918   7.680  0.8686 -0.0532  0.6940
  128MOL   C18241076   1.801   5.880   7.539  0.0011  0.2225  0.3125
  128MOL   C18341077   1.890   6.386   7.658 -0.2527  0.0123 -0.2680
  128MOL   H18441078   1.777   6.279   7.783  0.7213  0.5289  0.3299
  128MOL   H18541079   1.863   6.078   0.001  0.8701  0.8928 -0.3109
  128MOL   H18641080   1.712   6.052   7.747 -0.2841  0.3888 -0.3443
  128MOL   H18741081   1.857   5.832   7.747 -0.8208  0.1033  0.7524
  128MOL   H18841082   1.971   5.929   7.671  0.9194 -0.9504  0.1440
  128MOL   H18941083   1.830   5.958   7.468 -0.4303  1.2107  1.1964
  128MOL   H19041084   1.692   5.880   7.542 -0.0743  0.0358 -1.7048
  128MOL   H19141085   1.842   5.787   7.501  0.7711  0.3040  0.9344
  128MOL   H19241086   1.982   6.339   7.694 -0.0842 -0.1766 -0.9409
  128MOL   H19341087   1.924   6.395   7.555  0.1364 -2.5108 -0.4000
  128MOL   C19441088   1.851   6.512   7.734  0.2346 -1.1637 -0.2867
  128MOL   O19541089   1.806   6.481   0.040 -0.3055 -0.6902  0.4299
  128MOL   C19641090   1.726   6.591   0.090  0.1746  0.0125  0.0883
  128MOL   C19741091   1.707   6.574   0.243 -0.1051  0.4540 -0.2225
  128MOL   C19841092   1.839   6.583   0.313 -0.3279 -0.0624 -0.0405
  128MOL   C19941093   1.978   6.600   7.752 -0.1921 -0.1830 -0.2440
  128MOL   H20041094   1.770   6.559   7.678  2.8738  1.8823 -1.7417
  128MOL   H20141095   1.772   6.687   0.066  1.0397 -1.4821 -4.6781
  128MOL   H20241096   1.631   6.593   0.038 -0.0876  0.1776  0.5638
  128MOL   H20341097   1.651   6.482   0.260 -2.1599  1.7394  0.2232
  128MOL   H20441098   1.647   6.653   0.289 -0.4434  1.0127 -1.5963
  128MOL   H20541099   1.901   6.664   0.274 -0.4388 -1.2304 -2.7547
  128MOL   H20641100   1.886   6.484   0.310 -3.3973 -1.5745 -0.0341
  128MOL   H20741101   1.819   6.618   0.414  1.2736  2.0999 -0.4211
  128MOL   H20841102   1.952   6.685   7.815 -1.1934 -1.0436  0.5100
  128MOL   H20941103   2.061   6.539   7.787  0.6789  0.2072 -1.5965
  128MOL   C21041104   2.014   6.686   7.627  0.4077  0.0545 -0.0972
  128MOL   O21141105   1.902   6.775   7.606  0.3437 -0.2586 -0.0024
  128MOL   C21241106   1.883   6.800   7.469 -0.0722  0.1945 -0.2482
  128MOL   C21341107   1.758   6.894   7.462 -0.3871  0.3105 -0.0857
  128MOL   C21441108   1.625   6.835   7.513  0.3763 -0.1683 -0.0350
  128MOL   C21541109   2.145   6.767   7.642 -0.4113  0.0922 -0.0130
  128MOL   H21641110   2.010   6.616   7.544 -1.3006  0.3674 -0.2802
  128MOL   H21741111   1.969   6.850   7.425  0.8938  1.3338  2.7870
  128MOL   H21841112   1.854   6.707   7.420 -0.7352  0.4715 -0.3895
  128MOL   H21941113   1.745   6.927   7.359  0.7184 -1.4274 -0.7965
  128MOL   H22041114   1.782   6.986   7.515 -0.6006  0.3244 -0.0118
  128MOL   H22141115   1.606   6.740   7.462  0.2234 -1.6405  2.6410
  128MOL   H22241116   1.548   6.905   7.481  0.9972  0.4736 -0.1358
  128MOL   H22341117   1.622   6.818   7.620  2.6557 -0.0744  0.0562
  128MOL   H22441118   2.153   6.848   7.570 -0.4920  0.5558  0.4954
  128MOL   H22541119   2.137   6.818   7.738 -0.0393  0.2869 -0.0829
  128MOL   C22641120   2.282   6.683   7.648  0.5926 -0.1602  0.0935
  128MOL   O22741121   2.308   6.611   7.529 -0.3742 -0.4473  0.1397
  128MOL   C22841122   2.307   6.475   7.549 -0.2677  0.2908 -0.3016
  128MOL   C22941123   2.319   6.402   7.412  0.0002 -0.2926 -0.0039
  128MOL   C23041124   2.446   6.453   7.331  0.1929  0.0753  0.6408
  128MOL   C23141125   2.409   6.772   7.663 -0.1498  0.0521  0.2672
  128MOL   H23241126   2.283   6.611   7.730 -0.7290  0.2458  0.4840
  128MOL   H23341127   2.397   6.449   7.605 -0.3442 -1.9123 -1.1717
  128MOL   H23441128   2.216   6.455   7.606  0.8033  0.7343  1.6047
  128MOL   H23541129   2.231   6.424   7.352  0.8994 -0.4629 -1.4022
  128MOL   H23641130   2.331   6.297   7.440 -2.8842 -0.5114  0.5461
  128MOL   H23741131   2.453   6.407   7.232  2.2611 -0.9463  1.2464
  128MOL   H23841132   2.541   6.433   7.380  0.1113 -2.0008 -0.0107
  128MOL   H23941133   2.427   6.559   7.316 -0.0997 -0.1399 -0.5632
  128MOL   H24041134   2.499   6.712   7.643  1.0130  1.6521  0.5742
  128MOL   H24141135   2.410   6.857   7.595 -2.4571 -0.1845 -0.0781
  128MOL   C24241136   2.422   6.833   7.804 -0.6672  0.1990 -0.3433
  128MOL   O24341137   2.415   6.726   0.068  0.0308  0.0339 -0.7405
  128MOL   C24441138   2.387   6.771   0.201  0.5535 -0.2171 -0.3099
  128MOL   C24541139   2.329   6.658   0.290 -0.2271  0.2671  0.0398
  128MOL   C24641140   2.201   6.609   0.226  0.2536  0.5228  0.1402
  128MOL   C24741141   2.565   6.895   7.824 -0.1579  0.5579  0.1063
  128MOL   H24841142   2.339   6.902   7.818 -1.4519 -1.1296  1.8893
  128MOL   H24941143   2.477   6.814   0.245 -1.4090  0.0227  3.6978
  128MOL   H25041144   2.319   6.856   0.198  2.0905  1.0700  0.1850
  128MOL   H25141145   2.322   6.686   0.395 -1.3732 -0.5305  0.1891
  128MOL   H25241146   2.403   6.579   0.300  0.3681  0.5461 -1.9310
  128MOL   H25341147   2.180   6.515   0.278  1.4089  0.0206 -0.2818
  128MOL   H25441148   2.204   6.596   0.118  0.2417 -0.1092  0.2126
  128MOL   H25541149   2.123   6.683   0.247 -0.6762 -1.3840  4.0257
  128MOL   H25641150   2.596   6.906   0.100 -0.7049 -0.1791  0.3458
  128MOL   H25741151   2.644   6.826   7.794 -0.1649 -0.2158  1.8102
  128MOL   C25841152   2.568   7.034   7.758  0.0712  0.5686 -0.0255
  128MOL   O25941153   2.488   7.131   7.821 -0.3684  1.0751 -0.2982
  128MOL   C26041154   2.439   7.242   7.738  0.5413  0.4700 -0.4423
  128MOL   C26141155   2.493   7.360   7.817 -0.1957  0.2853  0.7403
  128MOL   C26241156   2.448   7.484   7.740  0.4047  0.1814 -0.0068
  128MOL   C26341157   2.705   7.099   7.747  0.8058 -0.2318 -0.3671
  128MOL   H26441158   2.537   7.021   7.654 -1.6467 -0.7119  0.6259
  128MOL   H26541159   2.462   7.225   7.633 -0.9651  2.2947 -1.0975
  128MOL   H26641160   2.330   7.237   7.739  0.6097 -1.6516  1.6987
  128MOL   H26741161   2.600   7.377   0.006  0.3145 -1.9720  0.0049
  128MOL   H26841162   2.466   7.352   0.094 -2.7031 -3.1052 -0.0935
  128MOL   H26941163   2.492   7.476   7.640 -0.3850 -1.0928 -0.2583
  128MOL   H27041164   2.476   7.576   7.792  0.8155 -2.3673  4.5170
  128MOL   H27141165   2.340   7.489   7.730  0.3278 -0.8700  0.3153
  128MOL   H27241166   2.696   7.205   7.726  0.6992  0.1071  1.2706
  128MOL   H27341167   2.746   7.102   0.020 -1.1891  0.1973  0.4526
  128MOL   C27441168   2.813   7.042   7.655  0.0627 -0.0229 -0.2285
  128MOL   O27541169   2.773   7.083   7.523 -0.3898 -0.4908  0.3970
  128MOL   C27641170   2.806   7.000   7.415  0.3422 -0.3419 -0.0923
  128MOL   C27741171   2.715   7.012   7.290 -0.1877  0.1311  0.3137
  128MOL   C27841172   2.572   6.963   7.319  0.3738  0.4866  0.3281
  128MOL   C27941173   2.961   7.076   7.689  1.0220  0.0759  0.0417
  128MOL   H28041174   2.803   6.934   7.648 -1.1793  0.1466 -1.2631
  128MOL   H28141175   2.906   7.032   7.384  0.3924  0.8670  1.2629
  128MOL   H28241176   2.817   6.896   7.446 -0.3708 -0.1713  0.7336
  128MOL   H28341177   2.755   6.963   7.202 -1.0702  0.5427 -0.3278
  128MOL   H28441178   2.710   7.118   7.263 -1.0239  0.2560  0.9232
  128MOL   H28541179   2.530   7.023   7.400 -0.2243 -0.8062  1.0013
  128MOL   H28641180   2.580   6.865   7.366 -3.8777 -1.1219 -1.9378
  128MOL   H28741181   2.508   6.967   7.230 -1.6264 -2.5432  1.5470
  128MOL   H28841182   3.010   7.073   7.591  1.5380 -0.8928  0.3167
  128MOL   H28941183   2.966   7.176   7.731 -2.6908  1.1434 -1.9240
  128MOL   C29041184   3.035   6.981   7.786 -0.5008 -0.6272  0.0762
  128MOL   O29141185   3.177   6.979   7.752 -0.9324 -0.0062 -0.6726
  128MOL   C29241186   3.221   6.908   7.635 -0.0481 -0.1935  0.0447
  128MOL   C29341187   3.373   6.918   7.631  0.0916 -0.6071 -0.1185
  128MOL   C29441188   3.445   6.829   7.739  0.7875  0.3483 -0.2482
  128MOL   C29541189   3.022   7.012   0.111 -0.3431 -0.0962  0.5917
  128MOL   H29641190   3.000   6.881   7.761  1.7256 -1.2885 -0.5880
  128MOL   H29741191   3.171   6.811   7.631  0.9487 -0.6436 -1.9583
  128MOL   H29841192   3.177   6.970   7.557  0.4731  2.4295  1.7828
  128MOL   H29941193   3.401   7.022   7.613  2.1566 -1.0241  0.6490
  128MOL   H30041194   3.403   6.877   7.535  0.7642  3.4602 -1.7600
  128MOL   H30141195   3.422   6.868   0.011 -0.4830  2.7722 -1.4319
  128MOL   H30241196   3.553   6.821   7.726  0.7550 -1.3986  0.4673
  128MOL   H30341197   3.409   6.727   7.729 -1.0087  0.8930  0.4519
  128MOL   H30441198   3.103   7.074   0.150  1.0245 -0.8137 -1.0790
  128MOL   H30541199   2.939   7.081   0.124 -1.8982 -2.0864  1.5600
  128MOL   C30641200   3.006   6.892   0.206  0.1187 -0.2530  0.7626
  128MOL   O30741201   2.866   6.845   0.198  0.2793  0.0270 -0.4834
  128MOL   C30841202   2.807   6.796   0.321 -0.3445 -0.1115  0.4017
  128MOL   C30941203   2.749   6.914   0.402  0.4543  0.1023  0.3259
  128MOL   C31041204   2.669   7.023   0.331  0.1696 -0.5197 -0.0376
  128MOL   C31141205   3.102   6.774   0.171  0.1819 -0.0455 -0.2433
  128MOL   H31241206   3.029   6.929   0.306  3.3826  1.9913 -0.7345
  128MOL   H31341207   2.723   6.733   0.292 -0.2222 -0.8202  1.5941
  128MOL   H31441208   2.877   6.737   0.379 -1.9093  0.5146  3.0136
  128MOL   H31541209   2.832   6.958   0.457 -0.7609  0.9541  1.4978
  128MOL   H31641210   2.686   6.872   0.480  0.3542  0.4608  0.4380
  128MOL   H31741211   2.729   7.073   0.256  0.5644 -0.1224  0.5370
  128MOL   H31841212   2.655   7.101   0.406  0.0348 -1.7257  1.2280
  128MOL   H31941213   2.575   6.991   0.286  0.4902 -1.1785 -0.2392
  128MOL   H32041214   3.074   6.748   0.069  0.7760 -0.8412 -0.2010
  128MOL   H32141215   3.207   6.801   0.164 -0.6932  3.5949 -0.8951
  128MOL   H32241216   3.093   6.688   0.236  0.3142  1.9420  2.4998
  129MOL     C141217   7.568   2.198   1.902  0.1475  0.0318  0.0419
  129MOL     O241218   7.541   2.278   1.785  0.1783 -0.0950  0.7475
  129MOL     C341219   7.662   2.286   1.711  0.5815  0.4866 -0.4436
  129MOL     C441220   7.652   2.388   1.600  0.4419  0.1975  0.0218
  129MOL     C541221   7.598   2.528   1.631 -0.4380 -0.3940  0.2941
  129MOL     C641222   7.462   2.233   1.996 -0.1570 -0.5985 -0.5149
  129MOL     H741223   7.663   2.230   1.945  0.5654  1.1029 -1.6346
  129MOL     H841224   7.747   2.319   1.771  0.5931 -1.6663  0.7744
  129MOL     H941225   7.704   2.191   1.679  2.6294  1.0444  0.4340
  129MOL    H1041226   7.584   2.341   1.530  4.0263 -0.5911 -3.0872
  129MOL    H1141227   7.746   2.397   1.546 -1.0171 -1.7955 -2.9729
  129MOL    H1241228   7.580   2.590   1.544 -1.2716 -1.3790 -0.2467
  129MOL    H1341229   7.672   2.572   1.697  0.2931 -1.5021  0.2348
  129MOL    H1441230   7.497   2.519   1.671 -1.0725  1.7681 -0.7571
  129MOL    H1541231   7.448   2.340   2.013 -1.1626 -1.0145  1.4566
  129MOL    H1641232   7.370   2.197   1.951 -0.7258 -0.5048  0.5525
  129MOL    H1741233   7.593   2.093   1.887 -0.2514 -0.4250  2.4051
  129MOL    C1841234   7.481   2.164   2.133  0.3270 -0.2023 -0.0137
  129MOL    O1941235   7.596   2.228   2.179  0.5279 -0.2011 -0.1673
  129MOL    C2041236   7.675   2.162   2.273  0.4651  0.0347  0.7302
  129MOL    C2141237   7.780   2.262   2.309 -0.6102 -0.0542 -0.0489
  129MOL    C2241238   7.734   2.395   2.375 -0.1079 -0.4719  0.1292
  129MOL    C2341239   7.358   2.177   2.238  0.1026  0.7031  0.2765
  129MOL    H2441240   7.499   2.057   2.124 -0.0394 -0.3214  0.6432
  129MOL    H2541241   7.614   2.129   2.357  0.9119  1.7094  1.7421
  129MOL    H2641242   7.715   2.072   2.226 -1.1457  0.4270 -1.4426
  129MOL    H2741243   0.016   2.299   2.229 -1.5078  0.4212 -0.5502
  129MOL    H2841244   0.025   2.209   2.370  1.3409  1.5526 -0.9080
  129MOL    H2941245   7.645   2.437   2.329  1.4000  0.6111 -1.8855
  129MOL    H3041246   7.817   2.465   2.366 -1.0958  0.6451 -0.4917
  129MOL    H3141247   7.715   2.384   2.481  0.3763  1.0126  0.3723
  129MOL    H3241248   7.382   2.128   2.332 -0.6905 -0.4894 -0.1258
  129MOL    H3341249   7.343   2.282   2.264  0.1110  0.4133  1.4871
  129MOL    C3441250   7.223   2.117   2.181  0.3884 -0.2147 -0.4674
  129MOL    O3541251   7.261   1.985   2.157 -0.7834  0.0177  0.0248
  129MOL    C3641252   7.198   1.913   2.055  0.6311  0.0194 -0.8494
  129MOL    C3741253   7.264   1.773   2.045 -0.6747 -0.0285 -0.2501
  129MOL    C3841254   7.411   1.782   2.046  0.2989 -0.1984  0.0119
  129MOL    C3941255   7.120   2.097   2.295  0.1297  0.2311 -0.4011
  129MOL    H4041256   7.196   2.183   2.099 -1.4465 -3.1223 -2.2869
  129MOL    H4141257   7.090   1.920   2.064  0.9648  2.4055  2.3932
  129MOL    H4241258   7.218   1.965   1.961 -2.0255  0.6521 -1.1061
  129MOL    H4341259   7.223   1.729   1.954 -1.0425  0.2981 -0.2427
  129MOL    H4441260   7.230   1.718   2.132  2.3494 -2.3756 -0.4409
  129MOL    H4541261   7.463   1.705   1.990  1.2263  0.5008 -0.1100
  129MOL    H4641262   7.450   1.774   2.148  2.9092 -0.7668 -0.9873
  129MOL    H4741263   7.447   1.879   2.011 -2.3946  1.7435  2.3738
  129MOL    H4841264   7.031   2.052   2.253  0.1604 -0.7976  0.6110
  129MOL    H4941265   7.167   2.027   2.364  0.0125  0.8179  0.2823
  129MOL    C5041266   7.060   2.214   2.367  0.3546  0.4064  0.0215
  129MOL    O5141267   6.995   2.284   2.256 -0.0893  0.4523  0.5061
  129MOL    C5241268   7.004   2.423   2.281 -0.0971 -0.2735  0.0009
  129MOL    C5341269   6.959   2.507   2.169  0.1405 -0.5339 -0.2012
  129MOL    C5441270   7.037   2.481   2.038  0.2427  0.6693  0.4261
  129MOL    C5541271   6.952   2.161   2.464  0.8639 -0.8064 -0.7185
  129MOL    H5641272   7.134   2.275   2.419  1.4948 -0.4664 -0.5601
  129MOL    H5741273   6.946   2.455   2.368 -1.9682 -1.8252 -0.6327
  129MOL    H5841274   7.112   2.439   2.284  0.2623 -2.3539 -0.7061
  129MOL    H5941275   6.969   2.612   2.198  1.9465 -0.6468 -0.3474
  129MOL    H6041276   6.852   2.495   2.151  0.4894 -3.2965 -0.6125
  129MOL    H6141277   7.139   2.516   2.048 -0.2469  2.2408  0.1155
  129MOL    H6241278   6.997   2.525   1.946  3.1325  2.5864  0.0119
  129MOL    H6341279   7.026   2.374   2.022 -1.0173  0.7228  0.8479
  129MOL    H6441280   6.898   2.243   2.512  1.8691 -0.9986  0.7810
  129MOL    H6541281   6.883   2.102   2.404 -1.4817  2.6023 -1.5189
  129MOL    C6641282   7.017   2.084   2.588  0.4727  0.1353  0.2582
  129MOL    O6741283   7.110   2.170   2.659  0.2694  0.1924 -0.3815
  129MOL    C6841284   7.247   2.134   2.648 -0.2747  0.2832 -0.3066
  129MOL    C6941285   7.314   2.178   2.779  0.6419  0.4532  1.1979
  129MOL    C7041286   7.466   2.155   2.786  0.4675  0.1315  0.2925
  129MOL    C7141287   6.905   2.038   2.692 -0.3460 -0.3204  0.2155
  129MOL    H7241288   7.052   1.990   2.545  2.2502  1.8802 -2.2661
  129MOL    H7341289   7.259   2.026   2.646 -0.8521  0.2062  0.3052
  129MOL    H7441290   7.292   2.159   2.551  0.6115 -1.0614 -0.2535
  129MOL    H7541291   7.254   2.132   2.857 -0.9550  0.2453 -0.1342
  129MOL    H7641292   7.299   2.284   2.799 -0.0295  0.3855  1.0567
  129MOL    H7741293   7.536   2.214   2.726  2.4666 -1.4770  0.9951
  129MOL    H7841294   7.485   2.053   2.754  1.2490  0.5139 -0.4999
  129MOL    H7941295   7.484   2.165   2.893  2.9445  1.8207 -0.2416
  129MOL    H8041296   6.867   2.127   2.743 -0.0029 -0.7440  1.2140
  129MOL    H8141297   6.819   2.000   2.636 -0.1472 -2.3654  1.2321
  129MOL    C8241298   6.949   1.922   2.778 -0.3491  0.1963  0.1269
  129MOL    O8341299   6.863   1.935   2.892 -0.1232 -0.0056  0.1331
  129MOL    C8441300   6.896   2.031   2.992 -0.5667  0.2810 -0.0965
  129MOL    C8541301   6.788   2.039   3.102 -0.5655 -0.4019  0.1682
  129MOL    C8641302   6.819   1.936   3.216 -0.2953  0.3853  0.3477
  129MOL    C8741303   6.927   1.777   2.723 -0.2140 -0.2370  0.4985
  129MOL    H8841304   7.053   1.931   2.811 -0.6683  1.8335  0.7751
  129MOL    H8941305   6.996   2.010   3.028 -0.2859 -0.4562 -1.2779
  129MOL    H9041306   6.888   2.128   2.943  2.9683  0.6623 -0.0311
  129MOL    H9141307   6.686   2.022   3.066 -0.4505 -2.0629  0.5901
  129MOL    H9241308   6.787   2.132   3.159 -2.8520 -1.5407  2.0635
  129MOL    H9341309   6.807   1.833   3.181 -2.3392  1.2792 -1.7293
  129MOL    H9441310   6.735   1.949   3.285  1.0901  2.3472  1.6916
  129MOL    H9541311   6.910   1.951   3.273  1.7806  0.9958 -3.0138
  129MOL    H9641312   6.828   1.771   2.677 -0.5326 -0.5424  1.2215
  129MOL    H9741313   6.988   1.769   2.633 -0.3832  3.1611  0.0510
  129MOL    C9841314   6.953   1.666   2.824  0.2976  0.8079 -0.3398
  129MOL    O9941315   6.889   1.549   2.763 -0.6903  0.8465 -0.3008
  129MOL   C10041316   6.760   1.531   2.813 -0.1016 -0.6979 -0.6433
  129MOL   C10141317   6.689   1.430   2.727 -0.2675 -1.0201 -0.4821
  129MOL   C10241318   6.764   1.296   2.709  0.3996 -0.3878 -0.2646
  129MOL   C10341319   7.106   1.623   2.820  0.0944 -0.5041 -0.4869
  129MOL   H10441320   6.908   1.699   2.918  1.3910  1.6272 -0.0995
  129MOL   H10541321   6.770   1.486   2.912 -3.5334 -2.6340 -1.0748
  129MOL   H10641322   6.698   1.621   2.814  1.8198  0.6413  1.5188
  129MOL   H10741323   6.670   1.480   2.632  2.2418  2.1160  0.5429
  129MOL   H10841324   6.589   1.415   2.768  0.4138 -0.8287  1.2751
  129MOL   H10941325   6.752   1.234   2.798  0.3563 -0.3134 -0.2185
  129MOL   H11041326   6.871   1.318   2.707  0.3935  0.0534  1.9366
  129MOL   H11141327   6.729   1.249   2.618 -0.3121  1.8983 -1.2166
  129MOL   H11241328   7.135   1.599   2.718 -0.0018 -1.8304 -0.2045
  129MOL   H11341329   7.173   1.706   2.844 -1.7717  0.2226  2.5712
  129MOL   C11441330   7.127   1.495   2.902 -0.3569 -0.2354 -0.1670
  129MOL   O11541331   7.225   1.407   2.835  0.5822 -0.1663  0.0239
  129MOL   C11641332   7.164   1.323   2.737 -0.4420  0.2217 -0.2339
  129MOL   C11741333   7.276   1.236   2.668 -0.0121 -0.1142 -0.1828
  129MOL   C11841334   7.371   1.313   2.569 -0.2164 -0.1485  0.9276
  129MOL   C11941335   7.160   1.525   3.048 -0.6731 -0.3644 -0.6201
  129MOL   H12041336   7.032   1.442   2.909 -0.8918  0.4752 -1.8163
  129MOL   H12141337   7.093   1.264   2.796  0.2864 -0.3014  0.1233
  129MOL   H12241338   7.108   1.378   2.662  1.2089 -0.6310 -2.1369
  129MOL   H12341339   7.239   1.150   2.614 -0.8197 -0.6827  1.2347
  129MOL   H12441340   7.345   1.194   2.741 -0.6237 -0.7393  0.0371
  129MOL   H12541341   7.421   1.249   2.496 -0.0781  1.4678 -0.4261
  129MOL   H12641342   7.447   1.373   2.620  0.2036 -0.4678  0.6839
  129MOL   H12741343   7.314   1.379   2.505 -0.5673  1.2022  2.5953
  129MOL   H12841344   7.247   1.469   3.083  1.1089  2.4908 -0.3121
  129MOL   H12941345   7.193   1.628   3.056 -0.9353 -0.4573  2.5868
  129MOL   C13041346   7.042   1.504   3.144  0.4353  0.7221  0.4131
  129MOL   O13141347   7.032   1.360   3.179  0.0127 -0.0213  0.6571
  129MOL   C13241348   6.900   1.321   3.227  0.2056 -0.3283 -0.2564
  129MOL   C13341349   6.877   1.179   3.228  0.5222  0.2116  0.3990
  129MOL   C13441350   6.876   1.105   3.096  0.2867  0.2085 -0.1190
  129MOL   C13541351   7.065   1.586   3.271  0.5539 -0.1264  0.1452
  129MOL   H13641352   6.956   1.544   3.090 -0.7840 -1.0905  0.9574
  129MOL   H13741353   6.896   1.363   3.327  0.3623  1.0849 -0.8290
  129MOL   H13841354   6.818   1.360   3.165  0.5969 -0.9688 -1.1909
  129MOL   H13941355   6.782   1.158   3.277 -0.0270  1.3706 -0.1439
  129MOL   H14041356   6.935   1.124   3.302 -0.9175  1.0556  2.1841
  129MOL   H14141357   6.805   1.152   3.028  0.6274 -1.3015 -1.5681
  129MOL   H14241358   6.837   1.003   3.099  0.7366  0.0718  2.1801
  129MOL   H14341359   6.977   1.104   3.054  0.9152  0.0316  1.3950
  129MOL   H14441360   7.089   1.684   3.231  0.9115 -0.6127 -0.8557
  129MOL   H14541361   6.964   1.592   3.311  0.1656 -1.5823 -0.5567
  129MOL   C14641362   7.163   1.548   3.376 -0.1308  0.9119 -0.3324
  129MOL   O14741363   7.293   1.572   3.322  0.1894  0.0877 -0.0381
  129MOL   C14841364   7.394   1.469   3.336  0.0854  0.0312 -0.6102
  129MOL   C14941365   7.536   1.509   3.287  0.0862 -0.0558 -0.6378
  129MOL   C15041366   7.578   1.630   3.371  0.1289  0.5968  0.6194
  129MOL   C15141367   7.140   1.644   3.493 -0.4639  0.3696  0.2162
  129MOL   H15241368   7.161   1.443   3.406  1.5552  1.3204  1.2700
  129MOL   H15341369   7.396   1.433   3.439 -1.1236  1.1466 -0.1947
  129MOL   H15441370   7.366   1.373   3.292  1.0390 -1.5500  2.1065
  129MOL   H15541371   7.533   1.538   3.182 -0.3660 -0.2367 -0.6763
  129MOL   H15641372   7.619   1.438   3.287 -0.4227 -0.6517  0.0361
  129MOL   H15741373   7.512   1.714   3.348  1.4505  1.6168  0.4638
  129MOL   H15841374   7.679   1.649   3.336 -0.8334  0.3819 -2.4992
  129MOL   H15941375   7.579   1.599   3.475 -2.4434 -1.5039  0.0696
  129MOL   H16041376   7.231   1.650   3.553  1.2286 -0.6730 -2.1473
  129MOL   H16141377   7.123   1.746   3.459  0.6671  0.0619 -1.3183
  129MOL   C16241378   7.027   1.608   3.598  1.0691 -0.6420  0.3462
  129MOL   O16341379   7.073   1.486   3.651 -0.8303  0.3555 -0.5556
  129MOL   C16441380   6.993   1.374   3.618 -0.3339  0.1031  0.6304
  129MOL   C16541381   6.871   1.373   3.708  0.2015  0.6472 -0.6199
  129MOL   C16641382   6.915   1.331   3.851 -0.3419  0.0783 -0.4805
  129MOL   C16741383   7.000   1.704   3.719 -0.2857 -0.5518 -0.0358
  129MOL   H16841384   6.931   1.603   3.546  1.4585  1.3372 -0.6396
  129MOL   H16941385   6.968   1.374   3.512 -1.1127 -1.3103  0.8024
  129MOL   H17041386   7.050   1.281   3.623  0.2300  0.2767 -1.8969
  129MOL   H17141387   6.804   1.303   3.658 -2.2209  0.9956  2.0385
  129MOL   H17241388   6.812   1.465   3.703 -1.6390 -0.5053 -0.6106
  129MOL   H17341389   6.839   1.340   3.929  0.7168  0.0681  0.5709
  129MOL   H17441390   6.998   1.396   3.879 -0.2071 -0.0859 -0.4977
  129MOL   H17541391   6.959   1.232   3.864 -0.4787  0.2505  1.5657
  129MOL   H17641392   6.979   1.650   3.811 -1.3305  1.5146  0.9921
  129MOL   H17741393   7.088   1.766   3.738 -0.6295 -0.3214  0.8417
  129MOL   C17841394   6.887   1.801   3.688  0.1249 -0.3121  0.7444
  129MOL   O17941395   6.772   1.729   3.644 -0.3942 -0.0917 -0.0458
  129MOL   C18041396   6.690   1.800   3.551 -0.5512 -0.3593 -0.0721
  129MOL   C18141397   6.582   1.710   3.491 -0.4327  0.4653 -0.1935
  129MOL   C18241398   6.635   1.615   3.385 -0.1391 -0.6592 -0.5036
  129MOL   C18341399   6.844   1.904   3.798  0.1900  0.1183  0.2543
  129MOL   H18441400   6.917   1.856   3.598  0.0850 -0.1194  0.8494
  129MOL   H18541401   6.639   1.883   3.599 -2.4047 -0.7924 -1.2376
  129MOL   H18641402   6.754   1.852   3.480  0.3770 -0.1415  0.9134
  129MOL   H18741403   6.502   1.775   3.458 -1.4227 -1.1476 -1.0419
  129MOL   H18841404   6.546   1.648   3.574 -3.2272  2.0571 -0.1747
  129MOL   H18941405   6.554   1.547   3.357 -0.8849  0.1283 -0.2612
  129MOL   H19041406   6.719   1.552   3.414 -1.5807 -2.3655  0.0487
  129MOL   H19141407   6.663   1.674   3.298  0.5208  0.3660  0.3997
  129MOL   H19241408   6.761   1.966   3.766  0.6987  0.5660 -0.1926
  129MOL   H19341409   6.798   1.847   3.879  1.9357  0.5069  1.5556
  129MOL   C19441410   6.952   1.994   3.863 -0.4951  0.1711 -0.0846
  129MOL   O19541411   7.004   2.079   3.759 -0.1715  0.0976 -0.8694
  129MOL   C19641412   7.146   2.065   3.756 -0.6190 -0.1350 -0.6173
  129MOL   C19741413   7.193   2.123   3.619 -0.4876  0.1788 -0.7466
  129MOL   C19841414   7.131   2.067   3.494  0.2034 -0.2714 -0.5957
  129MOL   C19941415   6.890   2.090   3.965  0.4101 -0.4078  0.1388
  129MOL   H20041416   7.023   1.928   3.913 -0.7184 -1.3975 -1.7901
  129MOL   H20141417   7.197   2.120   3.835 -0.5645 -0.0396 -0.7182
  129MOL   H20241418   7.174   1.960   3.764  0.1299 -0.0050 -1.4052
  129MOL   H20341419   7.300   2.109   3.617 -0.6720 -1.4599  0.8186
  129MOL   H20441420   7.182   2.232   3.618 -0.0373  0.2995  2.5700
  129MOL   H20541421   7.195   2.085   3.408  0.8437 -2.7134 -0.6797
  129MOL   H20641422   7.028   2.100   3.483  0.1605 -0.1409  0.2020
  129MOL   H20741423   7.129   1.959   3.505 -0.9033 -0.3282 -1.3213
  129MOL   H20841424   6.815   2.154   3.918  0.0285 -1.2569 -0.4134
  129MOL   H20941425   6.835   2.026   4.034 -0.3330  0.7387  0.6335
  129MOL   C21041426   6.983   2.170   4.062  0.4945  0.1497 -0.2396
  129MOL   O21141427   6.900   2.247   4.155  0.0586  0.5065  0.0506
  129MOL   C21241428   6.825   2.350   4.112 -0.6673  0.1484 -0.3271
  129MOL   C21341429   6.778   2.431   4.231  0.8242 -0.0028  0.0101
  129MOL   C21441430   6.885   2.504   4.312  0.4550  0.3949 -0.5613
  129MOL   C21541431   7.069   2.072   4.142 -0.2931  0.6691 -0.2949
  129MOL   H21641432   7.044   2.242   4.006  1.1674 -0.5250 -0.3916
  129MOL   H21741433   6.892   2.414   4.053 -0.5931 -1.1106 -1.6338
  129MOL   H21841434   6.750   2.305   4.047  0.6857 -2.2294 -0.2823
  129MOL   H21941435   6.729   2.361   4.299 -0.0286  0.7096  0.1422
  129MOL   H22041436   6.704   2.498   4.187  1.1315  0.9957  0.9745
  129MOL   H22141437   6.845   2.558   4.398  2.2728 -0.3594  0.8046
  129MOL   H22241438   6.946   2.577   4.258  1.5569 -0.1188 -0.0386
  129MOL   H22341439   6.956   2.431   4.353 -1.3939 -1.2732 -0.2519
  129MOL   H22441440   7.003   2.025   4.215  2.3504 -0.1405  1.6616
  129MOL   H22541441   7.117   1.999   4.077 -1.2568 -0.2636  0.0301
  129MOL   C22641442   7.194   2.138   4.211 -0.1495 -0.4869 -0.1044
  129MOL   O22741443   7.219   2.057   4.327  0.9382 -0.1996 -0.0627
  129MOL   C22841444   7.146   2.099   4.438  0.4774 -0.5025 -0.3340
  129MOL   C22941445   7.196   2.031   4.563 -1.0467  0.8304  0.4058
  129MOL   C23041446   7.154   1.883   4.564 -0.0140  0.1464 -0.4582
  129MOL   C23141447   7.326   2.133   4.131 -0.1298 -0.2752 -0.2985
  129MOL   H23241448   7.171   2.239   4.243  1.5097  0.2220 -1.1010
  129MOL   H23341449   7.139   2.207   4.454  2.4107 -0.4849  0.4524
  129MOL   H23441450   7.041   2.071   4.431  0.1278  0.6782  0.0299
  129MOL   H23541451   7.165   2.087   4.651 -0.8893 -0.0523  1.0210
  129MOL   H23641452   7.305   2.032   4.551 -1.0673  1.9120  0.2099
  129MOL   H23741453   7.181   1.834   4.470  1.5213  0.1641 -0.0403
  129MOL   H23841454   7.047   1.864   4.568  0.2797 -1.4246  0.4278
  129MOL   H23941455   7.211   1.830   4.641 -0.9796 -0.1134  0.0839
  129MOL   H24041456   7.354   2.029   4.117 -3.1510 -1.1958  0.0603
  129MOL   H24141457   7.308   2.173   4.031 -1.7691  1.6212  0.6971
  129MOL   C24241458   7.439   2.212   4.183 -0.9585 -0.8027  0.0186
  129MOL   O24341459   7.549   2.183   4.093  0.0471  0.4243 -0.0748
  129MOL   C24441460   7.622   2.064   4.121  0.4194 -0.2608 -0.3237
  129MOL   C24541461   7.766   2.062   4.057  0.6572 -0.0863 -0.2000
  129MOL   C24641462   0.045   2.144   4.135  0.0308 -0.0438 -0.4475
  129MOL   C24741463   7.422   2.364   4.208  0.8072  0.0758  0.6375
  129MOL   H24841464   7.457   2.165   4.280 -1.7626 -2.4720 -0.6277
  129MOL   H24941465   7.629   2.053   4.230 -2.1588 -0.0935 -0.0899
  129MOL   H25041466   7.563   1.982   4.082  2.0694 -1.6408  0.0603
  129MOL   H25141467   7.771   2.092   3.953  0.4310  0.8580  0.0631
  129MOL   H25241468   7.809   1.961   4.052  1.3125  0.2203 -0.8760
  129MOL   H25341469   0.020   2.249   4.122  0.8548  0.3878  1.4602
  129MOL   H25441470   0.135   2.122   4.078 -0.1923 -1.1484 -0.3833
  129MOL   H25541471   0.080   2.118   4.234 -2.0042  0.4393  0.4194
  129MOL   H25641472   7.402   2.425   4.120  0.5433 -1.1106 -0.1418
  129MOL   H25741473   7.339   2.375   4.277 -0.0876 -1.3735 -0.1755
  129MOL   C25841474   7.544   2.430   4.279  0.3245 -0.2252  0.2269
  129MOL   O25941475   7.502   2.566   4.300 -0.4830  1.1789  0.2387
  129MOL   C26041476   7.581   2.664   4.228  0.4652  0.6304  0.0089
  129MOL   C26141477   7.515   2.796   4.249  0.4699  0.4281  0.3608
  129MOL   C26241478   7.381   2.798   4.181 -0.5766 -0.1839 -0.0810
  129MOL   C26341479   7.574   2.372   4.413  0.4210  0.3245  0.9352
  129MOL   H26441480   7.639   2.425   4.226  0.5782  0.4278  0.6272
  129MOL   H26541481   7.685   2.661   4.258  0.1375 -1.9402  0.9878
  129MOL   H26641482   7.581   2.642   4.121  1.6103 -0.2178  0.1841
  129MOL   H26741483   7.583   2.863   4.197 -0.2112  0.6887 -0.1951
  129MOL   H26841484   7.524   2.818   4.356  1.8194  4.2283 -0.4501
  129MOL   H26941485   7.326   2.722   4.237 -0.3572  0.0419  0.4456
  129MOL   H27041486   7.380   2.786   4.073 -2.2457 -0.1703 -0.0714
  129MOL   H27141487   7.346   2.901   4.184  0.2571  0.2239 -2.7385
  129MOL   H27241488   7.489   2.355   4.479 -1.5585  0.1600 -1.5861
  129MOL   H27341489   7.618   2.274   4.397  1.7145  1.0219  0.1840
  129MOL   C27441490   7.669   2.466   4.494 -0.1186  0.3757 -0.4711
  129MOL   O27541491   7.689   2.389   4.620  0.1847 -0.6055 -0.1621
  129MOL   C27641492   7.634   2.448   4.736  0.5737  0.2311  1.0147
  129MOL   C27741493   7.615   2.339   4.841 -0.3587  0.1082 -0.3045
  129MOL   C27841494   7.750   2.272   4.875  0.4335 -0.2291 -0.1394
  129MOL   C27941495   7.811   2.470   4.441  0.0480 -0.1130 -0.2076
  129MOL   H28041496   7.633   2.568   4.508 -0.9136 -0.1379  1.4273
  129MOL   H28141497   7.691   2.528   4.783  1.5523  0.9646 -1.3617
  129MOL   H28241498   7.535   2.489   4.715  0.7803  0.2681  0.1199
  129MOL   H28341499   7.536   2.272   4.806  0.3972 -0.7421 -0.4129
  129MOL   H28441500   7.585   2.392   4.931 -0.2768 -0.1544 -0.1201
  129MOL   H28541501   7.752   2.239   4.978 -1.1866 -0.1356 -0.0748
  129MOL   H28641502   0.006   2.342   4.874 -1.1603  1.7243 -0.0847
  129MOL   H28741503   7.760   2.185   4.809 -0.6976 -0.7680  0.3965
  129MOL   H28841504   0.018   2.368   4.423  0.3799  0.0779 -0.6650
  129MOL   H28941505   7.809   2.519   4.344 -0.2157 -0.0473 -0.1669
  129MOL   C29041506   0.081   2.545   4.534 -0.3388  0.4135 -0.0885
  129MOL   O29141507   0.217   2.538   4.499  0.0734 -0.0904 -0.2668
  129MOL   C29241508   0.271   2.406   4.487 -0.4090  0.0832  0.4167
  129MOL   C29341509   0.395   2.397   4.574 -1.0638  0.8195  0.0514
  129MOL   C29441510   0.356   2.405   4.730 -0.5198 -0.4202 -0.6160
  129MOL   C29541511   0.048   2.696   4.544 -0.7526 -0.0969  0.2925
  129MOL   H29641512   0.089   2.494   4.630 -2.4101  0.8564  0.3383
  129MOL   H29741513   0.197   2.332   4.517 -1.5473  1.5436  1.2704
  129MOL   H29841514   0.295   2.393   4.381 -0.9631  2.3838 -0.0116
  129MOL   H29941515   0.475   2.463   4.542  0.6979 -0.9902  0.5923
  129MOL   H30041516   0.426   2.293   4.563 -0.3888  0.9700  0.5008
  129MOL   H30141517   0.444   2.383   4.790 -0.0386  2.1398 -0.3334
  129MOL   H30241518   0.272   2.339   4.751 -0.5848 -0.5523 -1.2773
  129MOL   H30341519   0.333   2.511   4.738 -0.2830 -0.2755 -1.6936
  129MOL   H30441520   0.059   2.740   4.445 -1.7482 -0.7123 -0.1024
  129MOL   H30541521   7.771   2.712   4.569 -0.8472  0.0497 -0.1996
  129MOL   C30641522   0.135   2.780   4.651 -0.1029  0.8937 -0.3252
  129MOL   O30741523   0.103   2.919   4.643  0.3000  0.8639  0.1313
  129MOL   C30841524   0.214   2.993   4.591  0.1330  0.0332 -0.3854
  129MOL   C30941525   0.176   3.138   4.604 -0.1779 -0.3298 -0.2725
  129MOL   C31041526   0.174   3.191   4.748  0.0392  0.3119 -0.6983
  129MOL   C31141527   0.102   2.727   4.793  0.0139 -0.3229  0.2759
  129MOL   H31241528   0.242   2.764   4.638  0.0253  1.9705 -0.6176
  129MOL   H31341529   0.309   2.971   4.641  1.1281 -0.2781 -2.3849
  129MOL   H31441530   0.222   2.960   4.488  1.2465  0.9917 -0.6162
  129MOL   H31541531   0.079   3.159   4.559 -0.0447  0.2245 -0.3131
  129MOL   H31641532   0.243   3.204   4.548 -0.2977  0.9475  1.0487
  129MOL   H31741533   0.268   3.173   4.801 -1.0539  1.3213  1.7015
  129MOL   H31841534   0.091   3.150   4.806  0.9581  0.1223  0.5189
  129MOL   H31941535   0.145   3.296   4.758  0.0709  0.4192 -1.6929
  129MOL   H32041536   0.138   2.625   4.805 -2.2562 -0.9954  1.6320
  129MOL   H32141537   0.141   2.790   4.874 -0.1002  1.3136 -0.9270
  129MOL   H32241538   7.823   2.734   4.814  0.1208  2.3151  0.1316
  130MOL     C141539   2.981   3.840   0.543 -0.5042 -0.5941  0.6526
  130MOL     O241540   2.881   3.946   0.551 -0.2001  0.0831  0.0166
  130MOL     C341541   2.836   3.965   0.686 -0.0261 -0.1263 -0.0929
  130MOL     C441542   2.749   4.089   0.679 -0.9704 -0.2896  0.7512
  130MOL     C541543   2.832   4.223   0.678  0.8890  0.1069  0.0263
  130MOL     C641544   2.899   3.715   0.509  0.1298  0.2066  0.0381
  130MOL     H741545   3.042   3.811   0.628  0.0319 -1.1991  0.0623
  130MOL     H841546   2.769   3.882   0.711  0.2530 -0.1942  0.4257
  130MOL     H941547   2.917   3.972   0.757  0.0589 -0.7369 -0.1237
  130MOL    H1041548   2.686   4.082   0.767  0.2790 -0.5709  1.6363
  130MOL    H1141549   2.682   4.078   0.594 -1.8185 -1.9982  1.6107
  130MOL    H1241550   2.757   4.301   0.680  0.0970 -0.6824  1.2118
  130MOL    H1341551   2.886   4.246   0.585  0.2543 -1.1896 -0.6829
  130MOL    H1441552   2.909   4.224   0.755  0.5161 -1.1206  0.4154
  130MOL    H1541553   2.961   3.626   0.500 -0.3122  0.0774 -1.9833
  130MOL    H1641554   2.830   3.696   0.592 -0.0959 -0.8124 -0.3837
  130MOL    H1741555   3.057   3.854   0.467 -1.6716 -0.1172 -0.4411
  130MOL    C1841556   2.822   3.743   0.380  0.3697 -0.0961 -0.9325
  130MOL    O1941557   2.909   3.783   0.278 -0.6833 -0.5101 -0.4137
  130MOL    C2041558   2.878   3.908   0.222  0.4048  0.0592  0.5098
  130MOL    C2141559   2.978   3.937   0.113  0.2345  0.5441  0.0684
  130MOL    C2241560   2.955   3.850   7.811 -0.6874  0.4781 -0.3550
  130MOL    C2341561   2.749   3.627   0.308 -0.1705 -0.6065  0.4261
  130MOL    H2441562   2.752   3.822   0.408 -0.1334 -0.3724 -1.3941
  130MOL    H2541563   2.781   3.906   0.173  0.8015 -0.0754 -0.2820
  130MOL    H2641564   2.869   3.987   0.297  1.5468 -0.2478  0.9833
  130MOL    H2741565   3.078   3.914   0.151 -0.5793 -0.7342  1.5583
  130MOL    H2841566   2.973   4.043   0.090 -0.6722  0.3188 -0.7693
  130MOL    H2941567   2.860   3.887   7.772 -0.1832  1.5727 -0.5592
  130MOL    H3041568   2.952   3.741   7.815 -0.0817  0.4161 -1.3872
  130MOL    H3141569   3.030   3.867   7.734 -0.4567  2.8594  0.3692
  130MOL    H3241570   2.708   3.655   0.211 -1.5718 -0.3063  1.0906
  130MOL    H3341571   2.827   3.556   0.280  0.3421  0.1905 -0.1711
  130MOL    C3441572   2.649   3.553   0.391 -0.4512  0.0177 -0.5062
  130MOL    O3541573   2.525   3.631   0.394  0.0225 -0.2936 -0.2639
  130MOL    C3641574   2.508   3.722   0.499 -0.2901 -0.0034 -0.3773
  130MOL    C3741575   2.368   3.776   0.487  0.5405  0.4828 -0.3846
  130MOL    C3841576   2.337   3.886   0.586 -0.0118 -0.6747 -0.1877
  130MOL    C3941577   2.629   3.407   0.335 -0.1197  0.1273  0.9201
  130MOL    H4041578   2.688   3.532   0.490  0.6645 -1.6280 -1.2620
  130MOL    H4141579   2.514   3.663   0.591  0.1816 -0.2170 -0.5445
  130MOL    H4241580   2.578   3.806   0.499  0.3911 -0.5713 -0.6688
  130MOL    H4341581   2.290   3.700   0.502  0.6612  0.4903  0.2804
  130MOL    H4441582   2.353   3.817   0.387 -0.8412  1.1368  0.0797
  130MOL    H4541583   2.375   3.875   0.688  0.9393 -2.9250 -0.7458
  130MOL    H4641584   2.228   3.891   0.593  0.1044 -1.5951  3.2505
  130MOL    H4741585   2.364   3.988   0.558  3.2290 -2.5633 -4.3834
  130MOL    H4841586   2.601   3.427   0.232  4.0865  0.4852 -0.2440
  130MOL    H4941587   2.724   3.354   0.337 -0.4186 -0.6076 -2.0666
  130MOL    C5041588   2.512   3.327   0.407 -0.6348 -0.9279  0.3911
  130MOL    O5141589   2.495   3.198   0.354 -0.2554  0.1289 -0.3803
  130MOL    C5241590   2.418   3.188   0.238  0.4662  0.4544  0.3734
  130MOL    C5341591   2.407   3.046   0.188  0.3538 -0.1623 -0.0603
  130MOL    C5441592   2.371   2.951   0.302 -0.3928  0.0819  0.2360
  130MOL    C5541593   2.541   3.302   0.555 -0.3342 -0.3440 -0.2085
  130MOL    H5641594   2.426   3.390   0.383  0.8323  0.9612 -0.0047
  130MOL    H5741595   2.317   3.225   0.256  0.7368  0.3419  2.2865
  130MOL    H5841596   2.454   3.267   0.173  0.4013  1.6264  1.7344
  130MOL    H5941597   2.505   3.007   0.162  1.2518  0.0716  2.8626
  130MOL    H6041598   2.340   3.035   0.102 -0.5038 -2.1409  0.8186
  130MOL    H6141599   2.275   2.974   0.348  0.1812  0.6437  1.1962
  130MOL    H6241600   2.444   2.955   0.384 -1.2725 -0.1680  1.0398
  130MOL    H6341601   2.377   2.846   0.274  0.1757 -0.4408  2.2117
  130MOL    H6441602   2.624   3.232   0.560 -0.0231  0.1420  1.9789
  130MOL    H6541603   2.591   3.387   0.603  0.1215 -0.9302  0.3619
  130MOL    C6641604   2.421   3.254   0.634  0.1510  0.2516 -0.2295
  130MOL    O6741605   2.475   3.192   0.749 -0.6788  0.3689  0.5844
  130MOL    C6841606   2.391   3.099   0.813  0.5378 -0.1727 -0.2378
  130MOL    C6941607   2.460   3.043   0.939 -0.2332 -0.3138  0.0437
  130MOL    C7041608   2.481   3.153   1.045  0.3472 -0.8436  0.3640
  130MOL    C7141609   2.326   3.369   0.684  0.2018 -0.3805  0.0907
  130MOL    H7241610   2.363   3.183   0.574  0.6920 -0.7223  0.3794
  130MOL    H7341611   2.299   3.152   0.840  0.0828 -0.0387 -1.9491
  130MOL    H7441612   2.370   3.014   0.749  1.1323 -1.1504  0.8448
  130MOL    H7541613   2.556   2.994   0.922 -0.8674 -0.7416 -2.5025
  130MOL    H7641614   2.389   2.974   0.982 -0.5616 -1.8821 -2.8740
  130MOL    H7741615   2.503   3.121   1.147 -0.3775  0.9272  1.1042
  130MOL    H7841616   2.390   3.214   1.047  1.7887  1.3843  0.0492
  130MOL    H7941617   2.554   3.231   1.021  0.5530 -1.8428 -2.4571
  130MOL    H8041618   2.289   3.361   0.786 -1.0885 -0.7721 -0.4000
  130MOL    H8141619   2.387   3.459   0.681  0.2569 -0.4712 -2.4497
  130MOL    C8241620   2.198   3.384   0.610 -0.3356 -0.2462 -0.0403
  130MOL    O8341621   2.126   3.266   0.640  0.3127 -0.5152 -0.5452
  130MOL    C8441622   2.051   3.219   0.524  0.4590  0.1400  0.5822
  130MOL    C8541623   1.969   3.101   0.563  0.3804  0.3970  0.1676
  130MOL    C8641624   2.060   2.979   0.596 -0.1200  0.2137 -0.5299
  130MOL    C8741625   2.106   3.505   0.644  0.3964 -0.7853  0.1110
  130MOL    H8841626   2.233   3.391   0.507  1.6962  2.3884  0.7827
  130MOL    H8941627   1.986   3.300   0.493 -1.7989 -0.8742  2.4938
  130MOL    H9041628   2.113   3.197   0.437 -1.9572 -0.4810 -1.0191
  130MOL    H9141629   1.892   3.083   0.488 -0.5640 -1.8289  1.5912
  130MOL    H9241630   1.915   3.127   0.654  1.1498  0.6854  0.5499
  130MOL    H9341631   2.112   2.953   0.504 -2.0983 -3.6561 -0.6723
  130MOL    H9441632   2.004   2.892   0.632  1.7410 -0.3685  1.0604
  130MOL    H9541633   2.125   3.000   0.681 -0.1434 -1.1897 -0.1380
  130MOL    H9641634   2.147   3.597   0.601  1.4531 -1.3173 -0.0488
  130MOL    H9741635   2.018   3.516   0.581  1.4113 -2.8220 -1.7360
  130MOL    C9841636   2.068   3.530   0.797  0.4482 -0.3090  0.7631
  130MOL    O9941637   2.039   3.667   0.811  0.3783  0.0976  0.1277
  130MOL   C10041638   2.114   3.732   0.915  0.0772  0.9115 -0.3563
  130MOL   C10141639   2.043   3.870   0.924 -0.4005  0.2133  0.3969
  130MOL   C10241640   1.901   3.864   0.975  0.0408 -0.1269  0.0072
  130MOL   C10341641   1.940   3.460   0.846 -0.2299  0.3760 -0.3708
  130MOL   H10441642   2.157   3.514   0.858  1.8120  2.4297 -0.4191
  130MOL   H10541643   2.116   3.671   1.005  0.9766 -0.5922 -1.3676
  130MOL   H10641644   2.215   3.742   0.876 -0.6112 -1.0012 -2.8084
  130MOL   H10741645   2.036   3.934   0.836 -2.2559 -0.4914  0.0194
  130MOL   H10841646   2.090   3.931   1.001  0.7444  3.0907 -2.4425
  130MOL   H10941647   1.864   3.771   1.019  4.0029 -1.9646 -0.3316
  130MOL   H11041648   1.836   3.868   0.887 -1.6399  2.5585  1.3061
  130MOL   H11141649   1.869   3.942   1.044  0.0833  0.3326 -0.4854
  130MOL   H11241650   1.860   3.527   0.814  0.9080  1.6687 -0.5484
  130MOL   H11341651   1.908   3.376   0.784  0.1557 -0.4693  0.5612
  130MOL   C11441652   1.916   3.432   0.995  0.5109 -0.0741 -0.2836
  130MOL   O11541653   1.774   3.435   1.021  0.3236 -0.1034  0.0012
  130MOL   C11641654   1.702   3.316   0.986 -0.1112 -0.8370 -0.0529
  130MOL   C11741655   1.556   3.348   1.007  0.6144  0.4327  0.3247
  130MOL   C11841656   1.511   3.477   0.938  0.7454  0.7328  0.8041
  130MOL   C11941657   1.992   3.304   1.040  0.2864  0.3496  0.3448
  130MOL   H12041658   1.960   3.513   1.054 -3.0262  0.8956  1.1140
  130MOL   H12141659   1.717   3.291   0.881 -1.0352 -3.0371  0.3248
  130MOL   H12241660   1.737   3.231   1.044  0.6544 -0.6808 -0.2808
  130MOL   H12341661   1.536   3.345   1.114 -1.0699 -0.8323 -0.0055
  130MOL   H12441662   1.495   3.265   0.971  1.9531 -0.0230 -0.9738
  130MOL   H12541663   1.579   3.556   0.972  1.8256  0.2100 -0.0862
  130MOL   H12641664   1.416   3.517   0.972  0.5689  0.7666  0.2687
  130MOL   H12741665   1.508   3.469   0.830  1.5541 -2.3503  0.9649
  130MOL   H12841666   1.967   3.211   0.990  3.9386 -1.0469  0.9791
  130MOL   H12941667   2.094   3.320   1.003 -0.0111 -0.3898 -0.8246
  130MOL   C13041668   2.014   3.289   1.186  0.7707  0.2304 -0.3246
  130MOL   O13141669   1.933   3.187   1.248 -0.1382  0.0134 -0.1474
  130MOL   C13241670   1.867   3.235   1.361  0.2918  0.1037 -0.5977
  130MOL   C13341671   1.801   3.112   1.430  0.1818 -0.0716  0.1056
  130MOL   C13441672   1.685   3.049   1.351  0.0242  0.5320 -0.0810
  130MOL   C13541673   2.161   3.249   1.225  0.3608  0.3162 -0.2421
  130MOL   H13641674   1.996   3.389   1.226  2.6784  0.4980 -0.0692
  130MOL   H13741675   1.935   3.281   1.432  1.8520  0.0636 -2.0482
  130MOL   H13841676   1.796   3.313   1.334  0.3913 -0.3826 -2.3236
  130MOL   H13941677   1.762   3.125   1.531  0.2364  0.3670  0.0705
  130MOL   H14041678   1.881   3.039   1.444  3.0757  2.4797 -2.2361
  130MOL   H14141679   1.643   2.963   1.403 -1.7924  0.7971 -1.0685
  130MOL   H14241680   1.721   3.018   1.252 -1.6093  0.2178 -0.5830
  130MOL   H14341681   1.609   3.123   1.327 -0.6101  0.5158  1.8409
  130MOL   H14441682   2.152   3.178   1.307  0.4609 -0.6312 -1.0396
  130MOL   H14541683   2.212   3.194   1.146 -0.1734 -1.9934  0.9657
  130MOL   C14641684   2.240   3.371   1.286 -0.8044 -0.6414 -0.4782
  130MOL   O14741685   2.360   3.320   1.344 -0.1251  0.1040  0.2612
  130MOL   C14841686   2.348   3.274   1.478 -0.5403  0.1190  0.3344
  130MOL   C14941687   2.481   3.220   1.533 -0.2689 -0.0951  0.2934
  130MOL   C15041688   2.594   3.316   1.510 -0.0536 -1.1922 -0.2831
  130MOL   C15141689   2.277   3.480   1.174 -0.8657  0.5470  0.4919
  130MOL   H15241690   2.179   3.425   1.358 -2.5209 -0.6739 -1.8632
  130MOL   H15341691   2.309   3.359   1.533 -0.3729  0.9372 -0.7928
  130MOL   H15441692   2.285   3.185   1.488 -1.3720  0.7273  0.5369
  130MOL   H15541693   2.510   3.117   1.512  1.6176  0.3476  0.6681
  130MOL   H15641694   2.475   3.217   1.642 -1.3307  0.0269  0.2505
  130MOL   H15741695   2.694   3.279   1.531  0.6661  0.1070 -1.3649
  130MOL   H15841696   2.574   3.414   1.553  1.8809 -0.5864 -0.7092
  130MOL   H15941697   2.592   3.338   1.403 -1.0486 -0.1034 -0.0544
  130MOL   H16041698   2.308   3.413   1.093  0.6103  0.4695  1.1028
  130MOL   H16141699   2.187   3.521   1.130 -2.7007 -1.3740  2.3614
  130MOL   C16241700   2.394   3.578   1.202 -0.0764  0.0390  0.1353
  130MOL   O16341701   2.413   3.646   1.073  0.8585  0.1628  0.0515
  130MOL   C16441702   2.511   3.579   0.997  0.2320  0.2318 -0.7655
  130MOL   C16541703   2.513   3.665   0.872 -0.0125  0.3154  0.5336
  130MOL   C16641704   2.573   3.806   0.896  0.1758 -0.0941  0.5853
  130MOL   C16741705   2.368   3.693   1.306  0.2307 -0.8581 -0.3392
  130MOL   H16841706   2.485   3.527   1.232  0.8987  0.4437 -2.0519
  130MOL   H16941707   2.609   3.577   1.045  1.0080 -1.1492 -2.3688
  130MOL   H17041708   2.485   3.476   0.976  0.7027  0.0785 -0.6046
  130MOL   H17141709   2.419   3.669   0.817  0.8350  3.6089 -0.7700
  130MOL   H17241710   2.581   3.605   0.812  0.1551  2.2693 -1.2940
  130MOL   H17341711   2.519   3.861   0.973  1.1609  0.7904  0.6522
  130MOL   H17441712   2.569   3.872   0.809 -1.5244 -0.6158  0.2484
  130MOL   H17541713   2.680   3.811   0.914  0.6993 -1.1487 -1.9938
  130MOL   H17641714   2.387   3.661   1.409 -0.9433  1.8525  0.7705
  130MOL   H17741715   2.447   3.765   1.286  1.4531 -1.9084  0.6100
  130MOL   C17841716   2.232   3.759   1.298  0.4396  0.6147 -0.1044
  130MOL   O17941717   2.143   3.679   1.379 -0.4947  0.1018 -0.2924
  130MOL   C18041718   2.010   3.698   1.348 -0.5706 -0.4066  0.3275
  130MOL   C18141719   1.917   3.613   1.431  0.4784  0.4752 -0.0249
  130MOL   C18241720   1.909   3.660   1.576  0.8580 -0.4490 -0.4597
  130MOL   C18341721   2.240   3.894   1.374  0.0381  0.1404  0.0055
  130MOL   H18441722   2.204   3.768   1.193 -0.3322  2.0767  0.2038
  130MOL   H18541723   1.980   3.803   1.348  0.0583 -0.2117  1.5189
  130MOL   H18641724   2.005   3.675   1.242  1.3938  1.1006 -0.1223
  130MOL   H18741725   1.930   3.505   1.420  0.5681  0.7350 -2.5811
  130MOL   H18841726   1.824   3.640   1.381 -0.6043 -1.1253  1.0781
  130MOL   H18941727   2.001   3.621   1.619  0.2840 -2.8414 -1.3236
  130MOL   H19041728   1.830   3.598   1.618  0.1178 -0.2143 -1.4785
  130MOL   H19141729   1.903   3.767   1.592  1.5814 -0.0679 -2.5047
  130MOL   H19241730   2.150   3.953   1.389 -1.3546 -1.6948 -0.9013
  130MOL   H19341731   2.275   3.878   1.476  2.5047  0.4504 -0.7436
  130MOL   C19441732   2.338   4.000   1.317 -0.6625  0.3261  0.1669
  130MOL   O19541733   2.262   4.128   1.318 -0.3618 -0.1629  0.1708
  130MOL   C19641734   2.323   4.223   1.234 -0.1110 -0.6947 -0.6191
  130MOL   C19741735   2.215   4.333   1.217 -0.2635 -0.4254  0.9073
  130MOL   C19841736   2.261   4.452   1.127  0.4169  0.1548  0.0933
  130MOL   C19941737   2.468   4.004   1.404  0.3439  0.8642 -0.4178
  130MOL   H20041738   2.363   3.968   1.215  0.3663  1.1535  0.1593
  130MOL   H20141739   2.409   4.270   1.281 -0.8610  0.4383 -0.3717
  130MOL   H20241740   2.341   4.189   1.131  0.1032 -0.3032 -0.7106
  130MOL   H20341741   2.176   4.361   1.315 -1.2708 -1.5466  0.8462
  130MOL   H20441742   2.125   4.289   1.174 -0.7038  0.7545  0.6083
  130MOL   H20541743   2.354   4.503   1.154 -0.0871 -0.1635  2.6335
  130MOL   H20641744   2.183   4.527   1.130  0.0955 -0.1111 -1.4271
  130MOL   H20741745   2.270   4.402   1.031  1.8113 -0.7749  0.6953
  130MOL   H20841746   2.474   4.101   1.454  1.5486  0.6858 -0.1936
  130MOL   H20941747   2.472   3.933   1.487  0.1771 -0.0290 -1.1696
  130MOL   C21041748   2.607   3.996   1.322  0.3473 -0.4807 -0.4789
  130MOL   O21141749   2.612   4.123   1.258  0.5704  0.4614  0.1386
  130MOL   C21241750   2.672   4.134   1.124 -0.3592 -0.1952 -0.1289
  130MOL   C21341751   2.741   4.269   1.106  0.3601 -0.5690  0.3680
  130MOL   C21441752   2.879   4.262   1.163  0.3169  0.4948 -0.1690
  130MOL   C21541753   2.736   3.978   1.405  0.7412 -0.4347 -0.1317
  130MOL   H21641754   2.602   3.911   1.254 -1.1700 -0.6752 -0.1180
  130MOL   H21741755   2.746   4.056   1.107  1.7889  1.5771  1.0087
  130MOL   H21841756   2.592   4.132   1.049  1.9131 -0.0220 -2.6559
  130MOL   H21941757   2.690   4.356   1.147  0.9640  0.2821 -0.6750
  130MOL   H22041758   2.746   4.292   1.000 -1.4156 -0.1915  0.3445
  130MOL   H22141759   2.925   4.164   1.151  0.0669  0.1008  1.7763
  130MOL   H22241760   2.878   4.282   1.271  0.4176 -0.0747 -0.0627
  130MOL   H22341761   2.950   4.333   1.121  0.4720  0.5510  0.1909
  130MOL   H22441762   2.818   3.996   1.336 -0.4030 -2.0938 -1.9679
  130MOL   H22541763   2.727   4.061   1.476  0.2106 -1.4985  1.0605
  130MOL   C22641764   2.751   3.842   1.479 -0.7523  0.3872 -0.2120
  130MOL   O22741765   2.759   3.750   1.368  0.0973 -0.2287 -0.7724
  130MOL   C22841766   2.733   3.610   1.382  0.7070  0.0426 -0.0548
  130MOL   C22941767   2.804   3.538   1.271  0.0290  0.8831  0.7764
  130MOL   C23041768   2.958   3.546   1.290 -0.5011 -0.2063  0.0075
  130MOL   C23141769   2.868   3.816   1.579  0.3823  0.4109  0.2996
  130MOL   H23241770   2.661   3.818   1.538  0.5196 -1.3030  1.0934
  130MOL   H23341771   2.760   3.573   1.481  0.0096 -1.6109 -0.4512
  130MOL   H23441772   2.625   3.596   1.382  0.7966 -0.8922  2.4038
  130MOL   H23541773   2.767   3.569   1.173  3.7906  0.2675 -0.9486
  130MOL   H23641774   2.767   3.437   1.285 -2.9632  1.9460  0.8874
  130MOL   H23741775   3.019   3.502   1.210  2.1352  1.2635  1.1350
  130MOL   H23841776   2.985   3.477   1.370 -0.7035 -0.1402  0.1306
  130MOL   H23941777   3.000   3.641   1.324  0.6274 -0.5128 -0.4926
  130MOL   H24041778   2.874   3.713   1.614 -0.0223  1.0170  2.2657
  130MOL   H24141779   2.952   3.825   1.511  0.8108  1.0292  0.9079
  130MOL   C24241780   2.888   3.916   1.692  0.3453  0.0101  0.6908
  130MOL   O24341781   2.778   3.931   1.787  0.0441  0.0597 -0.1105
  130MOL   C24441782   2.689   4.040   1.772 -0.3298 -0.5871  0.1816
  130MOL   C24541783   2.582   4.034   1.876  0.4427 -0.2595 -0.2934
  130MOL   C24641784   2.485   4.153   1.882 -0.0032  0.5895 -0.0031
  130MOL   C24741785   3.018   3.868   1.777 -0.4132  0.8752 -0.6989
  130MOL   H24841786   2.907   4.017   1.656  2.0339 -0.0714  1.3315
  130MOL   H24941787   2.740   4.136   1.771  0.6880 -1.1180 -1.5899
  130MOL   H25041788   2.638   4.028   1.676 -0.3865 -0.7028  0.2255
  130MOL   H25141789   2.624   4.013   1.975 -0.9578 -2.5720 -0.1530
  130MOL   H25241790   2.515   3.949   1.862 -0.0205  0.0185  0.1987
  130MOL   H25341791   2.424   4.138   1.792  0.6782  3.6655 -1.0254
  130MOL   H25441792   2.518   4.256   1.882  0.0939  0.5566  0.6845
  130MOL   H25541793   2.421   4.149   1.970  1.5095 -0.3436  1.0731
  130MOL   H25641794   3.005   3.902   1.880 -0.2852  2.1121 -1.0770
  130MOL   H25741795   3.025   3.760   1.784  0.8639  1.0831  1.8859
  130MOL   C25841796   3.160   3.916   1.724  0.3834  0.2778  0.7397
  130MOL   O25941797   3.181   3.843   1.599  0.4511  0.0413 -0.3922
  130MOL   C26041798   3.303   3.859   1.539  0.1265  0.2881  0.0520
  130MOL   C26141799   3.300   3.762   1.428 -0.8092 -0.1687 -0.1137
  130MOL   C26241800   3.306   3.611   1.472 -0.7665 -0.4228  0.2183
  130MOL   C26341801   3.169   4.070   1.706  0.6778  0.0662  0.0444
  130MOL   H26441802   3.243   3.890   1.790  0.6169 -1.6099 -0.2678
  130MOL   H26541803   3.326   3.953   1.489 -0.3708  0.8663  0.8856
  130MOL   H26641804   3.381   3.842   1.614 -0.1339  1.0238  0.5006
  130MOL   H26741805   3.392   3.787   1.374  0.4198  0.4382  2.2117
  130MOL   H26841806   3.220   3.792   1.361  0.2317  1.2688 -0.7423
  130MOL   H26941807   3.281   3.543   1.391  2.2610 -2.4860  0.9646
  130MOL   H27041808   3.237   3.602   1.556  0.4709 -1.3614  1.1539
  130MOL   H27141809   3.403   3.571   1.501 -1.0661 -0.4383  1.1940
  130MOL   H27241810   3.261   4.109   1.661 -0.4826  1.4697 -1.1840
  130MOL   H27341811   3.103   4.104   1.625 -1.4481 -0.9784  1.2985
  130MOL   C27441812   3.153   4.156   1.834  0.3026  0.6299  0.7681
  130MOL   O27541813   3.202   4.288   1.818 -0.0865  0.2276 -0.0959
  130MOL   C27641814   3.344   4.299   1.821  0.6227  0.3001  0.3765
  130MOL   C27741815   3.383   4.443   1.861 -0.7117 -0.1011 -0.4059
  130MOL   C27841816   3.340   4.548   1.765 -0.1402  0.2979  0.1260
  130MOL   C27941817   3.011   4.198   1.869  0.4478 -0.2232 -0.6314
  130MOL   H28041818   3.198   4.110   1.921  1.4075  0.4811  0.1268
  130MOL   H28141819   3.377   4.238   1.905  0.0127 -0.9028 -0.2476
  130MOL   H28241820   3.395   4.275   1.728  1.4156  1.7593  0.4214
  130MOL   H28341821   3.486   4.475   1.880 -0.3667 -0.2331 -2.0348
  130MOL   H28441822   3.338   4.461   1.959 -0.3701  0.2074 -0.2996
  130MOL   H28541823   3.245   4.509   1.727  0.4194 -2.8053  1.8015
  130MOL   H28641824   3.417   4.545   1.688  2.4646 -2.1502  2.7328
  130MOL   H28741825   3.324   4.647   1.808 -3.3879 -1.2430  2.7505
  130MOL   H28841826   2.960   4.253   1.790 -3.1513 -1.4048  0.7618
  130MOL   H28941827   2.958   4.106   1.894  2.0867 -0.8827  0.4981
  130MOL   C29041828   2.994   4.300   1.985 -0.4222  0.4630 -0.2192
  130MOL   O29141829   2.852   4.334   1.981 -0.1896  0.5895 -0.3496
  130MOL   C29241830   2.820   4.437   2.066  0.0114 -0.1121  0.6025
  130MOL   C29341831   2.671   4.471   2.052  0.4642  0.2134 -0.3126
  130MOL   C29441832   2.629   4.584   2.146 -0.0780  0.6299 -0.5272
  130MOL   C29541833   3.052   4.256   2.120  0.5916 -0.7488  0.0902
  130MOL   H29641834   3.055   4.388   1.962 -1.0871  1.3550  1.4121
  130MOL   H29741835   2.841   4.414   2.170  2.6970 -0.2199  0.0757
  130MOL   H29841836   2.882   4.522   2.040 -1.0374  0.4911  0.0441
  130MOL   H29941837   2.601   4.392   2.081  1.3134  0.4685  2.6588
  130MOL   H30041838   2.651   4.505   1.951  0.4985 -2.6582 -1.3321
  130MOL   H30141839   2.546   4.629   2.091 -0.6587 -1.2102 -1.1851
  130MOL   H30241840   2.703   4.662   2.163  2.7062 -2.3164  1.2838
  130MOL   H30341841   2.598   4.528   2.235 -1.2805  0.9152 -0.7577
  130MOL   H30441842   3.159   4.251   2.103  0.8734 -0.6915  1.7419
  130MOL   H30541843   3.035   4.337   2.192  2.3468 -0.3464  0.0567
  130MOL   C30641844   3.003   4.120   2.176  0.3241 -0.3608 -0.4356
  130MOL   O30741845   3.080   4.086   2.290 -0.2793  0.0065 -0.3549
  130MOL   C30841846   3.184   3.994   2.271  1.5426  0.2482  0.3240
  130MOL   C30941847   3.234   3.959   2.414 -0.2651 -0.0720 -0.4188
  130MOL   C31041848   3.128   3.878   2.494 -0.4480 -0.2573 -0.2815
  130MOL   C31141849   2.864   4.117   2.246 -0.0788  0.5867 -1.0180
  130MOL   H31241850   2.999   4.041   2.101 -1.1919 -0.2929 -0.4395
  130MOL   H31341851   3.167   3.911   2.202 -0.5145 -0.9188  2.1580
  130MOL   H31441852   3.260   4.052   2.220  2.4302  0.1860  1.5694
  130MOL   H31541853   3.270   4.041   2.476 -0.7311 -0.2980  0.1559
  130MOL   H31641854   3.322   3.896   2.400  0.2523  0.9584 -1.8926
  130MOL   H31741855   3.161   3.834   2.588 -0.7139 -0.0661 -0.0960
  130MOL   H31841856   3.102   3.787   2.441  0.0171 -0.0415 -0.8878
  130MOL   H31941857   3.034   3.933   2.504  0.7656  1.8007  0.1911
  130MOL   H32041858   2.836   4.013   2.265  1.9548 -0.2979 -2.5719
  130MOL   H32141859   2.861   4.171   2.340 -1.7522  1.1948 -1.4078
  130MOL   H32241860   2.784   4.156   2.184  1.1843  2.0849 -1.7440
  131MOL     C141861   3.731   4.665   0.749 -0.2666 -0.2685  0.3613
  131MOL     O241862   3.828   4.670   0.642 -0.0815  0.0889 -0.1143
  131MOL     C341863   3.960   4.714   0.691  0.7035  0.8261  0.2962
  131MOL     C441864   4.055   4.663   0.586  0.0979 -0.3985 -0.2884
  131MOL     C541865   4.026   4.742   0.456  0.7437 -0.3422  0.6200
  131MOL     C641866   3.720   4.808   0.807  0.1473  0.6181 -0.0892
  131MOL     H741867   3.748   4.583   0.818 -0.8876 -2.6837 -2.2487
  131MOL     H841868   3.974   4.821   0.699  0.6172  0.9594 -1.1714
  131MOL     H941869   3.969   4.662   0.787 -1.4371  1.6331  0.9751
  131MOL    H1041870   4.039   4.557   0.570 -2.5287 -0.0762  0.0811
  131MOL    H1141871   4.161   4.685   0.600 -0.5868  1.7633  1.7521
  131MOL    H1241872   3.927   4.722   0.416  1.5738  0.4241 -1.9098
  131MOL    H1341873   4.095   4.714   0.376  0.2953 -0.4966  0.2907
  131MOL    H1441874   4.028   4.849   0.475 -1.0474 -0.2917  0.5640
  131MOL    H1541875   3.805   4.853   0.858  2.6180 -1.1897 -2.5150
  131MOL    H1641876   3.695   4.869   0.721  0.5160 -0.1674 -0.7629
  131MOL    H1741877   3.632   4.647   0.707 -1.4528  1.3525  2.3789
  131MOL    C1841878   3.609   4.821   0.910  0.0788 -0.8475  0.0388
  131MOL    O1941879   3.665   4.770   1.033 -0.0442 -0.0522  0.0271
  131MOL    C2041880   3.595   4.690   1.118 -0.0945  0.7139  0.4259
  131MOL    C2141881   3.700   4.614   1.194  0.6369 -0.1326 -0.5670
  131MOL    C2241882   3.785   4.518   1.114  0.1436  0.1826  0.0001
  131MOL    C2341883   3.564   4.966   0.933 -0.2688 -0.6362 -0.4041
  131MOL    H2441884   3.514   4.781   0.876  0.1227 -0.8688 -0.0609
  131MOL    H2541885   3.529   4.755   1.175 -3.5409 -0.7901 -1.6562
  131MOL    H2641886   3.534   4.622   1.059  0.3168  0.3664  0.3976
  131MOL    H2741887   3.652   4.560   1.276 -1.5154  2.3771 -0.1216
  131MOL    H2841888   3.763   4.688   1.243  0.0274  0.6151 -0.8976
  131MOL    H2941889   3.727   4.442   1.061  2.1506  0.5318 -2.8081
  131MOL    H3041890   3.862   4.480   1.180  1.1510  0.8062 -0.7986
  131MOL    H3141891   3.834   4.568   1.030  1.1250  2.0552  1.6555
  131MOL    H3241892   3.655   5.010   0.973  0.1321 -1.8951  0.1205
  131MOL    H3341893   3.556   5.010   0.834 -0.7720 -1.2332 -0.6370
  131MOL    C3441894   3.444   4.994   1.018  0.4079  0.1608 -0.0929
  131MOL    O3541895   3.433   5.137   1.024 -0.1381  0.3375  0.2737
  131MOL    C3641896   3.498   5.204   1.125 -0.1522  0.1176 -0.4221
  131MOL    C3741897   3.539   5.350   1.081 -0.6751  0.1887 -0.5067
  131MOL    C3841898   3.656   5.335   0.974  0.0587 -0.0764 -0.3751
  131MOL    C3941899   3.301   4.965   0.981 -0.4592 -0.5476 -0.3389
  131MOL    H4041900   3.471   4.958   1.118  1.3038  0.2901 -0.2897
  131MOL    H4141901   3.438   5.203   1.215  0.0517 -0.9143 -0.2973
  131MOL    H4241902   3.594   5.159   1.151 -0.6879 -0.8108 -0.0516
  131MOL    H4341903   3.565   5.416   1.164 -2.6121  1.9801 -1.2844
  131MOL    H4441904   3.467   5.410   1.025 -1.0236 -0.9197 -1.2749
  131MOL    H4541905   3.687   5.438   0.957 -1.1270 -0.3599 -5.2936
  131MOL    H4641906   3.624   5.295   0.878 -1.0189 -1.1879  0.4358
  131MOL    H4741907   3.748   5.286   1.005  0.1701 -0.7358 -1.6919
  131MOL    H4841908   3.274   4.864   1.011 -2.6448 -0.1804 -0.9920
  131MOL    H4941909   3.244   5.025   1.052 -0.5974 -0.6151 -0.3929
  131MOL    C5041910   3.258   4.999   0.842 -0.2593 -0.0243  0.1277
  131MOL    O5141911   3.319   4.891   0.769 -0.2218 -1.1226 -0.1111
  131MOL    C5241912   3.312   4.917   0.633 -0.2906  0.5350 -0.0776
  131MOL    C5341913   3.397   4.800   0.569 -0.7639 -0.3257  0.2720
  131MOL    C5441914   3.322   4.669   0.568 -0.1942 -0.2504 -0.3519
  131MOL    C5541915   3.100   4.994   0.826 -0.4243  0.2872  1.2308
  131MOL    H5641916   3.290   5.101   0.818 -1.0911 -0.1439 -1.5138
  131MOL    H5741917   3.216   4.910   0.583  0.1880 -1.3306 -0.7706
  131MOL    H5841918   3.349   5.016   0.610  0.4086  0.1886 -0.4423
  131MOL    H5941919   3.498   4.797   0.610 -0.3880  1.7807 -0.4400
  131MOL    H6041920   3.419   4.838   0.470  3.0762  2.6568  2.1634
  131MOL    H6141921   3.387   4.585   0.543 -1.5684 -1.8161  1.1808
  131MOL    H6241922   3.242   4.686   0.495  0.3020  0.0244 -0.8409
  131MOL    H6341923   3.278   4.654   0.666 -0.0221  2.9728  0.2932
  131MOL    H6441924   3.071   4.928   0.745  1.9250  1.2745 -0.4807
  131MOL    H6541925   3.061   4.957   0.921 -1.9419  0.1075  0.5404
  131MOL    C6641926   3.034   5.126   0.795  0.0412 -0.1155  0.7437
  131MOL    O6741927   3.069   5.156   0.663 -0.3718 -0.1719  0.2205
  131MOL    C6841928   3.029   5.286   0.619 -0.4146 -0.3736 -0.1497
  131MOL    C6941929   3.127   5.326   0.510 -0.3492  0.0419 -0.3850
  131MOL    C7041930   3.261   5.356   0.566 -0.0446  0.1412 -0.1979
  131MOL    C7141931   2.882   5.116   0.813 -0.2126  0.5905  0.0447
  131MOL    H7241932   3.061   5.200   0.870  1.6344  0.3086 -0.2173
  131MOL    H7341933   2.935   5.278   0.565 -1.3178  0.9082  1.1949
  131MOL    H7441934   3.019   5.354   0.703  1.4079  0.1987 -0.3768
  131MOL    H7541935   3.082   5.413   0.463  0.3097 -0.2934 -1.6647
  131MOL    H7641936   3.142   5.250   0.433  0.2903 -0.6818  0.4477
  131MOL    H7741937   3.308   5.420   0.492  3.7296 -1.5865  0.5870
  131MOL    H7841938   3.321   5.266   0.579 -0.2492  0.0737  0.3174
  131MOL    H7941939   3.254   5.403   0.665  0.3225  0.0448 -0.1271
  131MOL    H8041940   2.866   5.093   0.919 -0.4443  0.0124 -0.1136
  131MOL    H8141941   2.833   5.212   0.800 -3.1928 -0.4920  2.6700
  131MOL    C8241942   2.804   5.004   0.738  0.1844  0.1425 -0.3714
  131MOL    O8341943   2.840   4.867   0.780 -0.2220 -0.0573  0.0511
  131MOL    C8441944   2.789   4.762   0.694  0.4562 -0.2514 -0.4849
  131MOL    C8541945   2.861   4.636   0.715  0.2718  0.7737  0.3626
  131MOL    C8641946   3.009   4.644   0.667  0.0821  0.4872 -0.2723
  131MOL    C8741947   2.654   5.037   0.740 -0.0276  0.2743 -0.5280
  131MOL    H8841948   2.832   5.013   0.633  1.8593 -1.5889 -0.0926
  131MOL    H8941949   2.682   4.742   0.699  0.0008  2.0175 -0.6197
  131MOL    H9041950   2.806   4.783   0.589  3.9394 -0.4345 -0.0201
  131MOL    H9141951   2.809   4.552   0.669 -0.5567  2.3458 -1.6493
  131MOL    H9241952   2.854   4.606   0.820  0.8418  0.0378  0.1977
  131MOL    H9341953   3.060   4.712   0.735 -0.2018 -0.5581  1.0078
  131MOL    H9441954   3.001   4.675   0.563 -1.2267 -0.6847 -0.5472
  131MOL    H9541955   3.056   4.546   0.675 -2.2555 -0.7219 -0.7811
  131MOL    H9641956   2.601   4.946   0.713 -1.5469  0.8037  0.5673
  131MOL    H9741957   2.630   5.067   0.842 -1.1534 -0.9560 -0.4171
  131MOL    C9841958   2.612   5.150   0.641  0.9712  0.4644 -0.7076
  131MOL    O9941959   2.614   5.101   0.515  0.2694  0.0666  0.0968
  131MOL   C10041960   2.643   5.204   0.416 -0.1342  0.9948  0.1661
  131MOL   C10141961   2.648   5.134   0.283  0.2829 -0.1337 -0.5705
  131MOL   C10241962   2.762   5.028   0.278  0.3183  0.4942 -0.5223
  131MOL   C10341963   2.462   5.188   0.665  0.0839 -0.1226 -0.7443
  131MOL   H10441964   2.680   5.229   0.671 -1.6247  2.4377  0.2354
  131MOL   H10541965   2.565   5.280   0.424 -1.1852 -0.2238  1.6930
  131MOL   H10641966   2.744   5.235   0.442 -0.1018 -0.3662  1.7119
  131MOL   H10741967   2.666   5.210   0.207  0.2074 -1.5312 -2.0105
  131MOL   H10841968   2.547   5.101   0.260  0.0625  0.1244  0.0244
  131MOL   H10941969   2.860   5.073   0.263  0.2901  0.9417  0.5514
  131MOL   H11041970   2.732   4.962   0.196  2.7533 -1.3143 -0.0063
  131MOL   H11141971   2.762   4.973   0.372  1.2312  1.1448 -0.1402
  131MOL   H11241972   2.424   5.220   0.568  3.3124  1.4370 -1.5843
  131MOL   H11341973   2.405   5.099   0.692 -0.3867  0.2157 -0.6237
  131MOL   C11441974   2.445   5.294   0.774 -0.5468  0.1909 -0.2500
  131MOL   O11541975   2.508   5.404   0.717 -0.6717  0.1888 -0.0448
  131MOL   C11641976   2.555   5.508   0.800 -0.5046 -1.6473 -0.4255
  131MOL   C11741977   2.697   5.481   0.848 -1.0827  0.7989 -0.5075
  131MOL   C11841978   2.810   5.524   0.749  0.0630  0.4224 -0.6721
  131MOL   C11941979   2.308   5.327   0.818 -0.5050 -0.1536 -0.0713
  131MOL   H12041980   2.502   5.256   0.859  0.4927  0.2673 -0.8951
  131MOL   H12141981   2.562   5.600   0.741 -2.5037  0.2282  2.1592
  131MOL   H12241982   2.484   5.536   0.877  2.2230 -2.2663  2.4211
  131MOL   H12341983   2.700   5.387   0.902  3.1518 -0.5284 -2.8475
  131MOL   H12441984   2.717   5.552   0.928 -0.0500  0.6222 -0.6070
  131MOL   H12541985   2.908   5.525   0.797  0.0683 -0.8527 -0.6438
  131MOL   H12641986   2.790   5.627   0.719 -0.7323 -0.1156 -2.0222
  131MOL   H12741987   2.821   5.467   0.657 -0.5127 -1.8817  0.6450
  131MOL   H12841988   2.297   5.429   0.783 -0.1701 -0.2559 -0.4847
  131MOL   H12941989   2.240   5.264   0.761 -1.2383 -1.1155  1.8164
  131MOL   C13041990   2.263   5.323   0.971  0.4424  0.2639  0.8373
  131MOL   O13141991   2.139   5.388   0.974 -0.1644  0.4119 -0.1045
  131MOL   C13241992   2.156   5.515   1.030  0.3524  0.3005 -0.4203
  131MOL   C13341993   2.018   5.590   1.023  0.6294 -0.0462 -0.2945
  131MOL   C13441994   2.029   5.724   1.095 -0.5935  0.3303  0.2379
  131MOL   C13541995   2.256   5.181   1.011 -0.0014  0.0300 -0.0609
  131MOL   H13641996   2.340   5.365   1.036 -0.5698  3.1740  0.2435
  131MOL   H13741997   2.174   5.500   1.136 -3.4663  0.2342  0.2747
  131MOL   H13841998   2.236   5.572   0.983  1.6426 -2.5817 -1.8832
  131MOL   H13941999   1.944   5.535   1.080  0.9636 -0.2798 -0.0792
  131MOL   H14042000   1.993   5.600   0.917  1.9462 -0.3084 -0.6431
  131MOL   H14142001   1.943   5.788   1.072 -1.2595 -0.4595  0.4787
  131MOL   H14242002   2.123   5.769   1.064 -0.1009 -0.7693  0.1295
  131MOL   H14342003   2.033   5.716   1.204 -0.1285 -1.0752  0.1232
  131MOL   H14442004   2.150   5.160   1.024  0.3721 -1.3656  0.8465
  131MOL   H14542005   2.279   5.112   0.930  3.3075 -0.5558  1.2964
  131MOL   C14642006   2.331   5.133   1.140 -0.1965 -0.0898  0.2453
  131MOL   O14742007   2.285   5.003   1.171  0.1547  0.0453  0.1256
  131MOL   C14842008   2.155   4.981   1.222  0.2160 -0.2369  0.7966
  131MOL   C14942009   2.120   5.056   1.356  0.1159 -0.4575  0.7322
  131MOL   C15042010   2.200   4.991   1.474  0.2359 -0.5379  0.3071
  131MOL   C15142011   2.485   5.111   1.114  0.7886  0.0861 -0.0052
  131MOL   H15242012   2.322   5.209   1.219 -0.6975  0.2310 -0.1159
  131MOL   H15342013   2.081   5.002   1.145  1.3091  0.5198 -0.0657
  131MOL   H15442014   2.161   4.872   1.231  1.4488 -0.5386 -2.7315
  131MOL   H15542015   2.015   5.053   1.384  0.2036 -1.7272  0.9361
  131MOL   H15642016   2.139   5.163   1.347 -0.0015 -0.4383  0.7057
  131MOL   H15742017   2.196   5.066   1.553 -0.3021 -0.0946 -0.1415
  131MOL   H15842018   2.306   4.966   1.466  0.1674 -0.3942 -0.9937
  131MOL   H15942019   2.147   4.911   1.526 -0.4267  0.5192  1.2894
  131MOL   H16042020   2.501   5.051   1.024 -3.3952 -1.3741  0.1052
  131MOL   H16142021   2.535   5.204   1.085 -1.4796  0.6898 -2.2339
  131MOL   C16242022   2.556   5.043   1.238  0.2243 -0.0289  0.5783
  131MOL   O16342023   2.674   4.973   1.194  0.0306 -0.1579  0.1265
  131MOL   C16442024   2.651   4.856   1.116 -0.2694 -0.3906  0.7837
  131MOL   C16542025   2.774   4.779   1.074 -0.7046  0.0835  0.0006
  131MOL   C16642026   2.827   4.687   1.183 -0.4290  0.3624  0.0070
  131MOL   C16742027   2.602   5.150   1.344 -0.6141  0.0632 -0.0240
  131MOL   H16842028   2.487   4.966   1.274  0.5531 -0.7668 -0.3376
  131MOL   H16942029   2.579   4.791   1.165 -1.6298  1.5611  1.4627
  131MOL   H17042030   2.602   4.880   1.021  0.2356 -1.8180  0.1408
  131MOL   H17142031   2.856   4.846   1.050 -0.3412 -0.7111 -1.0344
  131MOL   H17242032   2.744   4.729   0.982  2.1913  0.2493 -1.0700
  131MOL   H17342033   2.883   4.737   1.261 -0.8557 -0.3388  0.7742
  131MOL   H17442034   2.893   4.616   1.134 -0.9118  1.5777 -2.5103
  131MOL   H17542035   2.741   4.642   1.232  0.6563 -2.0734 -0.2621
  131MOL   H17642036   2.668   5.221   1.295 -0.4538  0.2403  0.4433
  131MOL   H17742037   2.522   5.214   1.381 -0.6112  0.2505 -0.3448
  131MOL   C17842038   2.679   5.080   1.462  0.5605 -0.5305  0.5154
  131MOL   O17942039   2.743   5.183   1.538 -0.1797 -0.1526  0.1505
  131MOL   C18042040   2.869   5.234   1.484  0.3465  0.2267  0.2874
  131MOL   C18142041   2.955   5.330   1.564  0.4213 -0.4659  0.5754
  131MOL   C18242042   3.010   5.253   1.693 -0.1156 -0.0175  0.1616
  131MOL   C18342043   2.587   5.016   1.572 -0.1013 -0.0282 -0.0425
  131MOL   H18442044   2.748   5.002   1.431  0.0765 -1.1878  1.0980
  131MOL   H18542045   2.931   5.147   1.464  0.1619  0.3996 -1.0359
  131MOL   H18642046   2.850   5.283   1.389  0.2810 -0.1818  0.0935
  131MOL   H18742047   2.895   5.418   1.590 -1.7876 -1.8250  0.2029
  131MOL   H18842048   3.037   5.358   1.498  0.7820 -2.1965  0.2869
  131MOL   H18942049   3.082   5.315   1.746 -0.5165  1.1085 -0.5961
  131MOL   H19042050   3.046   5.152   1.671  1.0495  0.4074  0.1146
  131MOL   H19142051   2.927   5.234   1.761 -1.4932  1.8335 -0.9545
  131MOL   H19242052   2.522   5.098   1.603  0.7798 -0.2035  2.3262
  131MOL   H19342053   2.525   4.940   1.526 -1.4409  1.0509 -0.0542
  131MOL   C19442054   2.665   4.958   1.690  0.6063  0.8090  0.2558
  131MOL   O19542055   2.568   4.876   1.759  0.5133 -0.4625  0.1476
  131MOL   C19642056   2.493   4.955   1.851  0.0445  0.2464  0.0700
  131MOL   C19742057   2.398   4.870   1.928  0.1725  0.0783  0.6183
  131MOL   C19842058   2.288   4.963   1.984  0.1176 -0.2679 -0.1887
  131MOL   C19942059   2.767   4.848   1.643 -0.4170 -0.3783  0.1121
  131MOL   H20042060   2.713   5.037   1.748  0.0617  2.0543 -0.9419
  131MOL   H20142061   2.563   4.995   1.925 -0.2318 -0.0186  0.4778
  131MOL   H20242062   2.441   5.039   1.804  0.1437  0.3047  0.0620
  131MOL   H20342063   2.448   4.818   2.010  1.6599 -1.9602 -1.5246
  131MOL   H20442064   2.349   4.799   1.862  1.5330 -0.4473  0.1602
  131MOL   H20542065   2.216   4.905   2.042  2.0016 -0.9208  1.5352
  131MOL   H20642066   2.228   4.991   1.897 -0.3387 -0.0296  0.1987
  131MOL   H20742067   2.321   5.050   2.040 -0.1210 -0.4169  0.1802
  131MOL   H20842068   2.714   4.765   1.596 -0.9022 -0.4402  0.7684
  131MOL   H20942069   2.833   4.892   1.569 -2.2025  1.5668 -0.3761
  131MOL   C21042070   2.858   4.800   1.764  0.5641  0.2977  0.1321
  131MOL   O21142071   2.939   4.697   1.710 -0.1172  0.3921 -0.3998
  131MOL   C21242072   2.895   4.559   1.716 -0.4495 -0.2578 -0.1455
  131MOL   C21342073   2.946   4.476   1.592 -0.3499  0.9024  0.4274
  131MOL   C21442074   2.917   4.541   1.466 -0.2571  0.2751 -0.5790
  131MOL   C21542075   2.959   4.905   1.818 -0.5012 -0.3733  0.3201
  131MOL   H21642076   2.785   4.761   1.834  0.4525  1.1546  0.5065
  131MOL   H21742077   2.925   4.523   1.815  0.8718 -0.0392 -0.4519
  131MOL   H21842078   2.786   4.556   1.711 -0.6433  1.9335  1.8662
  131MOL   H21942079   2.894   4.380   1.590  0.4429  0.4948 -1.2588
  131MOL   H22042080   3.052   4.454   1.603 -0.3453 -0.9272 -2.7575
  131MOL   H22142081   2.916   4.470   1.383 -2.5354 -0.1911 -0.1853
  131MOL   H22242082   3.001   4.608   1.447 -0.7146  0.6453 -1.3205
  131MOL   H22342083   2.821   4.591   1.478  0.1392  1.0754 -0.6917
  131MOL   H22442084   3.023   4.931   1.734 -1.2390 -1.5700 -0.6350
  131MOL   H22542085   2.896   4.988   1.847 -0.3646 -0.6856  1.5513
  131MOL   C22642086   3.049   4.870   1.937  0.3290 -0.1023  0.0020
  131MOL   O22742087   3.114   4.994   1.978  0.1191 -0.0719  0.4912
  131MOL   C22842088   3.237   5.013   1.918 -0.4696  0.2939  0.3253
  131MOL   C22942089   3.303   5.149   1.954 -0.3674  0.7132  0.1175
  131MOL   C23042090   3.351   5.151   2.105 -0.0187 -0.1250 -0.4330
  131MOL   C23142091   2.972   4.821   2.066 -0.3438 -0.0978 -0.0241
  131MOL   H23242092   3.118   4.788   1.921  1.2174  0.9893 -1.9945
  131MOL   H23342093   3.311   4.940   1.950 -0.7401 -2.2689 -4.4427
  131MOL   H23442094   3.235   5.005   1.809  1.7444 -1.8022  0.3998
  131MOL   H23542095   3.237   5.232   1.928 -0.9951  0.0382 -0.4533
  131MOL   H23642096   3.389   5.165   1.889 -0.2470  1.6577  0.4936
  131MOL   H23742097   3.418   5.065   2.114  1.1342  0.7726 -0.3172
  131MOL   H23842098   3.268   5.133   2.174  0.9133  0.8356  0.9779
  131MOL   H23942099   3.401   5.241   2.142 -0.5046  0.4765 -1.2293
  131MOL   H24042100   2.890   4.888   2.092 -0.1823  0.2150 -0.3214
  131MOL   H24142101   2.932   4.726   2.031 -1.3113  1.8228 -4.5809
  131MOL   C24242102   3.048   4.807   2.196 -0.5881  0.2046 -0.2074
  131MOL   O24342103   2.965   4.755   2.300  0.0244 -0.7928  0.1273
  131MOL   C24442104   2.864   4.837   2.349  0.3016  0.3494 -0.0012
  131MOL   C24542105   2.831   4.801   2.494 -0.6398 -0.6338 -0.0280
  131MOL   C24642106   2.953   4.820   2.579 -0.0333 -0.2976 -0.5073
  131MOL   C24742107   3.170   4.709   2.189  0.3908  0.6065  0.1092
  131MOL   H24842108   3.080   4.906   2.228 -0.4120  0.6748 -1.8436
  131MOL   H24942109   2.895   4.941   2.357 -0.1102  0.5081 -0.5384
  131MOL   H25042110   2.767   4.825   2.303 -0.2516 -2.4529  1.7851
  131MOL   H25142111   2.804   4.696   2.502  1.0448 -1.0749  0.0658
  131MOL   H25242112   2.748   4.865   2.526  0.1893  0.0141  0.8693
  131MOL   H25342113   2.925   4.832   2.684  0.9403  0.0899 -0.2863
  131MOL   H25442114   3.006   4.913   2.558 -0.1826 -0.1179 -0.1000
  131MOL   H25542115   3.031   4.745   2.566 -0.0365 -0.5274  0.6823
  131MOL   H25642116   3.151   4.613   2.141 -0.3593  0.3972  0.8154
  131MOL   H25742117   3.244   4.758   2.125 -0.3640  1.2348 -0.2953
  131MOL   C25842118   3.251   4.681   2.318  0.2892 -0.2284 -0.2767
  131MOL   O25942119   3.370   4.617   2.277 -0.3461 -0.1153  0.7498
  131MOL   C26042120   3.362   4.477   2.276  0.0180 -0.1796  0.4541
  131MOL   C26142121   3.501   4.410   2.248 -0.3137  0.3743 -0.6259
  131MOL   C26242122   3.512   4.260   2.248 -0.3235  0.3232  0.2449
  131MOL   C26342123   3.286   4.815   2.393 -0.7712  0.0752 -0.1440
  131MOL   H26442124   3.206   4.613   2.390  2.2193  0.1922  1.3714
  131MOL   H26542125   3.326   4.448   2.374  0.3290 -1.9045  0.0634
  131MOL   H26642126   3.277   4.437   2.222 -1.6551  2.5174  0.9958
  131MOL   H26742127   3.572   4.441   2.325 -1.9641  0.8825  0.7137
  131MOL   H26842128   3.555   4.440   2.159  0.0188 -0.3496 -0.6752
  131MOL   H26942129   3.614   4.224   2.231 -0.3116  0.7494 -0.6440
  131MOL   H27042130   3.456   4.231   2.159  1.5809 -1.4886 -0.4047
  131MOL   H27142131   3.466   4.220   2.338 -2.2967  2.2617  0.1300
  131MOL   H27242132   3.333   4.889   2.329 -1.1558  2.0700  1.8401
  131MOL   H27342133   3.193   4.864   2.423 -0.2795  0.0651  1.4553
  131MOL   C27442134   3.388   4.800   2.512 -0.3747 -0.2067 -0.4541
  131MOL   O27542135   3.416   4.925   2.564  0.2359  0.3509  0.8632
  131MOL   C27642136   3.524   4.999   2.510 -0.8276  0.9583 -0.3704
  131MOL   C27742137   3.538   5.129   2.587  0.2047 -0.4556  0.2598
  131MOL   C27842138   3.572   5.124   2.745  0.2746  0.7817 -0.1143
  131MOL   C27942139   3.326   4.705   2.619 -0.0972 -0.1156  0.1708
  131MOL   H28042140   3.489   4.762   2.498  1.7143  4.0502  2.1620
  131MOL   H28142141   3.617   4.941   2.501 -0.7103  0.6734  2.2538
  131MOL   H28242142   3.499   5.031   2.409 -1.1792 -0.0175 -0.6066
  131MOL   H28342143   3.444   5.181   2.570 -1.2170 -3.1303 -0.2235
  131MOL   H28442144   3.608   5.199   2.540  0.9648  0.4674  2.6660
  131MOL   H28542145   3.487   5.071   2.788 -1.3342  0.1129 -3.9129
  131MOL   H28642146   3.586   5.220   2.796  0.5808  0.0634  1.1618
  131MOL   H28742147   3.660   5.062   2.761  0.2654  1.0688  1.1134
  131MOL   H28842148   3.224   4.727   2.651 -0.2248 -1.6038  0.8379
  131MOL   H28942149   3.319   4.603   2.582 -0.5771 -0.2641  0.6688
  131MOL   C29042150   3.413   4.699   2.755  0.3491  0.4648 -0.1261
  131MOL   O29142151   3.346   4.616   2.856  0.2543 -0.0555 -0.0524
  131MOL   C29242152   3.263   4.692   2.943  0.0594 -0.3607  0.1399
  131MOL   C29342153   3.239   4.615   3.074 -0.7670 -0.4193  0.1879
  131MOL   C29442154   3.143   4.496   3.056 -0.4180 -0.0212 -0.4491
  131MOL   C29542155   3.557   4.630   2.735 -0.0757 -0.7357  0.2217
  131MOL   H29642156   3.422   4.798   2.801 -0.5704  0.5242 -0.0660
  131MOL   H29742157   3.303   4.790   2.967  0.7962 -0.5350 -0.3425
  131MOL   H29842158   3.168   4.709   2.892 -0.5948 -0.1482  1.3970
  131MOL   H29942159   3.192   4.688   3.140  2.1716 -1.1569  3.2651
  131MOL   H30042160   3.328   4.587   3.129  0.3190  0.4943 -1.0748
  131MOL   H30142161   3.038   4.523   3.042 -1.1212 -2.4872 -0.0958
  131MOL   H30242162   3.146   4.425   3.139  1.7338 -0.0590 -0.5450
  131MOL   H30342163   3.163   4.441   2.965  0.4158  0.2191 -0.4166
  131MOL   H30442164   3.538   4.523   2.726  3.5211 -1.5591  1.5878
  131MOL   H30542165   3.606   4.655   2.641  1.6115 -1.5342  0.8725
  131MOL   C30642166   3.648   4.648   2.864  0.4759 -0.7067  0.6990
  131MOL   O30742167   3.769   4.576   2.842 -0.5175 -0.7539  0.4147
  131MOL   C30842168   3.797   4.467   2.930 -1.0723 -0.1395  0.5461
  131MOL   C30942169   3.921   4.392   2.892 -0.9065  0.1593  0.5407
  131MOL   C31042170   3.966   4.292   2.994  0.5420  0.1246  0.7273
  131MOL   C31142171   3.696   4.785   2.901  0.0056 -0.4405 -0.2632
  131MOL   H31242172   3.610   4.608   2.957  1.7710  0.1156  1.5985
  131MOL   H31342173   3.807   4.521   3.024  2.8023  1.5007 -0.6930
  131MOL   H31442174   3.714   4.397   2.926 -1.0012 -0.2701  1.2871
  131MOL   H31542175   4.001   4.464   2.880 -1.2188 -0.0348 -2.9606
  131MOL   H31642176   3.911   4.349   2.793 -0.0527  1.8742 -0.3016
  131MOL   H31742177   4.058   4.248   2.955  0.8686  0.7112  0.8242
  131MOL   H31842178   3.890   4.214   2.990 -0.3230  1.0456 -1.1592
  131MOL   H31942179   3.986   4.347   3.086  0.9843 -0.1244  0.7819
  131MOL   H32042180   3.611   4.853   2.893 -0.6951 -1.3280 -0.4011
  131MOL   H32142181   3.729   4.789   3.005  0.9508  1.5365 -0.6179
  131MOL   H32242182   3.775   4.828   2.840 -1.6897  0.3700 -1.9222
  132MOL     C142183   2.380   7.723   1.605 -0.2954 -0.2396  0.3472
  132MOL     O242184   2.332   7.585   1.600 -0.7289 -0.1119 -0.1799
  132MOL     C342185   2.279   7.547   1.473  0.3906 -0.2495  0.2637
  132MOL     C442186   2.230   7.401   1.470  0.6418  0.4738  0.5527
  132MOL     C542187   2.140   7.373   1.356  0.2116  0.0659  0.4756
  132MOL     C642188   2.423   7.742   1.756  0.7043 -0.4033 -0.0225
  132MOL     H742189   2.297   7.793   1.592 -0.9490 -0.8331  1.2698
  132MOL     H842190   2.193   7.613   1.462 -0.0737 -1.3047 -2.9610
  132MOL     H942191   2.354   7.562   1.395  0.9363  1.6861  1.1401
  132MOL    H1042192   2.176   7.367   1.558 -0.9538  1.4576 -0.0123
  132MOL    H1142193   2.316   7.334   1.468  0.3771  0.1147  1.1241
  132MOL    H1242194   2.049   7.431   1.369  1.5156  2.4693 -0.8144
  132MOL    H1342195   2.135   7.265   1.346 -0.3175  0.3315 -2.4488
  132MOL    H1442196   2.182   7.407   1.262  0.7745 -1.2076  0.2514
  132MOL    H1542197   2.340   7.711   1.820  0.2365 -1.2446 -1.0274
  132MOL    H1642198   2.500   7.668   1.778  1.1694 -0.0688 -0.4936
  132MOL    H1742199   2.461   7.739   1.534 -0.4827 -1.5178 -0.1699
  132MOL    C1842200   2.469   0.059   1.786  0.1400  0.2567 -0.1788
  132MOL    O1942201   2.363   0.161   1.762 -0.4140 -0.1833  0.1571
  132MOL    C2042202   2.247   0.154   1.840 -0.3929  0.0045  0.4637
  132MOL    C2142203   2.156   0.282   1.822 -0.1427 -0.7152  0.8134
  132MOL    C2242204   2.218   0.418   1.872  0.3378  1.0598  0.1148
  132MOL    C2342205   2.531   0.078   1.923  0.3611  0.5865  0.1562
  132MOL    H2442206   2.549   0.082   1.715 -0.9292 -0.9544 -1.8248
  132MOL    H2542207   2.187   0.070   1.804  0.6195  0.0358 -1.3354
  132MOL    H2642208   2.268   0.145   1.946  0.7108  0.8313  0.3177
  132MOL    H2742209   2.055   0.260   1.854 -0.2991 -1.4191 -0.1212
  132MOL    H2842210   2.140   0.299   1.715 -0.0872  1.0760  1.0771
  132MOL    H2942211   2.140   0.491   1.849 -0.6965  0.4883  1.7213
  132MOL    H3042212   2.318   0.444   1.838  1.9078 -2.8917  1.3768
  132MOL    H3142213   2.220   0.416   1.981 -0.2939  1.1714  0.1323
  132MOL    H3242214   2.459   0.045   1.998 -0.0422  2.2371  0.5012
  132MOL    H3342215   2.612   0.008   1.943  0.9351  1.3122  0.3553
  132MOL    C3442216   2.593   0.212   1.958  0.5341  0.3035  0.9452
  132MOL    O3542217   2.608   0.213   2.096 -0.4361  0.5831  0.4830
  132MOL    C3642218   2.491   0.256   2.162  0.5895 -0.0127 -0.3736
  132MOL    C3742219   2.483   0.415   2.186  0.4488 -0.4081 -0.2733
  132MOL    C3842220   2.366   0.452   2.268 -0.1510 -0.3846  0.1387
  132MOL    C3942221   2.740   0.222   1.908 -0.6303  0.4708  0.5905
  132MOL    H4042222   2.535   0.295   1.919  0.4543 -0.4095 -0.5104
  132MOL    H4142223   2.398   0.229   2.111  0.0982  2.3288 -0.8093
  132MOL    H4242224   2.492   0.207   2.260 -2.9871 -0.7011 -0.5996
  132MOL    H4342225   2.472   0.463   2.089 -0.6583 -1.7581 -0.8337
  132MOL    H4442226   2.579   0.444   2.229  0.1599 -3.0315  2.3516
  132MOL    H4542227   2.345   0.557   2.251  0.6476 -0.3948 -0.9387
  132MOL    H4642228   2.384   0.442   2.375 -0.6946  0.5493  0.3259
  132MOL    H4742229   2.277   0.394   2.242 -1.4986  1.9068 -0.4707
  132MOL    H4842230   2.803   0.157   1.968  0.8091  1.3402  0.0353
  132MOL    H4942231   2.729   0.173   1.811 -2.2685 -1.0276  1.4819
  132MOL    C5042232   2.814   0.363   1.903  0.3304  0.7335 -1.0454
  132MOL    O5142233   2.945   0.366   1.847  0.0388 -0.5332 -0.3725
  132MOL    C5242234   3.042   0.318   1.943  1.1212 -0.1736  0.0699
  132MOL    C5342235   3.149   0.227   1.881  0.5533 -0.0660 -0.4886
  132MOL    C5442236   3.095   0.113   1.788 -0.0575  0.0338 -0.2240
  132MOL    C5542237   2.738   0.474   1.826  0.1164  0.3372  0.0636
  132MOL    H5642238   2.814   0.396   2.007  0.9689  1.3136 -1.2245
  132MOL    H5742239   3.102   0.402   1.979  1.4398 -0.2006 -0.3990
  132MOL    H5842240   3.001   0.272   2.033 -1.0066  0.3953 -0.5755
  132MOL    H5942241   3.227   0.189   1.947  1.5353  0.2499 -1.4435
  132MOL    H6042242   3.201   0.287   1.805 -0.4577 -0.8051 -1.7891
  132MOL    H6142243   3.175   0.039   1.788 -1.3915 -1.4428 -0.7386
  132MOL    H6242244   3.056   0.151   1.694 -2.7498 -0.7519  0.5275
  132MOL    H6342245   3.011   0.061   1.835 -0.1152  0.2851 -0.0485
  132MOL    H6442246   2.716   0.450   1.722 -1.6162  0.3841  0.3952
  132MOL    H6542247   2.638   0.482   1.869  0.4159  3.3965  0.2783
  132MOL    C6642248   2.789   0.619   1.830 -0.2460 -0.2947  0.1168
  132MOL    O6742249   2.708   0.698   1.745  0.3068 -0.0510 -0.1340
  132MOL    C6842250   2.749   0.699   1.611 -0.7624  0.2839  0.6681
  132MOL    C6942251   2.653   0.780   1.530  0.4977  0.2806 -0.3423
  132MOL    C7042252   2.506   0.713   1.525 -0.1503 -0.9170 -1.1369
  132MOL    C7142253   2.774   0.686   1.968 -0.9126 -0.0601 -0.1585
  132MOL    H7242254   2.893   0.616   1.797 -0.2225  1.3346  0.0017
  132MOL    H7342255   2.853   0.732   1.616 -0.3401 -1.0773  1.1127
  132MOL    H7442256   2.744   0.601   1.564  2.0695 -0.1850  1.2536
  132MOL    H7542257   2.676   0.776   1.423 -1.1173 -0.1290 -0.6860
  132MOL    H7642258   2.654   0.882   1.567  1.0663 -0.2457  1.1166
  132MOL    H7742259   2.459   0.705   1.623 -0.4976 -0.1822 -1.2352
  132MOL    H7842260   2.522   0.613   1.486  1.7327 -1.2148  0.3208
  132MOL    H7942261   2.436   0.780   1.475 -0.5860  0.4829  1.2286
  132MOL    H8042262   2.668   0.697   1.989 -0.5466  0.8386  1.2312
  132MOL    H8142263   2.812   0.614   2.041 -1.4878 -1.0576 -0.8242
  132MOL    C8242264   2.853   0.818   1.972 -0.2066  0.4095 -0.1700
  132MOL    O8342265   2.811   0.905   2.081 -0.3632  0.7929  0.1514
  132MOL    C8442266   2.687   0.971   2.055 -0.3122 -0.3941  0.5019
  132MOL    C8542267   2.631   1.021   2.189  0.3579 -0.1989 -0.2196
  132MOL    C8642268   2.494   1.100   2.192  0.0458 -0.5963  0.3601
  132MOL    C8742269   3.001   0.793   1.995  0.3344  0.1416  0.0402
  132MOL    H8842270   2.839   0.862   1.874  0.0236  1.9690  0.4778
  132MOL    H8942271   2.711   1.056   1.991 -1.8854  1.2949  2.0848
  132MOL    H9042272   2.606   0.915   2.008 -0.6300  0.8233 -0.4176
  132MOL    H9142273   2.695   1.086   2.249  1.6523  0.7479 -2.5662
  132MOL    H9242274   2.625   0.930   2.248  2.4666 -0.0198  0.3194
  132MOL    H9342275   2.424   1.044   2.130  1.2327 -2.9024  1.0517
  132MOL    H9442276   2.498   1.202   2.153  4.4860 -1.3060 -1.3210
  132MOL    H9542277   2.461   1.114   2.295  2.7117 -2.4602  1.5147
  132MOL    H9642278   3.023   0.799   2.102  0.7325  1.7881 -0.1110
  132MOL    H9742279   3.025   0.689   1.977  1.2265  0.6711 -1.9315
  132MOL    C9842280   3.102   0.884   1.911 -0.2487 -0.1317  0.8194
  132MOL    O9942281   3.041   1.015   1.908  0.0822 -0.1328 -0.3078
  132MOL   C10042282   3.084   1.100   1.804 -0.1953 -0.4006 -0.0644
  132MOL   C10142283   3.014   1.067   1.675 -1.0028  0.2416  0.7088
  132MOL   C10242284   2.870   1.123   1.673  0.5517 -0.2379  0.0372
  132MOL   C10342285   3.249   0.871   1.957 -0.0590 -0.6475 -0.0403
  132MOL   H10442286   3.105   0.850   1.808  0.5500  0.9872  0.4649
  132MOL   H10542287   3.074   1.203   1.838 -1.0286 -0.8064  0.9442
  132MOL   H10642288   3.191   1.089   1.790 -0.4733 -1.9544 -1.0821
  132MOL   H10742289   3.011   0.959   1.667 -0.8562  0.2298  0.8070
  132MOL   H10842290   3.066   1.107   1.588 -1.8226  0.4837  0.3184
  132MOL   H10942291   2.824   1.077   1.586 -1.6783  0.4301  0.8433
  132MOL   H11042292   2.868   1.232   1.670  0.4215 -0.2764 -2.0074
  132MOL   H11142293   2.805   1.081   1.749  0.3973 -2.3317 -1.2004
  132MOL   H11242294   3.304   0.944   1.896 -1.6844  2.2408  1.8218
  132MOL   H11342295   3.245   0.915   2.057  3.6165  0.6213 -0.3386
  132MOL   C11442296   3.323   0.730   1.943 -0.2104  0.6348  0.0700
  132MOL   O11542297   3.336   0.701   1.798 -0.0427  0.3256  0.0700
  132MOL   C11642298   3.347   0.560   1.755 -0.0492  0.1402 -0.2181
  132MOL   C11742299   3.214   0.524   1.678  0.1459 -0.0632  0.1731
  132MOL   C11842300   3.172   0.635   1.567  0.2617 -0.1823  0.2456
  132MOL   C11942301   3.460   0.735   2.018 -0.3865 -0.4398 -0.2950
  132MOL   H12042302   3.259   0.652   1.985  0.2198  0.4333  0.3549
  132MOL   H12142303   3.438   0.552   1.695  1.0589  2.4110  1.0913
  132MOL   H12242304   3.355   0.491   1.839  3.3546 -1.2419 -1.5693
  132MOL   H12342305   3.124   0.513   1.738 -1.4858  0.1329 -2.1514
  132MOL   H12442306   3.231   0.426   1.634  0.9415  0.6669 -1.1726
  132MOL   H12542307   3.261   0.667   1.511  0.9022 -2.2148  0.0624
  132MOL   H12642308   3.125   0.722   1.613 -0.8311  0.0409 -1.2600
  132MOL   H12742309   3.104   0.589   1.496 -0.4913  2.4978 -0.8627
  132MOL   H12842310   3.503   0.638   1.993  1.9429  0.6086 -0.5478
  132MOL   H12942311   3.529   0.808   1.976 -0.6379 -1.0484 -1.8048
  132MOL   C13042312   3.457   0.745   2.170 -0.7117 -0.2546  0.1904
  132MOL   O13142313   3.385   0.630   2.217  0.2416  0.0685  0.0485
  132MOL   C13242314   3.308   0.663   2.335 -0.2550  0.4020 -0.1883
  132MOL   C13342315   3.264   0.522   2.387  0.4892  0.7844  0.0214
  132MOL   C13442316   3.183   0.453   2.276 -0.9275 -0.7037  0.7121
  132MOL   C13542317   3.603   0.721   2.232  0.3190 -0.8096 -0.9050
  132MOL   H13642318   3.414   0.843   2.188  3.5418  1.6697  0.2958
  132MOL   H13742319   3.379   0.720   2.395  0.6131  0.4734 -1.2873
  132MOL   H13842320   3.220   0.723   2.310 -1.2821 -0.5534  1.0155
  132MOL   H13942321   3.197   0.530   2.472 -1.1965 -2.0835 -0.9739
  132MOL   H14042322   3.340   0.460   2.435  0.0142 -0.6709 -1.0764
  132MOL   H14142323   3.101   0.394   2.318 -0.8260 -0.2873  1.5167
  132MOL   H14242324   3.251   0.390   2.219 -0.5670  1.1571 -0.9824
  132MOL   H14342325   3.141   0.524   2.204 -0.7050 -0.4070  0.8736
  132MOL   H14442326   3.594   0.682   2.333 -1.4698 -2.0363 -1.5242
  132MOL   H14542327   3.638   0.633   2.178 -1.7948 -1.3207 -1.4870
  132MOL   C14642328   3.684   0.851   2.238  0.0391 -0.4121 -0.0345
  132MOL   O14742329   3.710   0.902   2.110 -0.1229 -0.1404  0.4419
  132MOL   C14842330   3.833   0.861   2.063  0.0812 -0.4873  0.1443
  132MOL   C14942331   3.865   0.912   1.921 -0.1629  0.2107  0.1085
  132MOL   C15042332   3.881   1.060   1.918  0.3690  0.6418 -0.1139
  132MOL   C15142333   3.628   0.965   2.323  0.1162  0.3761  0.1528
  132MOL   H15242334   3.771   0.816   2.294 -1.3753 -1.2260  1.7230
  132MOL   H15342335   3.908   0.894   2.134 -0.5600 -0.9744  1.0559
  132MOL   H15442336   3.826   0.752   2.063  0.1372 -0.4902  0.4453
  132MOL   H15542337   3.783   0.886   1.854  0.8987 -2.4941 -0.2178
  132MOL   H15642338   3.955   0.858   1.892 -0.6734 -0.2700 -0.5909
  132MOL   H15742339   3.811   1.112   1.984  0.4186  0.8199 -0.2012
  132MOL   H15842340   3.861   1.095   1.817  1.7582 -0.6602 -0.8520
  132MOL   H15942341   3.982   1.094   1.941  0.2236 -0.1822  1.9164
  132MOL   H16042342   3.538   1.005   2.276 -2.5112 -0.8832  3.8381
  132MOL   H16142343   3.582   0.916   2.409 -0.0235 -0.7916 -0.5692
  132MOL   C16242344   3.720   1.078   2.370 -0.2012  0.2122 -0.0387
  132MOL   O16342345   3.837   1.021   2.423 -0.4251 -0.0096  0.1349
  132MOL   C16442346   3.843   1.013   2.567  0.0517  0.2730 -0.4755
  132MOL   C16542347   3.977   0.942   2.598 -0.8247 -0.4099 -0.6521
  132MOL   C16642348   4.109   1.016   2.554 -0.1660 -0.2073 -0.5261
  132MOL   C16742349   3.754   1.188   2.267 -0.1571 -1.2861 -0.1357
  132MOL   H16842350   3.668   1.132   2.449 -0.0448 -1.8299  1.5023
  132MOL   H16942351   3.855   1.111   2.613  0.9813 -0.1592  0.2305
  132MOL   H17042352   3.760   0.960   2.613  1.5811 -0.2376  1.7963
  132MOL   H17142353   3.966   0.843   2.553  0.1728 -0.5040 -0.6799
  132MOL   H17242354   3.979   0.923   2.705 -0.6260  1.0897 -0.3770
  132MOL   H17342355   4.198   0.955   2.546  0.5276  0.8680 -1.1401
  132MOL   H17442356   4.132   1.104   2.615 -0.3006  0.0193 -0.7974
  132MOL   H17542357   4.106   1.045   2.449 -1.8401 -0.5804 -0.5923
  132MOL   H17642358   3.833   1.142   2.207  0.5022  2.0494 -1.9125
  132MOL   H17742359   3.670   1.207   2.201 -1.8636 -2.2725  1.7142
  132MOL   C17842360   3.801   1.307   2.342  0.6964  0.2311 -0.3758
  132MOL   O17942361   3.887   1.384   2.254 -0.1376 -0.1450  0.0850
  132MOL   C18042362   4.023   1.348   2.259 -1.0613  0.1109 -0.1064
  132MOL   C18142363   4.101   1.469   2.199  0.0406 -0.0032  0.1435
  132MOL   C18242364   4.082   1.584   2.293 -0.6722 -0.2001 -0.2987
  132MOL   C18342365   3.689   1.406   2.377  0.1725 -0.6543  0.2034
  132MOL   H18442366   3.864   1.276   2.425 -0.6773  1.8101  1.2854
  132MOL   H18542367   4.054   1.331   2.363  0.9319 -1.7454 -0.9562
  132MOL   H18642368   4.027   1.260   2.195 -0.3947 -1.1715  1.6246
  132MOL   H18742369   4.064   1.497   2.101  0.2890 -1.1978 -0.3042
  132MOL   H18842370   4.209   1.456   2.184  0.8917  2.7498  3.1997
  132MOL   H18942371   4.095   1.563   2.400  0.1989  3.6051  0.4359
  132MOL   H19042372   3.993   1.646   2.279 -0.5155  0.1024  0.0075
  132MOL   H19142373   4.164   1.655   2.280 -2.1989  1.4600 -1.1202
  132MOL   H19242374   3.649   1.462   2.292  0.3218 -1.0244 -0.1108
  132MOL   H19342375   3.602   1.356   2.421  0.0843  0.9402  1.8799
  132MOL   C19442376   3.732   1.511   2.482  1.2831  0.7877  0.0694
  132MOL   O19542377   3.663   1.629   2.471  0.7431  0.6861  0.5422
  132MOL   C19642378   3.703   1.717   2.370 -0.6314 -0.8317  0.4480
  132MOL   C19742379   3.624   1.846   2.373  0.0519 -0.4077 -0.5059
  132MOL   C19842380   3.483   1.824   2.324  0.3223  0.2222 -0.0011
  132MOL   C19942381   3.725   1.464   2.632  0.0358  0.4810  0.3936
  132MOL   H20042382   3.838   1.532   2.470  1.6277 -1.7815 -2.0464
  132MOL   H20142383   3.808   1.746   2.378 -1.2592  1.6695  0.3335
  132MOL   H20242384   3.682   1.661   2.280 -0.2601  0.9810 -0.8018
  132MOL   H20342385   3.670   1.929   2.319  0.8969 -0.0408  0.7580
  132MOL   H20442386   3.620   1.881   2.476 -0.2663  1.8057 -1.2344
  132MOL   H20542387   3.438   1.923   2.314  0.8225  0.4587  0.0535
  132MOL   H20642388   3.423   1.783   2.405 -3.1770  2.3954 -1.3207
  132MOL   H20742389   3.476   1.760   2.237  1.4487 -1.4424  1.1178
  132MOL   H20842390   3.788   1.375   2.637  0.6386  0.7704 -1.5487
  132MOL   H20942391   3.769   1.540   2.695  1.7226 -1.1759  1.2598
  132MOL   C21042392   3.589   1.425   2.692  0.3684  0.4626  0.5510
  132MOL   O21142393   3.544   1.304   2.641 -0.4836 -0.5532  0.3501
  132MOL   C21242394   3.401   1.293   2.634 -0.1269 -0.2639  0.0274
  132MOL   C21342395   3.365   1.145   2.621 -0.0457 -0.5761  0.2897
  132MOL   C21442396   3.415   1.049   2.725 -0.4522  0.2093 -0.9507
  132MOL   C21542397   3.582   1.427   2.844 -0.9902  0.3748 -0.9805
  132MOL   H21642398   3.523   1.505   2.660 -1.3186 -0.9335  0.4599
  132MOL   H21742399   3.345   1.347   2.711 -0.1714  0.4799 -0.5300
  132MOL   H21842400   3.365   1.339   2.542 -0.0815  2.2803  1.2507
  132MOL   H21942401   3.384   1.113   2.518  1.0640 -2.1492  0.9602
  132MOL   H22042402   3.257   1.131   2.615 -0.2605  1.2558 -0.5881
  132MOL   H22142403   3.374   0.948   2.716  3.0206 -1.3848  0.3264
  132MOL   H22242404   3.403   1.083   2.828  0.0098  0.0387 -0.8399
  132MOL   H22342405   3.523   1.038   2.711 -0.2471 -0.8898  1.2515
  132MOL   H22442406   3.579   1.531   2.875 -1.2547  0.4838 -1.3594
  132MOL   H22542407   3.489   1.383   2.879 -1.2026  0.9187 -0.8588
  132MOL   C22642408   3.706   1.357   2.928 -0.1667  0.8680  0.7862
  132MOL   O22742409   3.686   1.386   3.069 -0.2955  0.1775 -0.2136
  132MOL   C22842410   3.760   1.499   3.118 -0.6093 -0.0127 -0.0201
  132MOL   C22942411   3.724   1.535   3.265 -0.4931 -0.3751  0.3518
  132MOL   C23042412   3.759   1.415   3.355 -0.0864 -0.4790 -0.1496
  132MOL   C23142413   3.705   1.200   2.896  0.5742 -0.0719 -0.3249
  132MOL   H23242414   3.796   1.411   2.900 -1.1175  2.4694  0.7612
  132MOL   H23342415   3.869   1.485   3.117 -0.5808  0.2201 -0.8449
  132MOL   H23442416   3.743   1.583   3.050  1.7196  0.5404  0.0190
  132MOL   H23542417   3.620   1.566   3.260 -0.3236 -0.1131 -2.9612
  132MOL   H23642418   3.786   1.623   3.282 -2.2158  1.0153 -0.4572
  132MOL   H23742419   3.728   1.318   3.316  1.2776 -0.7364 -0.6357
  132MOL   H23842420   3.714   1.412   3.455 -0.2958 -0.7473 -0.2499
  132MOL   H23942421   3.868   1.405   3.364  0.1241  1.8215  0.0197
  132MOL   H24042422   3.605   1.171   2.931  0.2614  1.4801  0.1190
  132MOL   H24142423   3.689   1.191   2.789  0.2915  0.9124 -0.3691
  132MOL   C24242424   3.808   1.115   2.963  0.6517 -0.1338 -0.2730
  132MOL   O24342425   3.780   0.988   2.905  0.0629 -0.6246 -0.2346
  132MOL   C24442426   3.709   0.895   2.996  0.2055  0.3929 -0.0779
  132MOL   C24542427   3.665   0.784   2.899  0.4708 -0.0041 -0.4061
  132MOL   C24642428   3.576   0.684   2.974  0.3960  0.8478 -0.1208
  132MOL   C24742429   3.952   1.159   2.936  0.0590  0.4446  0.1494
  132MOL   H24842430   3.784   1.121   3.070  0.5209  2.7975 -0.4269
  132MOL   H24942431   3.770   0.854   3.076 -2.5654 -1.7922  0.9991
  132MOL   H25042432   3.623   0.950   3.034 -0.0551  0.8698 -1.3313
  132MOL   H25142433   3.751   0.743   2.846  1.0292  1.0430 -0.3167
  132MOL   H25242434   3.617   0.840   2.819 -0.8042  0.1544  0.4458
  132MOL   H25342435   3.628   0.639   3.058 -0.9298  0.3451  0.4425
  132MOL   H25442436   3.557   0.602   2.904 -0.4575  1.3679 -0.5023
  132MOL   H25542437   3.489   0.733   3.017  0.4030 -0.4339  1.4133
  132MOL   H25642438   3.958   1.138   2.829  0.4903  0.2088  0.2174
  132MOL   H25742439   3.967   1.266   2.948  0.4340  0.2902  1.0911
  132MOL   C25842440   4.055   1.066   2.998  0.3371  0.1704  0.4545
  132MOL   O25942441   4.169   1.116   2.931  0.1120 -0.5555 -0.1871
  132MOL   C26042442   4.276   1.023   2.928 -0.0147  0.3265  0.0779
  132MOL   C26142443   4.416   1.089   2.901 -0.1655 -0.3677  0.0089
  132MOL   C26242444   4.453   1.079   2.756  0.2312 -1.0065  0.8093
  132MOL   C26342445   4.061   1.090   3.152 -0.1644  0.9806 -0.1982
  132MOL   H26442446   4.029   0.964   2.968  0.5972 -0.4759  2.3833
  132MOL   H26542447   4.286   0.962   3.018  1.4487 -1.6642 -1.3881
  132MOL   H26642448   4.248   0.947   2.855 -3.0700  0.2374  1.2622
  132MOL   H26742449   4.493   1.031   2.951 -0.5515  0.3022  1.4026
  132MOL   H26842450   4.417   1.187   2.948 -2.3503  0.2037 -1.0645
  132MOL   H26942451   4.546   1.130   2.731 -0.5188 -0.1076 -0.1931
  132MOL   H27042452   4.368   1.114   2.698 -0.6051 -3.0044  0.7718
  132MOL   H27142453   4.449   0.975   2.724 -1.9144 -0.6233 -0.2174
  132MOL   H27242454   4.157   1.126   3.187 -1.0247  1.3594  1.8471
  132MOL   H27342455   3.993   1.170   3.181 -0.2466  1.2456 -1.1288
  132MOL   C27442456   4.025   0.972   3.241  0.1663  0.1819  0.2399
  132MOL   O27542457   4.128   0.867   3.222  0.1098 -0.2886 -0.7745
  132MOL   C27642458   4.086   0.741   3.183 -0.4340  0.0148  0.0517
  132MOL   C27742459   4.218   0.657   3.168  0.3538  0.5413  0.1085
  132MOL   C27842460   4.285   0.643   3.306 -0.6897  0.3382  0.4283
  132MOL   C27942461   4.006   0.998   3.396 -0.2699 -0.0358  0.4264
  132MOL   H28042462   3.932   0.929   3.202 -0.7381  0.7981  1.6941
  132MOL   H28142463   4.030   0.696   3.265 -1.7965  2.1036  0.3186
  132MOL   H28242464   4.027   0.736   3.092  0.9322 -0.6407 -0.8104
  132MOL   H28342465   4.275   0.702   3.087 -1.0424 -0.9973 -1.7752
  132MOL   H28442466   4.201   0.554   3.136 -2.0046  0.2989  1.9437
  132MOL   H28542467   4.387   0.603   3.304 -1.2176 -1.2998  3.5636
  132MOL   H28642468   4.239   0.587   3.387  1.4521 -0.8222  0.8762
  132MOL   H28742469   4.291   0.747   3.337  3.0321  0.5193 -0.6180
  132MOL   H28842470   4.095   0.967   3.450  2.3399  0.7306 -3.2088
  132MOL   H28942471   4.001   1.106   3.407  1.9150 -0.0325  1.6772
  132MOL   C29042472   3.880   0.944   3.450  0.0701  0.1550 -0.3311
  132MOL   O29142473   3.858   0.965   3.583  0.5215  0.1626 -0.1456
  132MOL   C29242474   3.877   0.849   3.663  0.3787 -0.1189 -0.3129
  132MOL   C29342475   3.852   0.862   3.811 -0.4829  0.6408  0.0401
  132MOL   C29442476   3.710   0.921   3.824  0.2167  0.1396 -0.4944
  132MOL   C29542477   3.753   1.004   3.386 -0.3212 -0.6048  0.4507
  132MOL   H29642478   3.896   0.840   3.423  0.5468  0.3405 -0.7732
  132MOL   H29742479   3.813   0.770   3.624  1.6049 -1.2451 -0.0814
  132MOL   H29842480   3.981   0.822   3.643  0.0417  0.5601 -3.2118
  132MOL   H29942481   3.931   0.918   3.861  0.3024  0.6171 -1.1671
  132MOL   H30042482   3.854   0.764   3.859 -4.2405  0.7858  0.6509
  132MOL   H30142483   3.629   0.849   3.809 -0.9439  0.8304  2.1701
  132MOL   H30242484   3.699   0.995   3.745 -1.3148  0.7138  0.2314
  132MOL   H30342485   3.696   0.979   3.915  0.2423 -0.3586 -0.1670
  132MOL   H30442486   3.738   1.099   3.436  0.7154 -0.1461 -0.0880
  132MOL   H30542487   3.769   1.029   3.281  0.7158 -0.0710  0.7312
  132MOL   C30642488   3.629   0.915   3.403 -0.6507 -0.4478 -0.6287
  132MOL   O30742489   3.514   0.967   3.332 -0.6589 -0.3053  0.2060
  132MOL   C30842490   3.443   1.072   3.402  0.2414  0.3215  0.2389
  132MOL   C30942491   3.331   1.136   3.312 -0.1552 -0.2384  0.2706
  132MOL   C31042492   3.375   1.170   3.168 -0.2832 -0.0541  0.4201
  132MOL   C31142493   3.647   0.768   3.358 -1.0779 -0.2681  0.4438
  132MOL   H31242494   3.607   0.904   3.509 -2.4351 -1.3249 -1.0830
  132MOL   H31342495   3.405   1.024   3.493 -1.1467 -0.6267 -0.8094
  132MOL   H31442496   3.516   1.147   3.429  1.9636 -0.3728 -2.3113
  132MOL   H31542497   3.304   1.225   3.369  2.0589  0.4727  0.2584
  132MOL   H31642498   3.243   1.073   3.309  0.7287 -1.8554  4.6297
  132MOL   H31742499   3.295   1.224   3.118  0.7750  0.7730 -0.4059
  132MOL   H31842500   3.388   1.077   3.113 -4.2596 -0.1240 -0.5496
  132MOL   H31942501   3.466   1.230   3.175 -0.4818  0.3052 -0.1084
  132MOL   H32042502   3.714   0.722   3.431 -0.9517 -1.3524 -0.3463
  132MOL   H32142503   3.553   0.714   3.368 -0.7073 -1.0937 -0.4989
  132MOL   H32242504   3.689   0.756   3.259 -1.0849  3.9493 -0.1718
  133MOL     C142505   1.996   6.665   1.209  0.2453 -0.2955 -0.2368
  133MOL     O242506   1.928   6.744   1.108  0.2648  0.3249  0.3359
  133MOL     C342507   1.887   6.664   0.995 -0.8611  0.2355 -0.0084
  133MOL     C442508   1.748   6.596   1.012 -0.7088 -0.5327  0.2886
  133MOL     C542509   1.635   6.698   1.041 -0.3475 -0.1212 -0.3209
  133MOL     C642510   2.137   6.643   1.170 -0.4488 -0.1963 -0.5412
  133MOL     H742511   1.941   6.576   1.238 -2.4250  1.1709 -0.6591
  133MOL     H842512   1.892   6.733   0.911  1.5683  0.7580  0.5210
  133MOL     H942513   1.956   6.588   0.960  1.1648  2.1168 -0.2568
  133MOL    H1042514   1.751   6.531   1.100 -0.7190 -0.7278  0.1451
  133MOL    H1142515   1.722   6.533   0.927 -0.9148 -1.3062  0.9188
  133MOL    H1242516   1.585   6.739   0.953 -0.7856 -2.2607 -1.1018
  133MOL    H1342517   1.679   6.780   1.098 -2.2625  1.9683 -1.7399
  133MOL    H1442518   1.566   6.650   1.110 -0.7715 -0.1050 -0.7283
  133MOL    H1542519   2.131   6.564   1.095 -2.1234 -1.6333  1.0800
  133MOL    H1642520   2.177   6.734   1.125  0.0412  0.3675  0.9895
  133MOL    H1742521   1.985   6.724   1.300 -2.4330  1.0454 -1.3758
  133MOL    C1842522   2.223   6.596   1.285  0.0592 -0.0116 -0.1569
  133MOL    O1942523   2.158   6.474   1.325  0.2517 -0.2925  0.1913
  133MOL    C2042524   2.161   6.463   1.464 -0.4510 -0.3568  0.1476
  133MOL    C2142525   2.085   6.335   1.512 -0.2802 -0.3779 -0.0883
  133MOL    C2242526   2.147   6.204   1.473  0.6269 -0.2516  0.7551
  133MOL    C2342527   2.369   6.562   1.247 -0.3379  0.0219  0.3665
  133MOL    H2442528   2.216   6.669   1.366 -2.6824 -1.1335  0.6758
  133MOL    H2542529   2.263   6.461   1.503 -1.1391 -0.3175  2.0026
  133MOL    H2642530   2.116   6.549   1.513  1.3904  0.2683  0.7702
  133MOL    H2742531   1.981   6.339   1.479 -0.1732  0.8819 -0.3196
  133MOL    H2842532   2.078   6.335   1.621  1.6661 -1.1882  0.0592
  133MOL    H2942533   2.107   6.177   1.375 -0.5796 -0.3610  1.2649
  133MOL    H3042534   2.119   6.120   1.537  0.4369 -1.4739 -0.9043
  133MOL    H3142535   2.254   6.205   1.456  0.3321 -2.5555 -1.3492
  133MOL    H3242536   2.409   6.504   1.330  0.7270  0.2496  0.0177
  133MOL    H3342537   2.381   6.499   1.158  2.1624 -0.0055  0.6832
  133MOL    C3442538   2.460   6.686   1.223 -0.8967 -0.9599 -0.0821
  133MOL    O3542539   2.475   6.735   1.361 -0.0974 -0.3122  0.4610
  133MOL    C3642540   2.416   6.866   1.365  0.7304  0.1778  0.0981
  133MOL    C3742541   2.443   6.932   1.506  0.3645 -0.0825  0.0460
  133MOL    C3842542   2.376   7.068   1.535 -0.1749 -0.2876  0.3913
  133MOL    C3942543   2.605   6.663   1.160 -0.7034 -0.2563 -0.1942
  133MOL    H4042544   2.407   6.752   1.155 -0.1519 -1.1511 -0.8648
  133MOL    H4142545   2.460   6.929   1.288 -0.0885  1.7791  0.9252
  133MOL    H4242546   2.310   6.850   1.347  0.4415 -0.3594  2.1285
  133MOL    H4342547   2.550   6.924   1.524  0.1337 -3.3021  0.2385
  133MOL    H4442548   2.397   6.870   1.583  1.5854 -1.6415 -0.4522
  133MOL    H4542549   2.267   7.059   1.535 -0.1949 -0.0589  0.8925
  133MOL    H4642550   2.399   7.145   1.461 -2.1926 -0.7248 -0.7426
  133MOL    H4742551   2.404   7.115   1.629  2.2461  2.1661 -1.4817
  133MOL    H4842552   2.663   6.746   1.200 -0.4314 -0.5566  0.0268
  133MOL    H4942553   2.646   6.573   1.205  0.0791  0.5830  0.7866
  133MOL    C5042554   2.606   6.672   1.002  0.4414  1.2295  0.4058
  133MOL    O5142555   2.676   6.787   0.966 -0.1943  0.1285 -0.3925
  133MOL    C5242556   2.594   6.901   0.974  0.1358 -0.4396  1.0164
  133MOL    C5342557   2.666   6.993   0.875 -0.7044  0.3204  0.6182
  133MOL    C5442558   2.610   7.133   0.882 -0.6391  0.1362  0.1264
  133MOL    C5542559   2.679   6.551   0.933 -0.0626 -0.2616 -0.5030
  133MOL    H5642560   2.504   6.675   0.966 -0.1583  1.2994  2.0477
  133MOL    H5742561   2.489   6.886   0.948  0.0040  1.8920  0.1286
  133MOL    H5842562   2.608   6.942   1.074  0.3432 -3.0998  2.1283
  133MOL    H5942563   2.644   6.951   0.777 -1.4380  0.8582  0.5513
  133MOL    H6042564   2.773   6.991   0.896 -0.6228 -0.2385  0.1634
  133MOL    H6142565   2.660   7.208   0.821 -0.2697 -0.2491 -0.0507
  133MOL    H6242566   2.606   7.176   0.982 -0.1735  1.3129 -0.3514
  133MOL    H6342567   2.507   7.126   0.845 -0.5012 -1.2960 -0.0180
  133MOL    H6442568   2.690   6.585   0.830  2.0254  0.9204  0.0835
  133MOL    H6542569   2.783   6.545   0.966 -0.5968 -1.1545  1.0879
  133MOL    C6642570   2.594   6.425   0.933 -0.3852 -0.3448  0.1496
  133MOL    O6742571   2.576   6.387   1.067 -0.1377 -0.6693  0.4844
  133MOL    C6842572   2.681   6.308   1.128 -0.5426  0.7229 -0.3200
  133MOL    C6942573   2.632   6.286   1.275  0.0559  0.5949  0.9485
  133MOL    C7042574   2.507   6.193   1.277  0.4015  0.5941  0.1117
  133MOL    C7142575   2.451   6.437   0.868  0.5476 -0.4231  0.2985
  133MOL    H7242576   2.646   6.348   0.876 -0.1794  1.7770 -2.6375
  133MOL    H7342577   2.683   6.214   1.073 -3.9263  0.2466  0.2768
  133MOL    H7442578   2.777   6.359   1.120  1.3199 -2.6671 -0.2303
  133MOL    H7542579   2.606   6.374   1.333 -1.1236  1.3397 -0.6662
  133MOL    H7642580   2.711   6.239   1.334 -1.7762 -3.4668  0.3998
  133MOL    H7742581   2.420   6.241   1.232 -0.3647 -0.0562  0.8849
  133MOL    H7842582   2.492   6.180   1.385  1.6765 -1.8170  0.0252
  133MOL    H7942583   2.523   6.089   1.248  3.0618  1.6176 -2.2149
  133MOL    H8042584   2.396   6.348   0.899 -3.1036  1.7399  0.3391
  133MOL    H8142585   2.385   6.498   0.930 -2.7178 -1.8056 -1.7638
  133MOL    C8242586   2.442   6.477   0.717 -0.9495 -0.2810  0.1937
  133MOL    O8342587   2.531   6.395   0.630  0.3183  0.3605  0.1560
  133MOL    C8442588   2.593   6.462   0.530  0.3135 -0.3765  0.0901
  133MOL    C8542589   2.671   6.369   0.436 -0.2949 -0.1853  0.3841
  133MOL    C8642590   2.577   6.260   0.367 -0.0743  0.3489  0.1225
  133MOL    C8742591   2.306   6.441   0.659 -0.0411  0.0637  0.4709
  133MOL    H8842592   2.467   6.582   0.703 -1.5495 -0.1749 -0.0753
  133MOL    H8942593   2.517   6.513   0.470  0.4959  0.2080  0.3543
  133MOL    H9042594   2.670   6.535   0.555 -0.5417  0.2597  0.9079
  133MOL    H9142595   2.754   6.326   0.491 -1.4314 -0.7656  1.6743
  133MOL    H9242596   2.718   6.425   0.355 -0.2960  0.3303  0.7350
  133MOL    H9342597   2.631   6.178   0.318 -1.3300 -0.4089 -0.0223
  133MOL    H9442598   2.523   6.309   0.286  1.9080  2.4378  0.0371
  133MOL    H9542599   2.512   6.223   0.446 -0.5849 -0.2289 -0.5536
  133MOL    H9642600   2.312   6.457   0.551  0.5739 -2.4747  0.0926
  133MOL    H9742601   2.280   6.338   0.681 -1.3644 -0.0870 -1.6535
  133MOL    C9842602   2.195   6.534   0.716 -0.4802  0.3042  0.0092
  133MOL    O9942603   2.220   6.655   0.655 -0.4198 -0.2125 -0.1445
  133MOL   C10042604   2.147   6.769   0.692  0.5254 -0.0684  0.7097
  133MOL   C10142605   2.186   6.890   0.604  0.5526 -0.8043 -0.3606
  133MOL   C10242606   2.332   6.924   0.631  0.1458  0.9324  0.9497
  133MOL   C10342607   2.049   6.488   0.687 -0.0975  0.1941 -0.2986
  133MOL   H10442608   2.201   6.549   0.824 -1.0535 -3.2366  0.5761
  133MOL   H10542609   2.042   6.750   0.670  1.7907 -2.0965 -4.1571
  133MOL   H10642610   2.155   6.777   0.801  1.0402 -1.7304  0.8047
  133MOL   H10742611   2.123   6.978   0.621  1.2927  0.1214 -2.2538
  133MOL   H10842612   2.168   6.859   0.501 -3.4018 -0.1254  0.0713
  133MOL   H10942613   2.366   7.020   0.590  0.4282  0.4551  0.0447
  133MOL   H11042614   2.390   6.843   0.586  2.5868  2.1879  1.7024
  133MOL   H11142615   2.364   6.918   0.735 -0.2168  0.4731  1.0336
  133MOL   H11242616   1.974   6.557   0.726 -2.0378 -2.4199  0.7463
  133MOL   H11342617   2.027   6.477   0.581  0.2611  0.3491 -0.3882
  133MOL   C11442618   2.020   6.348   0.748 -0.2535 -0.0633 -0.1977
  133MOL   O11542619   2.072   6.331   0.881 -0.1863 -0.6248  0.1676
  133MOL   C11642620   2.118   6.194   0.896  0.1515  0.5736 -0.6587
  133MOL   C11742621   2.114   6.159   1.041  0.4397 -1.0307  0.4782
  133MOL   C11842622   1.970   6.113   1.092  0.1851 -0.4789 -0.1997
  133MOL   C11942623   1.868   6.316   0.760 -0.5093  0.1466  0.1371
  133MOL   H12042624   2.068   6.276   0.684  0.1686 -0.0512  0.1053
  133MOL   H12142625   2.071   6.123   0.828  2.3210 -0.1033 -1.4779
  133MOL   H12242626   2.221   6.194   0.862  0.2069  0.2145 -0.4888
  133MOL   H12342627   2.148   6.246   1.097 -0.9757  1.2173 -2.0719
  133MOL   H12442628   2.182   6.074   1.044  1.2150 -0.5301 -1.6596
  133MOL   H12542629   1.986   6.091   1.197  3.5969  0.5576 -0.4171
  133MOL   H12642630   1.938   6.029   1.029 -1.4908 -1.4560  1.9056
  133MOL   H12742631   1.897   6.191   1.074  0.3439  0.1356  1.7346
  133MOL   H12842632   1.862   6.222   0.815  1.9279 -0.4888 -0.6249
  133MOL   H12942633   1.810   6.395   0.808  0.7892  1.4527 -0.4370
  133MOL   C13042634   1.794   6.281   0.636 -0.5144 -0.3936 -0.1200
  133MOL   O13142635   1.857   6.171   0.573  0.7022  0.0712  0.0800
  133MOL   C13242636   1.877   6.201   0.434  0.0778  0.1279 -0.6281
  133MOL   C13342637   1.973   6.103   0.361  0.2354  0.0744  0.3460
  133MOL   C13442638   2.126   6.131   0.387 -0.6075  0.1928  0.0577
  133MOL   C13542639   1.643   6.246   0.671  0.2200 -0.3369  0.2012
  133MOL   H13642640   1.781   6.367   0.570  1.7654  0.2196  0.1818
  133MOL   H13742641   1.784   6.215   0.379  0.1349  1.3463 -0.4154
  133MOL   H13842642   1.929   6.297   0.432  0.6922 -0.1933 -0.3533
  133MOL   H13942643   1.957   6.108   0.253 -0.4143 -0.3433  0.4219
  133MOL   H14042644   1.939   6.006   0.398  0.6286  0.0194  0.5669
  133MOL   H14142645   2.201   6.077   0.329 -0.6221  0.8475 -0.5867
  133MOL   H14242646   2.150   6.092   0.485  0.0191 -0.5187 -0.3746
  133MOL   H14342647   2.139   6.239   0.392  1.1756 -0.0211  0.3800
  133MOL   H14442648   1.610   6.207   0.574 -0.8245 -0.2480  0.5193
  133MOL   H14542649   1.641   6.166   0.745 -1.3974 -1.2286 -0.7684
  133MOL   C14642650   1.549   6.364   0.721  0.4596  0.1478 -0.5368
  133MOL   O14742651   1.556   6.478   0.629  0.0875 -0.5330 -0.5686
  133MOL   C14842652   1.523   6.607   0.688 -0.1281  0.3665 -0.7409
  133MOL   C14942653   1.513   6.700   0.563  0.7257  0.1684  0.1232
  133MOL   C15042654   1.392   6.669   0.479 -0.9503  0.2165  0.4731
  133MOL   C15142655   1.402   6.321   0.732  0.1782  0.1180  0.3421
  133MOL   H15242656   1.588   6.395   0.818 -1.6813  3.4581 -0.6397
  133MOL   H15342657   1.435   6.619   0.751 -0.7752  0.3677 -1.6343
  133MOL   H15442658   1.610   6.642   0.744  1.3333 -2.5609 -1.0518
  133MOL   H15542659   1.601   6.689   0.500  0.1919 -0.3004 -0.5516
  133MOL   H15642660   1.522   6.804   0.596  2.4865  0.8064 -2.2751
  133MOL   H15742661   1.299   6.670   0.535 -1.1417 -0.3325  0.1626
  133MOL   H15842662   1.406   6.566   0.448 -1.3439 -0.0371  1.1416
  133MOL   H15942663   1.382   6.732   0.390  0.8135  0.9630  0.7879
  133MOL   H16042664   1.350   6.409   0.768 -0.2508  1.4852 -3.3896
  133MOL   H16142665   1.374   6.321   0.627  1.4287  0.6350  0.0010
  133MOL   C16242666   1.375   6.187   0.803  0.3344 -0.1750 -0.1104
  133MOL   O16342667   1.402   6.209   0.938  0.0574  0.8614  0.1207
  133MOL   C16442668   1.464   6.105   1.008  0.3879  0.1217  0.3817
  133MOL   C16542669   1.493   6.150   1.156  0.2362 -0.3006  0.1220
  133MOL   C16642670   1.602   6.250   1.171  0.5669  0.0013  0.8420
  133MOL   C16742671   1.231   6.137   0.791  0.2247 -0.6791  0.3589
  133MOL   H16842672   1.434   6.107   0.757  0.4630  0.7809 -1.6245
  133MOL   H16942673   1.385   6.030   1.016 -0.1546  0.5830 -0.5625
  133MOL   H17042674   1.550   6.059   0.959 -2.1982 -2.2223 -2.1121
  133MOL   H17142675   1.517   6.060   1.211  0.1682 -0.8893 -0.7989
  133MOL   H17242676   1.398   6.188   1.192  0.5809 -0.2766  1.0024
  133MOL   H17342677   1.704   6.210   1.165  0.9807  1.4995 -3.2324
  133MOL   H17442678   1.586   6.321   1.253 -0.8528 -1.1535  1.5924
  133MOL   H17542679   1.607   6.320   1.089  0.2085 -0.7655  0.1602
  133MOL   H17642680   1.199   6.067   0.869  0.7444  0.4273  1.5794
  133MOL   H17742681   1.161   6.219   0.806  1.3794  0.8726 -2.5799
  133MOL   C17842682   1.199   6.070   0.656  0.1105  0.3308 -0.7955
  133MOL   O17942683   1.256   5.938   0.640  0.1085 -0.0176  0.3776
  133MOL   C18042684   1.236   5.864   0.520  0.5002  0.1052 -0.0098
  133MOL   C18142685   1.319   5.924   0.407  0.6157 -0.0708 -0.2512
  133MOL   C18242686   1.456   5.924   0.450  0.0159  0.1793  0.1914
  133MOL   C18342687   1.047   6.088   0.614  0.3425 -0.4154  0.0314
  133MOL   H18442688   1.252   6.130   0.581  1.8921  1.4209  1.2723
  133MOL   H18542689   1.255   5.757   0.531 -1.5875 -0.4526 -1.4867
  133MOL   H18642690   1.133   5.873   0.486 -0.4467 -1.8725  2.1955
  133MOL   H18742691   1.276   6.023   0.392  0.0369 -0.3355 -0.3821
  133MOL   H18842692   1.303   5.868   0.315 -0.6489 -0.6183  0.2909
  133MOL   H18942693   1.513   5.968   0.368 -1.0979 -2.9028 -2.3755
  133MOL   H19042694   1.504   5.829   0.473  1.7445  0.6456 -1.3745
  133MOL   H19142695   1.466   5.973   0.547 -3.3404 -2.5102  2.0366
  133MOL   H19242696   1.009   5.987   0.604  0.4622 -0.6436  1.6948
  133MOL   H19342697   0.993   6.127   0.700  2.5682  1.8566  0.4909
  133MOL   C19442698   1.014   6.174   0.487 -0.0784  0.2937 -0.1270
  133MOL   O19542699   0.873   6.162   0.480  0.3966  0.3783  0.3776
  133MOL   C19642700   0.826   6.139   0.345  0.8497 -0.3354 -0.4911
  133MOL   C19742701   0.672   6.158   0.343  0.2684  0.1074  0.1827
  133MOL   C19842702   0.610   6.156   0.208 -0.0747 -0.6716  0.0374
  133MOL   C19942703   1.050   6.323   0.521  0.7133  0.4001  0.4095
  133MOL   H20042704   1.070   6.140   0.400  0.6360  0.1526  0.3838
  133MOL   H20142705   0.878   6.205   0.275  2.1145  0.1154  0.8484
  133MOL   H20242706   0.864   6.041   0.318 -0.3158 -0.2626 -2.4613
  133MOL   H20342707   0.649   6.256   0.385 -3.6980 -0.3399 -0.7103
  133MOL   H20442708   0.635   6.068   0.392 -0.8078 -0.3056 -1.3344
  133MOL   H20542709   0.636   6.249   0.156  3.5488 -1.4675  0.2411
  133MOL   H20642710   0.504   6.158   0.230 -0.3846 -2.1222 -1.2288
  133MOL   H20742711   0.626   6.068   0.145  0.0935 -0.1663 -0.6424
  133MOL   H20842712   1.007   6.336   0.620 -1.5848 -2.7327 -0.0958
  133MOL   H20942713   1.155   6.344   0.539  1.3906 -1.0648 -1.7161
  133MOL   C21042714   0.998   6.429   0.421  0.0570 -0.3173  0.3765
  133MOL   O21142715   0.988   6.555   0.481 -0.2061 -0.0504  0.0785
  133MOL   C21242716   0.864   6.575   0.550 -0.0916  0.0810 -0.2522
  133MOL   C21342717   0.852   6.721   0.591 -0.5958 -0.1899  0.2412
  133MOL   C21442718   0.962   6.760   0.686 -0.3999  0.1752  0.1809
  133MOL   C21542719   1.091   6.448   0.295  0.4777  0.1900  0.1698
  133MOL   H21642720   0.902   6.388   0.390  1.2745 -2.5726 -0.4870
  133MOL   H21742721   0.772   6.544   0.500  0.3797 -0.4102 -0.8257
  133MOL   H21842722   0.859   6.507   0.635 -1.8505 -1.3852 -1.4836
  133MOL   H21942723   0.756   6.755   0.629 -0.1246 -0.0151  1.2829
  133MOL   H22042724   0.858   6.787   0.504  1.5503 -2.0129 -1.0714
  133MOL   H22142725   0.970   6.709   0.782  0.2772  1.1582  0.6477
  133MOL   H22242726   0.945   6.863   0.716 -0.7127  0.8513 -2.1510
  133MOL   H22342727   1.064   6.747   0.650 -0.0910 -0.9094  1.4212
  133MOL   H22442728   1.195   6.468   0.321  1.5695 -1.3559 -2.7058
  133MOL   H22542729   1.089   6.350   0.247  0.6695  0.3721 -0.2153
  133MOL   C22642730   1.040   6.564   0.209 -0.3923  0.5160 -0.1734
  133MOL   O22742731   1.142   6.573   0.113  0.1428 -0.2491  0.2940
  133MOL   C22842732   1.233   6.681   0.132 -0.0875 -0.7179  0.3739
  133MOL   C22942733   1.302   6.697   7.825  1.2397 -0.6870 -0.8122
  133MOL   C23042734   1.220   6.747   7.712 -0.3704  0.2674 -0.0936
  133MOL   C23142735   0.901   6.542   0.150  0.3060 -0.0633  0.6510
  133MOL   H23242736   1.048   6.643   0.284  1.6358  0.0762  0.1115
  133MOL   H23342737   1.184   6.775   0.159  1.0668 -0.4431  1.5723
  133MOL   H23442738   1.308   6.656   0.207 -1.2621 -0.4644  1.6503
  133MOL   H23542739   1.351   6.601   7.806 -0.0229 -1.5056 -0.0702
  133MOL   H23642740   1.375   6.777   7.824  0.0959  0.3964  0.6554
  133MOL   H23742741   1.140   6.674   7.700 -1.7439  1.9003 -1.1568
  133MOL   H23842742   1.275   6.746   7.618 -1.6714 -0.4284 -0.8618
  133MOL   H23942743   1.176   6.846   7.726  0.7202  0.4659  2.0506
  133MOL   H24042744   0.883   6.454   0.088 -0.7041 -0.7191  1.8497
  133MOL   H24142745   0.829   6.524   0.229 -0.3800 -3.1032 -0.5608
  133MOL   C24242746   0.851   6.663   0.075  0.6058  0.5318 -0.5129
  133MOL   O24342747   0.722   6.640   0.021 -0.1066 -0.2017 -0.3810
  133MOL   C24442748   0.717   6.633   7.709 -0.0953  0.4881  0.0071
  133MOL   C24542749   0.570   6.618   7.669 -0.7017 -0.6501  0.2851
  133MOL   C24642750   0.499   6.500   7.738  0.3826  0.1549  0.0129
  133MOL   C24742751   0.839   6.784   0.168 -0.0549  0.2726 -0.2056
  133MOL   H24842752   0.928   6.685   0.001  2.1254  1.6763  1.3397
  133MOL   H24942753   0.763   6.720   7.662  0.2181  0.4112  0.1689
  133MOL   H25042754   0.769   6.543   7.678 -1.6136  0.1166 -1.5290
  133MOL   H25142755   0.560   6.611   7.561 -1.3003  1.1306  0.2158
  133MOL   H25242756   0.520   6.712   7.694  1.1272 -0.1574  2.2112
  133MOL   H25342757   0.493   6.506   0.019  0.5319  3.8578 -0.1250
  133MOL   H25442758   0.546   6.402   7.729  0.2797 -0.1825  2.7140
  133MOL   H25542759   0.398   6.484   7.701  0.3959  1.7719 -0.7470
  133MOL   H25642760   0.779   6.754   0.254  1.3245 -1.4374  0.1789
  133MOL   H25742761   0.937   6.798   0.214 -0.2768 -0.4250  0.4882
  133MOL   C25842762   0.780   6.907   0.083 -0.1560 -0.9331 -0.2526
  133MOL   O25942763   0.718   7.016   0.162  0.1465 -0.1010 -0.0344
  133MOL   C26042764   0.594   6.968   0.214 -0.0485 -0.6488  0.3823
  133MOL   C26142765   0.547   7.058   0.328  0.8294  0.1300  0.1454
  133MOL   C26242766   0.488   7.187   0.278  0.0582  0.1952 -0.2906
  133MOL   C26342767   0.886   6.983   7.826 -0.1147 -0.2587  0.0952
  133MOL   H26442768   0.701   6.872   0.017 -1.7433  0.9968  0.5718
  133MOL   H26542769   0.516   6.957   0.139 -2.2326 -1.8663  2.7512
  133MOL   H26642770   0.609   6.868   0.255 -0.5896 -1.4236 -1.2756
  133MOL   H26742771   0.632   7.091   0.388  1.9476  0.0521 -1.3611
  133MOL   H26842772   0.473   7.013   0.394  1.1592 -1.8567 -0.8062
  133MOL   H26942773   0.444   7.237   0.364  0.3347 -2.2557  1.3193
  133MOL   H27042774   0.417   7.168   0.198  0.3727  2.2331 -1.1083
  133MOL   H27142775   0.572   7.251   0.250  1.9675 -1.4288  1.5558
  133MOL   H27242776   0.956   6.917   7.774  1.7557  0.6706  1.3671
  133MOL   H27342777   0.834   7.053   7.760 -0.8105  0.3055  1.2200
  133MOL   C27442778   0.974   7.076   0.079  0.4123 -0.7134 -0.5317
  133MOL   O27542779   1.070   6.991   0.132 -0.9031 -0.4788 -0.3694
  133MOL   C27642780   1.139   7.040   0.249  0.1009 -0.0838  0.1544
  133MOL   C27742781   1.080   6.970   0.369 -0.5922 -1.0592  0.1401
  133MOL   C27842782   1.164   6.989   0.490  0.1404  0.5222  0.0562
  133MOL   C27942783   1.054   7.168   7.814  0.3884  0.2594  0.1855
  133MOL   H28042784   0.932   7.130   0.164 -1.4160  0.7227 -2.3358
  133MOL   H28142785   1.241   7.005   0.240  0.3314  0.7391 -0.5763
  133MOL   H28242786   1.137   7.149   0.255  1.8378  0.0302 -1.0723
  133MOL   H28342787   1.070   6.862   0.356  0.3532 -1.1719  0.3403
  133MOL   H28442788   0.983   7.017   0.388  0.4449  2.6071 -2.9390
  133MOL   H28542789   1.252   6.925   0.498 -1.6362 -2.2121 -1.6753
  133MOL   H28642790   1.108   6.961   0.579 -1.3986 -0.5211 -1.2215
  133MOL   H28742791   1.187   7.096   0.499 -0.1932  0.7296 -1.4059
  133MOL   H28842792   1.159   7.167   0.017 -0.1976 -0.1914  2.2246
  133MOL   H28942793   1.054   7.124   7.714 -1.2539 -1.2326  0.8066
  133MOL   C29042794   1.011   7.321   7.819  0.5686  0.0784 -0.4600
  133MOL   O29142795   1.019   7.358   0.129 -0.3086  0.9103  0.1360
  133MOL   C29242796   0.923   7.459   0.160  0.2933 -0.8657  0.3531
  133MOL   C29342797   0.956   7.531   0.289  0.3821  0.6944 -0.0436
  133MOL   C29442798   0.960   7.441   0.416 -0.3764  0.0316 -0.8783
  133MOL   C29542799   1.100   7.426   7.737  0.9687 -0.1765 -0.2221
  133MOL   H29642800   0.911   7.329   7.777  0.6098 -0.9202 -0.7614
  133MOL   H29742801   0.926   7.538   0.085 -0.1702  1.2241  2.4563
  133MOL   H29842802   0.825   7.411   0.165  0.2330 -0.9473 -1.3821
  133MOL   H29942803   0.874   7.602   0.300  1.3192  1.9090 -0.7559
  133MOL   H30042804   1.048   7.589   0.287  1.8485 -1.5738  0.3374
  133MOL   H30142805   1.035   7.365   0.398 -0.6495 -0.1440 -1.2886
  133MOL   H30242806   0.869   7.386   0.441 -0.0065 -0.4947 -0.7102
  133MOL   H30342807   0.982   7.508   0.499  2.0186  1.7377 -2.8310
  133MOL   H30442808   1.084   7.532   7.756 -2.5586 -0.9067  1.3333
  133MOL   H30542809   1.204   7.406   7.761  0.7428 -1.1267  0.0086
  133MOL   C30642810   1.081   7.413   7.579  0.5525  0.1341  0.7283
  133MOL   O30742811   0.950   7.467   7.548 -0.6622 -0.2019  0.2598
  133MOL   C30842812   0.882   7.393   7.447 -0.1259  0.0623 -0.1114
  133MOL   C30942813   0.756   7.459   7.393  0.2410  0.5619 -0.3663
  133MOL   C31042814   0.697   7.380   7.279  0.1157 -0.5393  0.2447
  133MOL   C31142815   1.187   7.482   7.503 -0.0572  0.3041  0.0966
  133MOL   H31242816   1.080   7.308   7.552 -1.0073  0.6070 -1.1109
  133MOL   H31342817   0.946   7.365   7.362 -0.9194 -0.2660 -0.6074
  133MOL   H31442818   0.867   7.296   7.494 -0.1115  0.6020  1.0238
  133MOL   H31542819   0.789   7.560   7.367 -1.8369  0.9152 -1.7340
  133MOL   H31642820   0.680   7.468   7.471  1.6673 -0.8439  1.2201
  133MOL   H31742821   0.628   7.444   7.224 -0.4808  0.4300  2.0677
  133MOL   H31842822   0.644   7.287   7.301 -1.3755  0.2764  0.2372
  133MOL   H31942823   0.773   7.359   7.204 -0.0248  0.4286 -0.1725
  133MOL   H32042824   1.286   7.456   7.540 -0.8339 -2.1614  0.4953
  133MOL   H32142825   1.178   7.452   7.398  1.4625  0.6014 -0.1341
  133MOL   H32242826   1.195   7.591   7.508 -0.2638  0.4097 -1.3634
  134MOL     C142827   1.441   1.318   1.733 -0.5755 -0.4140  0.0385
  134MOL     O242828   1.421   1.183   1.693 -0.4978  0.1933 -0.6986
  134MOL     C342829   1.549   1.113   1.694 -0.4222 -0.2255  0.2782
  134MOL     C442830   1.506   0.962   1.691  0.4079 -0.0671  0.1447
  134MOL     C542831   1.634   0.886   1.711 -0.6412  0.5623  0.5771
  134MOL     C642832   1.300   1.377   1.766  0.1956 -0.0575 -0.7335
  134MOL     H742833   1.482   1.385   1.657  0.3407 -1.2743 -0.2343
  134MOL     H842834   1.617   1.149   1.617  0.2689 -0.4058  0.7997
  134MOL     H942835   1.589   1.132   1.794 -0.2075  1.9831 -0.2081
  134MOL    H1042836   1.468   0.944   1.590  2.0235 -0.8648 -0.3482
  134MOL    H1142837   1.435   0.941   1.771  0.0009  2.1884  0.3942
  134MOL    H1242838   1.635   0.798   1.647  2.5592 -0.2690  1.7230
  134MOL    H1342839   1.638   0.865   1.818  1.6985 -0.4798  0.3028
  134MOL    H1442840   1.728   0.936   1.687 -0.2302 -0.6155 -0.2732
  134MOL    H1542841   1.244   1.389   1.673  2.0801  0.7554 -1.8097
  134MOL    H1642842   1.249   1.298   1.821  2.1392  0.9696  2.6784
  134MOL    H1742843   1.495   1.319   1.828  1.7394 -1.2178 -1.2346
  134MOL    C1842844   1.299   1.501   1.860 -0.1135  0.3417 -0.0803
  134MOL    O1942845   1.365   1.609   1.800 -0.1964 -0.1427 -0.2098
  134MOL    C2042846   1.454   1.690   1.875 -0.0219 -0.5012 -0.5506
  134MOL    C2142847   1.514   1.790   1.778 -0.4686 -0.1124  0.1615
  134MOL    C2242848   1.415   1.889   1.723 -0.7536 -0.2006 -0.0306
  134MOL    C2342849   1.154   1.564   1.882 -0.3358  0.6108  0.8321
  134MOL    H2442850   1.344   1.483   1.957  3.5826  1.0790 -1.5900
  134MOL    H2542851   1.390   1.749   1.941  0.3027  0.8884 -1.4555
  134MOL    H2642852   1.537   1.640   1.926  0.4727  1.8849  1.0639
  134MOL    H2742853   1.549   1.735   1.691 -2.1254 -1.2501  0.2013
  134MOL    H2842854   1.606   1.831   1.820 -0.2834 -0.9297  0.5689
  134MOL    H2942855   1.370   1.955   1.797  0.1555 -2.1085  2.3196
  134MOL    H3042856   1.337   1.838   1.667  1.0344 -3.2776  0.1558
  134MOL    H3142857   1.460   1.948   1.643  1.4786 -2.2647 -0.3497
  134MOL    H3242858   1.173   1.656   1.938 -1.1988  0.9717  0.5300
  134MOL    H3342859   1.110   1.587   1.785  0.0880  0.8687  0.7005
  134MOL    C3442860   1.047   1.477   1.950  0.1068  0.0304  0.5896
  134MOL    O3542861   1.092   1.477   2.086 -0.0442  0.0546  0.0336
  134MOL    C3642862   1.062   1.355   2.150 -0.4701  0.2227 -0.2598
  134MOL    C3742863   1.023   1.372   2.303  0.2406 -0.6927  0.0653
  134MOL    C3842864   0.913   1.475   2.328 -0.0226  0.5439 -0.2916
  134MOL    C3942865   0.921   1.557   1.949  0.2320  0.3239  0.3246
  134MOL    H4042866   1.042   1.382   1.897 -1.3320  0.9057 -0.8933
  134MOL    H4142867   0.979   1.309   2.097  0.6163 -0.6244 -1.2240
  134MOL    H4242868   1.149   1.290   2.138  0.6656  1.6037  0.2970
  134MOL    H4342869   1.113   1.403   2.358  0.3805 -0.8482 -0.0739
  134MOL    H4442870   0.992   1.277   2.346  1.0168 -1.7066 -1.5648
  134MOL    H4542871   0.869   1.461   2.427  0.9305 -1.0066 -0.0679
  134MOL    H4642872   0.848   1.483   2.241 -0.8523 -3.8272 -0.1617
  134MOL    H4742873   0.960   1.573   2.322  0.4706  0.2551 -1.3036
  134MOL    H4842874   0.858   1.539   2.036  0.0962  2.5830  0.7332
  134MOL    H4942875   0.943   1.662   1.970  0.2340  0.1405  1.2405
  134MOL    C5042876   0.850   1.532   1.816  0.1622  0.8652  0.1848
  134MOL    O5142877   0.800   1.401   1.826  0.1497 -0.2515  0.2082
  134MOL    C5242878   0.787   1.332   1.698  0.0676 -0.5058 -1.4161
  134MOL    C5342879   0.761   1.184   1.729  0.4703  0.5274  0.2760
  134MOL    C5442880   0.870   1.113   1.807  0.2698  0.7908  0.3339
  134MOL    C5542881   0.733   1.637   1.792  0.0460  0.1033 -0.0153
  134MOL    H5642882   0.920   1.532   1.733  0.3955  1.0188  0.3795
  134MOL    H5742883   0.702   1.368   1.641  0.9153  0.1047 -2.3059
  134MOL    H5842884   0.878   1.347   1.640  1.0039 -1.7971 -0.3076
  134MOL    H5942885   0.742   1.127   1.638 -0.9446  0.8501  0.3599
  134MOL    H6042886   0.665   1.168   1.777 -0.6892  2.1666 -1.4128
  134MOL    H6142887   0.964   1.149   1.764 -1.0798  3.6988 -0.3420
  134MOL    H6242888   0.855   1.006   1.811  1.7812  0.4271 -2.5401
  134MOL    H6342889   0.861   1.140   1.913 -1.4817 -1.7309  0.8627
  134MOL    H6442890   0.666   1.601   1.714  0.4974 -0.3668 -0.1850
  134MOL    H6542891   0.685   1.641   1.890  3.1600 -1.1157  1.6328
  134MOL    C6642892   0.779   1.774   1.740  0.3924  0.3128 -0.2090
  134MOL    O6742893   0.871   1.760   1.635 -0.3778 -0.2539  0.4800
  134MOL    C6842894   0.981   1.854   1.627 -0.0836  0.5872  0.1916
  134MOL    C6942895   1.058   1.838   1.494 -0.0861  0.1059 -0.1784
  134MOL    C7042896   1.110   1.696   1.484 -0.5650  0.5813  0.0386
  134MOL    C7142897   0.674   1.874   1.695 -0.4554  0.1612 -0.2007
  134MOL    H7242898   0.839   1.814   1.821  1.4392  0.0952 -0.8519
  134MOL    H7342899   0.940   1.955   1.629 -1.2660  0.1975 -2.3182
  134MOL    H7442900   1.045   1.842   1.714  2.0202  1.2338 -1.2305
  134MOL    H7542901   1.145   1.903   1.491 -1.5772  2.0814 -2.9561
  134MOL    H7642902   0.987   1.863   1.415 -0.5655 -0.8919 -0.0691
  134MOL    H7742903   1.162   1.680   1.389 -1.8861  1.7686 -0.9117
  134MOL    H7842904   1.020   1.635   1.473 -0.1282  0.3244 -2.3466
  134MOL    H7942905   1.173   1.672   1.569  1.2472 -0.7480 -1.6397
  134MOL    H8042906   0.722   1.971   1.682  0.8847 -0.4393  0.1044
  134MOL    H8142907   0.636   1.853   1.595  1.9245  0.5629 -1.2383
  134MOL    C8242908   0.565   1.901   1.794  0.1416  0.2740  0.2743
  134MOL    O8342909   0.618   1.957   1.914  0.0070 -0.0259 -0.1141
  134MOL    C8442910   0.547   1.937   2.033 -0.2340 -0.8263  0.8106
  134MOL    C8542911   0.590   2.055   2.131 -0.5564 -0.2741 -0.5621
  134MOL    C8642912   0.743   2.052   2.168 -0.3757  0.1387  0.0072
  134MOL    C8742913   0.459   2.003   1.743  0.1275  0.3935 -0.3654
  134MOL    H8842914   0.522   1.803   1.811 -0.0747  0.3148 -0.0281
  134MOL    H8942915   0.441   1.930   2.009  0.0591  1.0972 -1.2190
  134MOL    H9042916   0.564   1.839   2.078 -0.4162 -0.6248  1.3232
  134MOL    H9142917   0.532   2.052   2.223  2.1316 -0.0252  1.1832
  134MOL    H9242918   0.586   2.148   2.075 -3.1679  0.8061  1.2945
  134MOL    H9342919   0.792   2.146   2.192  2.2834 -0.9969 -0.8070
  134MOL    H9442920   0.792   2.001   2.085  0.5776  0.6006  0.2836
  134MOL    H9542921   0.762   1.984   2.251  1.0331  1.5666  0.8741
  134MOL    H9642922   0.384   2.011   1.822 -0.9930  2.2296 -1.5707
  134MOL    H9742923   0.506   2.100   1.729 -1.2597  1.1226 -0.0823
  134MOL    C9842924   0.390   1.953   1.613  0.6885 -0.5368  0.1244
  134MOL    O9942925   0.343   1.817   1.630  0.2934  0.2489  0.3804
  134MOL   C10042926   0.355   1.731   1.523  0.4446  1.4165 -0.5245
  134MOL   C10142927   0.284   1.596   1.558  0.4721  0.6762 -0.4320
  134MOL   C10242928   0.383   1.505   1.637  0.0018 -0.4663  0.2744
  134MOL   C10342929   0.261   2.030   1.565 -0.3940 -0.7678  0.1059
  134MOL   H10442930   0.450   1.954   1.521  2.0177 -0.7305  0.9782
  134MOL   H10542931   0.307   1.778   1.436 -2.6811  2.7077  1.7788
  134MOL   H10642932   0.458   1.707   1.496  0.6726  2.0303 -0.2045
  134MOL   H10742933   0.258   1.550   1.462  1.1838 -0.1146 -0.2491
  134MOL   H10842934   0.187   1.609   1.605  0.2524 -0.8976 -0.4247
  134MOL   H10942935   0.343   1.419   1.690  0.1762 -1.7344 -1.6294
  134MOL   H11042936   0.434   1.574   1.705 -0.6016 -1.5334  1.8394
  134MOL   H11142937   0.458   1.463   1.570 -0.5827 -1.9397  0.5405
  134MOL   H11242938   0.191   1.973   1.504  1.3587 -1.3280 -1.4281
  134MOL   H11342939   0.203   2.053   1.655 -0.1559 -2.3402  0.6698
  134MOL   C11442940   0.303   2.165   1.511 -0.3985  0.1064  0.2342
  134MOL   O11542941   0.284   2.167   1.375 -0.0420 -0.5519  0.1315
  134MOL   C11642942   0.384   2.092   1.307 -0.3453  0.2050  0.7884
  134MOL   C11742943   0.371   2.145   1.162  0.2236 -0.0490 -0.1373
  134MOL   C11842944   0.227   2.136   1.115 -0.8120 -0.4926 -0.2552
  134MOL   C11942945   0.223   2.291   1.569  0.5717 -0.5784 -0.3102
  134MOL   H12042946   0.407   2.189   1.533 -0.0551 -0.4276 -0.7789
  134MOL   H12142947   0.486   2.106   1.344 -1.1502  0.8541  2.8402
  134MOL   H12242948   0.360   1.986   1.295 -0.3318  0.3162 -0.2655
  134MOL   H12342949   0.431   2.086   1.093 -0.8382  0.2249 -1.3132
  134MOL   H12442950   0.412   2.246   1.163  0.1840 -0.0158 -1.4667
  134MOL   H12542951   0.209   2.029   1.100  1.3350 -0.8190 -0.5632
  134MOL   H12642952   0.213   2.195   1.025 -1.3568  2.8756  1.9625
  134MOL   H12742953   0.154   2.174   1.187 -0.2555 -0.2296  0.1715
  134MOL   H12842954   0.121   2.283   1.530  0.4988 -4.3016  0.4593
  134MOL   H12942955   0.222   2.285   1.678 -0.3947 -1.2758 -0.3487
  134MOL   C13042956   0.292   2.422   1.537 -0.0703 -0.2064  0.3378
  134MOL   O13142957   0.197   2.523   1.492 -0.4502  0.1574 -0.1635
  134MOL   C13242958   0.168   2.522   1.354  0.0951  0.4903  0.1475
  134MOL   C13342959   0.104   2.649   1.311 -0.3763  1.1696 -0.5176
  134MOL   C13442960   0.200   2.754   1.268 -0.2099  0.1672 -0.3040
  134MOL   C13542961   0.368   2.492   1.653  0.0859 -0.0951 -0.3794
  134MOL   H13642962   0.361   2.416   1.453 -1.6523 -0.0154 -1.0002
  134MOL   H13742963   0.255   2.498   1.293 -0.4000 -2.9561  0.6861
  134MOL   H13842964   0.095   2.444   1.334  2.6983 -1.5799 -1.5774
  134MOL   H13942965   0.036   2.684   1.389  0.6296 -1.8107  1.7683
  134MOL   H14042966   0.050   2.619   1.222  1.7197  0.2394 -1.4950
  134MOL   H14142967   0.263   2.722   1.184  0.8003 -0.5458  0.7020
  134MOL   H14242968   0.271   2.762   1.350 -1.1800 -1.6346  0.7325
  134MOL   H14342969   0.166   2.855   1.246  1.8753  1.0410  0.2919
  134MOL   H14442970   0.407   2.588   1.619 -0.2412  0.6122  1.1857
  134MOL   H14542971   0.292   2.513   1.728 -0.1090 -0.6206 -0.4287
  134MOL   C14642972   0.486   2.413   1.715 -0.0298 -0.0628  0.2655
  134MOL   O14742973   0.595   2.407   1.627  0.2561 -0.2700  0.3122
  134MOL   C14842974   0.676   2.301   1.645 -1.0962  0.6186  0.5724
  134MOL   C14942975   0.809   2.343   1.590 -0.4066  0.1238 -0.0002
  134MOL   C15042976   0.818   2.369   1.437  0.0039 -0.6621  0.2639
  134MOL   C15142977   0.533   2.472   1.844  0.5050  0.5301 -0.1182
  134MOL   H15242978   0.452   2.312   1.739  0.7546 -0.1312  1.1020
  134MOL   H15342979   0.709   2.267   1.744  2.0174 -0.2891 -0.7280
  134MOL   H15442980   0.648   2.209   1.592 -0.4448  0.4981  0.4391
  134MOL   H15542981   0.879   2.259   1.598 -0.2760 -0.0158 -2.1240
  134MOL   H15642982   0.844   2.425   1.652  0.9482  1.2471 -2.1771
  134MOL   H15742983   0.911   2.423   1.421  0.1188 -0.6113  1.0866
  134MOL   H15842984   0.741   2.443   1.416 -0.6122 -1.4854 -0.3969
  134MOL   H15942985   0.809   2.287   1.365 -3.0473  0.5296 -0.8108
  134MOL   H16042986   0.633   2.432   1.862 -0.3505 -2.6720 -2.1244
  134MOL   H16142987   0.539   2.579   1.825 -2.8721  0.5523 -1.4131
  134MOL   C16242988   0.430   2.468   1.961 -0.1122  0.0790 -0.4047
  134MOL   O16342989   0.357   2.339   1.947 -0.2246  0.3880 -0.2373
  134MOL   C16442990   0.222   2.335   1.990 -0.0552  0.3952  0.6334
  134MOL   C16542991   0.184   2.185   2.005 -0.4278 -0.0360  0.2903
  134MOL   C16642992   0.251   2.135   2.136  0.0533  0.0351 -0.1902
  134MOL   C16742993   0.475   2.483   2.113 -0.3655 -0.6698  0.4302
  134MOL   H16842994   0.353   2.543   1.945  0.3280  0.8631  1.1197
  134MOL   H16942995   0.200   2.391   2.081  0.2016  1.4999  0.0260
  134MOL   H17042996   0.174   2.382   1.904  1.5392 -2.1658 -1.7382
  134MOL   H17142997   0.212   2.135   1.913 -0.1729  1.0691 -0.2391
  134MOL   H17242998   0.076   2.174   2.015 -0.5701 -0.3321 -1.5432
  134MOL   H17342999   0.231   2.191   2.227  2.4629  2.6692 -1.2171
  134MOL   H17443000   0.356   2.161   2.123 -0.1638  0.4252 -1.1840
  134MOL   H17543001   0.243   2.028   2.155 -0.3417  0.0167 -0.4495
  134MOL   H17643002   0.389   2.469   2.180 -0.0899  0.4551  1.0454
  134MOL   H17743003   0.542   2.399   2.130  2.2603  1.5513  1.4348
  134MOL   C17843004   0.558   2.610   2.140 -0.0292  0.4125  0.2417
  134MOL   O17943005   0.681   2.605   2.072  0.3046 -0.4167 -0.4406
  134MOL   C18043006   0.786   2.688   2.114  0.0495  0.2705  0.3621
  134MOL   C18143007   0.875   2.595   2.198  0.4569  0.0999  0.1731
  134MOL   C18243008   1.009   2.661   2.247  0.7836 -0.2934 -0.0552
  134MOL   C18343009   0.477   2.737   2.102  0.4658 -0.2637 -0.1847
  134MOL   H18443010   0.567   2.597   2.248  2.1617  0.0679  0.0500
  134MOL   H18543011   0.845   2.715   2.027  1.3534  0.8228  1.4055
  134MOL   H18643012   0.764   2.788   2.150  1.8409  1.3857 -1.5287
  134MOL   H18743013   0.896   2.509   2.134 -1.1065  0.7302 -1.2128
  134MOL   H18843014   0.824   2.562   2.288 -1.3614 -1.0141 -1.2165
  134MOL   H18943015   1.067   2.710   2.169 -1.6826 -0.9907 -2.4018
  134MOL   H19043016   1.069   2.589   2.303  1.8897  0.8924  0.3054
  134MOL   H19143017   0.991   2.738   2.321 -0.9268 -1.2553  0.5537
  134MOL   H19243018   0.535   2.826   2.127  0.8378 -1.3466  3.1463
  134MOL   H19343019   0.474   2.742   1.994 -1.9215 -0.8521 -0.1733
  134MOL   C19443020   0.345   2.758   2.183  0.4314  0.0508 -0.0929
  134MOL   O19543021   0.382   2.766   2.320  0.4941  0.5139 -0.0835
  134MOL   C19643022   0.274   2.763   2.409 -0.1755 -0.6153 -0.4313
  134MOL   C19743023   0.323   2.731   2.549  0.3065  0.5008 -0.6193
  134MOL   C19843024   0.216   2.677   2.640  0.4315 -0.0698  0.2952
  134MOL   C19943025   0.261   2.888   2.147 -0.6161  0.3707  0.1287
  134MOL   H20043026   0.274   2.677   2.164 -0.3569  0.6197  0.3700
  134MOL   H20143027   0.233   2.864   2.421  0.1972 -0.6465  1.2506
  134MOL   H20243028   0.190   2.703   2.374 -1.8605  1.3644  0.1172
  134MOL   H20343029   0.371   2.816   2.599 -0.9612  1.5751 -1.1747
  134MOL   H20443030   0.408   2.663   2.546  0.5402  0.6832  1.1842
  134MOL   H20543031   0.144   2.618   2.583 -0.4203  1.5492 -0.3291
  134MOL   H20643032   0.140   2.750   2.668  0.8682  0.5271 -0.0826
  134MOL   H20743033   0.255   2.616   2.721  0.1156  0.6572  1.0039
  134MOL   H20843034   0.189   2.920   2.222 -0.4755  0.7662  0.0937
  134MOL   H20943035   0.335   2.967   2.136 -0.7888  0.5901  0.5362
  134MOL   C21043036   0.187   2.879   2.007  1.8172  0.5681 -0.4699
  134MOL   O21143037   0.069   2.808   2.040 -0.1152 -0.7298 -0.2879
  134MOL   C21243038   0.046   2.686   1.965 -0.3114  0.6573  0.2271
  134MOL   C21343039   7.787   2.586   2.037  0.0141 -0.5988  0.7159
  134MOL   C21443040   7.656   2.654   2.079  0.2940  0.2139 -0.5233
  134MOL   C21543041   0.128   3.021   1.962  0.3698  0.5488 -0.1613
  134MOL   H21643042   0.251   2.839   1.928  2.0335 -0.6446  0.3111
  134MOL   H21743043   0.007   2.713   1.867 -1.5129 -0.9269  0.2502
  134MOL   H21843044   0.134   2.624   1.951 -0.5110  0.5915 -0.7611
  134MOL   H21943045   0.007   2.549   2.128  0.9799  1.7149  1.1939
  134MOL   H22043046   7.772   2.491   1.985 -1.2586  0.3649 -0.7338
  134MOL   H22143047   7.607   2.697   1.992  0.3903 -0.9227 -1.1554
  134MOL   H22243048   7.668   2.734   2.152 -0.2889 -1.0725  1.0294
  134MOL   H22343049   7.581   2.583   2.115 -1.0955  1.6619 -0.5507
  134MOL   H22443050   0.036   3.006   1.906 -0.2261 -0.2349  1.0303
  134MOL   H22543051   0.101   3.076   2.052  1.1624 -0.3829  0.6539
  134MOL   C22643052   0.230   3.106   1.877  0.2450 -0.5165  0.2225
  134MOL   O22743053   0.223   3.078   1.738  0.0615  0.0379 -0.2997
  134MOL   C22843054   0.326   2.993   1.687  0.0785  0.3148 -0.1941
  134MOL   C22943055   0.285   2.944   1.548  0.1917  0.5704  0.2591
  134MOL   C23043056   0.286   3.054   1.447  0.3248 -0.3178  0.3189
  134MOL   C23143057   0.216   3.257   1.901  0.8315  0.4930 -0.3504
  134MOL   H23243058   0.330   3.073   1.902  0.0387  0.5256  2.5698
  134MOL   H23343059   0.422   3.043   1.679 -0.4500  1.1687 -1.3171
  134MOL   H23443060   0.330   2.900   1.743 -1.1557 -0.3816 -1.2427
  134MOL   H23543061   0.187   2.897   1.543  0.6085 -0.3438  0.5415
  134MOL   H23643062   0.344   2.854   1.526 -2.6499 -1.2147 -0.3142
  134MOL   H23743063   0.276   3.022   1.343  2.8252  1.0396 -0.3851
  134MOL   H23843064   0.377   3.114   1.447  0.0550  0.1993 -2.5422
  134MOL   H23943065   0.209   3.129   1.463  0.3638  0.5614 -3.1577
  134MOL   H24043066   0.117   3.283   1.862  0.8283  0.0853 -0.6253
  134MOL   H24143067   0.217   3.278   2.008 -2.0219  0.4817 -0.2683
  134MOL   C24243068   0.310   3.354   1.823 -0.1609  0.7191 -0.0323
  134MOL   O24343069   0.290   3.491   1.841 -0.1139  0.0064 -1.0221
  134MOL   C24443070   0.166   3.546   1.805 -0.1321  0.0872  0.1359
  134MOL   C24543071   0.163   3.694   1.820  0.3263 -0.1230  0.3820
  134MOL   C24643072   0.039   3.760   1.744 -0.8781 -0.2300  0.0143
  134MOL   C24743073   0.455   3.312   1.850 -0.1133 -0.4356  0.7205
  134MOL   H24843074   0.279   3.334   1.721  0.0947 -1.8626  0.3773
  134MOL   H24943075   0.140   3.520   1.703 -1.3281  1.0603  0.1676
  134MOL   H25043076   0.089   3.512   1.875  1.6694 -2.3608  0.9929
  134MOL   H25143077   0.255   3.729   1.774 -2.0101  1.5988 -3.1871
  134MOL   H25243078   0.174   3.721   1.926  1.6628  1.0308 -0.0229
  134MOL   H25343079   7.768   3.756   1.791 -1.4570  3.7245 -0.6781
  134MOL   H25443080   0.026   3.720   1.644 -0.8515 -1.0726  0.3449
  134MOL   H25543081   0.045   3.867   1.723 -2.4729 -0.2514 -0.6474
  134MOL   H25643082   0.471   3.218   1.798 -1.1414 -0.6116  0.7181
  134MOL   H25743083   0.524   3.386   1.809 -0.6466  0.8942  2.1537
  134MOL   C25843084   0.498   3.288   1.992  0.3625  0.0288 -0.6199
  134MOL   O25943085   0.647   3.259   1.993  0.8410 -0.8055  0.3512
  134MOL   C26043086   0.699   3.140   1.922 -0.0760 -0.1790  0.0288
  134MOL   C26143087   0.843   3.114   1.973  0.0140 -0.1049  0.0259
  134MOL   C26243088   0.859   3.096   2.126 -0.0669 -0.9174  0.2106
  134MOL   C26343089   0.488   3.407   2.084 -0.2301 -0.0873  0.2295
  134MOL   H26443090   0.445   3.201   2.031 -0.6926  1.1487  0.4940
  134MOL   H26543091   0.642   3.052   1.953  1.4172 -0.8014  1.0468
  134MOL   H26643092   0.683   3.145   1.814  1.3274 -1.1235 -0.2375
  134MOL   H26743093   0.903   3.197   1.936  1.3104 -0.9764  0.1045
  134MOL   H26843094   0.892   3.029   1.925 -1.4970 -1.5542  0.9756
  134MOL   H26943095   0.802   3.010   2.162  1.0218 -2.1920 -1.0177
  134MOL   H27043096   0.824   3.188   2.173  1.8894 -0.9197  1.7109
  134MOL   H27143097   0.964   3.087   2.154 -0.4364 -2.5533  1.1362
  134MOL   H27243098   0.588   3.448   2.068 -0.0740  0.2439  1.9784
  134MOL   H27343099   0.418   3.483   2.051 -0.2696 -0.2886 -0.1602
  134MOL   C27443100   0.468   3.375   2.236 -0.3310 -0.0313  0.8465
  134MOL   O27543101   0.351   3.305   2.260 -0.1946  0.0147 -0.0866
  134MOL   C27643102   0.256   3.384   2.329  0.2364  0.1244 -0.1570
  134MOL   C27743103   0.141   3.289   2.351  0.4886 -0.0252  0.0027
  134MOL   C27843104   0.175   3.159   2.432 -0.0650 -0.2487  0.7283
  134MOL   C27943105   0.581   3.291   2.296 -0.4062 -0.3834  0.3168
  134MOL   H28043106   0.470   3.475   2.279  1.1631  0.1742  0.3385
  134MOL   H28143107   0.314   3.425   2.412 -0.5825 -0.2597  0.6204
  134MOL   H28243108   0.213   3.468   2.274  0.8286  0.1696 -0.5464
  134MOL   H28343109   0.081   3.265   2.263 -1.1836  0.0890  1.0832
  134MOL   H28443110   0.067   3.344   2.411  1.5870  0.6822  0.7256
  134MOL   H28543111   0.095   3.086   2.422  1.1707 -1.3278 -1.3992
  134MOL   H28643112   0.199   3.170   2.538  1.6155  0.0432  0.3310
  134MOL   H28743113   0.264   3.115   2.387 -0.9487 -1.2447 -0.0509
  134MOL   H28843114   0.563   3.189   2.260 -0.5319  0.0650 -0.9185
  134MOL   H28943115   0.673   3.311   2.241 -0.1239 -1.4364  0.3812
  134MOL   C29043116   0.586   3.283   2.450 -0.6888 -0.1201  0.0685
  134MOL   O29143117   0.668   3.170   2.487 -0.8012 -0.0903  0.0229
  134MOL   C29243118   0.584   3.062   2.545  0.3805  0.1636 -0.0314
  134MOL   C29343119   0.669   2.939   2.575  0.7912  0.0384 -0.0144
  134MOL   C29443120   0.728   2.878   2.447 -0.6178  0.7865 -0.5036
  134MOL   C29543121   0.652   3.406   2.508 -0.6495 -0.1835 -0.8530
  134MOL   H29643122   0.484   3.280   2.489  0.1989 -1.7589  2.3036
  134MOL   H29743123   0.540   3.099   2.638  0.7114 -0.0665  0.2167
  134MOL   H29843124   0.497   3.026   2.490  2.7010 -2.1800 -2.2613
  134MOL   H29943125   0.610   2.861   2.623  0.1881 -0.8553 -2.1155
  134MOL   H30043126   0.744   2.971   2.647  0.1286  0.3663  0.5351
  134MOL   H30143127   0.795   2.942   2.389 -0.8038  0.1683 -1.4094
  134MOL   H30243128   0.643   2.862   2.380 -1.3186 -1.5729  0.8872
  134MOL   H30343129   0.767   2.778   2.465 -0.9167  0.9450  1.1158
  134MOL   H30443130   0.751   3.418   2.464 -0.8459  1.4654 -0.9040
  134MOL   H30543131   0.594   3.493   2.475  0.3480  0.9133  0.2258
  134MOL   C30643132   0.671   3.396   2.661 -0.5131  0.8585 -0.3218
  134MOL   O30743133   0.756   3.504   2.699 -0.2805  0.5275 -0.7490
  134MOL   C30843134   0.828   3.483   2.818 -0.3507  0.3762 -0.8909
  134MOL   C30943135   0.936   3.587   2.836 -1.2983  0.0548 -0.1465
  134MOL   C31043136   1.054   3.585   2.741  0.4168 -0.0791  0.1792
  134MOL   C31143137   0.536   3.422   2.730 -0.3932 -0.1422  0.0026
  134MOL   H31243138   0.710   3.298   2.689 -0.6312  0.9198  0.0549
  134MOL   H31343139   0.753   3.480   2.897  1.2223 -2.3196  0.5467
  134MOL   H31443140   0.886   3.392   2.809 -0.2464  0.2970  0.5421
  134MOL   H31543141   0.971   3.588   2.939 -1.1015 -2.9192 -0.1483
  134MOL   H31643142   0.897   3.689   2.838  0.7714  0.8558  0.4276
  134MOL   H31743143   1.021   3.593   2.638 -0.3829 -0.4829  0.4055
  134MOL   H31843144   1.124   3.502   2.743  0.4322 -0.0453  2.4260
  134MOL   H31943145   1.114   3.673   2.767 -2.3996  2.1100 -0.4830
  134MOL   H32043146   0.458   3.346   2.715 -2.3350  1.7465  0.2441
  134MOL   H32143147   0.554   3.426   2.837 -1.8810 -2.3769  0.3775
  134MOL   H32243148   0.496   3.514   2.687  1.8470  0.1035 -1.6380
  135MOL     C143149   1.256   6.403   6.516  0.7834 -0.5111 -0.2660
  135MOL     O243150   1.376   6.406   6.590 -0.1869  0.5818  0.0418
  135MOL     C343151   1.431   6.282   6.652 -0.1578 -0.1136  0.0647
  135MOL     C443152   1.539   6.311   6.758 -0.6471  0.7694  0.3655
  135MOL     C543153   1.487   6.409   6.858 -0.0118  0.1116 -0.0347
  135MOL     C643154   1.178   6.527   6.542  0.2293  0.2867 -0.4991
  135MOL     H743155   1.210   6.309   6.546 -0.1472 -0.0949 -0.4000
  135MOL     H843156   1.348   6.231   6.701 -2.5199  1.8316 -1.7392
  135MOL     H943157   1.478   6.220   6.576  0.2614  1.1783 -0.7551
  135MOL    H1043158   1.633   6.345   6.714  0.2636 -1.0475  0.8642
  135MOL    H1143159   1.568   6.216   6.803 -0.9782  0.0906 -0.8438
  135MOL    H1243160   1.526   6.410   6.960  2.6634  3.6988 -1.0022
  135MOL    H1343161   1.378   6.409   6.866 -0.0716 -2.0285 -0.4930
  135MOL    H1443162   1.521   6.506   6.822 -0.3674 -0.4337 -1.8891
  135MOL    H1543163   1.183   6.555   6.647 -0.7186 -0.5497 -0.2189
  135MOL    H1643164   1.230   6.605   6.486  0.7625 -0.0307 -0.4446
  135MOL    H1743165   1.284   6.398   6.410  1.0796  1.8595 -0.3356
  135MOL    C1843166   1.030   6.516   6.491 -0.3999 -0.6797  0.2097
  135MOL    O1943167   0.963   6.396   6.541  0.1459  0.2078  0.0089
  135MOL    C2043168   0.874   6.332   6.452 -0.4678 -0.3831 -0.7006
  135MOL    C2143169   0.803   6.216   6.519  0.0981 -0.1636 -0.1671
  135MOL    C2243170   0.709   6.274   6.630 -0.2298 -0.1650  0.1947
  135MOL    C2343171   0.941   6.631   6.498  0.2184 -0.4463 -0.3650
  135MOL    H2443172   1.045   6.492   6.386 -0.3230  1.8260 -0.3852
  135MOL    H2543173   0.799   6.399   6.411  1.4535  1.4404 -1.3076
  135MOL    H2643174   0.930   6.300   6.364  1.4032 -0.4590  0.4780
  135MOL    H2743175   0.859   6.130   6.557 -0.0106 -0.5517 -0.8838
  135MOL    H2843176   0.747   6.163   6.443 -0.0693 -1.6463  0.9741
  135MOL    H2943177   0.641   6.344   6.581  0.1030 -0.9831 -1.5022
  135MOL    H3043178   0.775   6.315   6.705 -0.0574  1.5381 -0.8757
  135MOL    H3143179   0.645   6.197   6.673  1.0747 -0.5486  1.4958
  135MOL    H3243180   1.000   6.714   6.459 -0.1265  0.2118  0.4966
  135MOL    H3343181   0.866   6.633   6.419  0.2871  2.2676 -0.4205
  135MOL    C3443182   0.898   6.667   6.645  0.2493  0.6633  0.2078
  135MOL    O3543183   1.007   6.741   6.699  0.2193  0.0002 -0.3450
  135MOL    C3643184   1.027   6.737   6.837 -0.0025 -0.3710  0.0409
  135MOL    C3743185   1.138   6.840   6.867 -0.7709 -0.0482 -0.2546
  135MOL    C3843186   1.263   6.784   6.793 -0.3699  0.5033  0.0681
  135MOL    C3943187   0.775   6.762   6.657 -0.5327 -0.0436 -0.2536
  135MOL    H4043188   0.872   6.578   6.703 -2.2232  0.4125 -1.2177
  135MOL    H4143189   0.939   6.772   6.891 -1.2565 -3.5914  0.1946
  135MOL    H4243190   1.044   6.634   6.868 -0.3407 -0.6223 -0.5913
  135MOL    H4343191   1.150   6.833   6.975 -3.0378 -0.9973 -0.0454
  135MOL    H4443192   1.120   6.942   6.834 -0.7877 -0.1233 -0.4777
  135MOL    H4543193   1.239   6.790   6.687 -0.3474 -3.0299 -0.1699
  135MOL    H4643194   1.288   6.681   6.819  0.8340  1.3885  2.6438
  135MOL    H4743195   1.344   6.848   6.830 -0.4484  0.2860  0.6163
  135MOL    H4843196   0.755   6.790   6.760  0.6923 -0.2133  0.0354
  135MOL    H4943197   0.819   6.853   6.615  0.7625 -0.1834  0.7823
  135MOL    C5043198   0.636   6.709   6.610 -0.7459 -0.1822 -0.2828
  135MOL    O5143199   0.574   6.656   6.730 -0.1263  0.1537  0.5451
  135MOL    C5243200   0.436   6.610   6.715 -0.1215 -0.0955  0.0723
  135MOL    C5343201   0.390   6.553   6.853 -0.6044  0.5924 -0.4388
  135MOL    C5443202   0.468   6.422   6.891 -0.3720 -0.1901 -0.0934
  135MOL    C5543203   0.551   6.820   6.549  1.1007 -0.3267 -0.2536
  135MOL    H5643204   0.640   6.627   6.538 -0.1866 -0.6632  0.3036
  135MOL    H5743205   0.362   6.683   6.685 -0.8023  1.0334  4.1960
  135MOL    H5843206   0.440   6.529   6.643  1.7266  0.2863 -0.2968
  135MOL    H5943207   0.286   6.524   6.840  0.3178 -1.9149 -2.5859
  135MOL    H6043208   0.388   6.630   6.931  3.9515  0.9520 -0.5374
  135MOL    H6143209   0.570   6.442   6.924 -1.1936  3.3595  0.4224
  135MOL    H6243210   0.462   6.344   6.814  0.9768 -0.1946 -0.2018
  135MOL    H6343211   0.420   6.371   6.975  1.1016 -0.9655  0.2953
  135MOL    H6443212   0.459   6.776   6.510  0.3530  0.9639  0.0544
  135MOL    H6543213   0.504   6.880   6.627 -0.9113  0.0046 -1.6748
  135MOL    C6643214   0.604   6.920   6.443 -0.3887 -0.2348 -0.0208
  135MOL    O6743215   0.489   6.952   6.361  0.1949 -0.0835  0.1420
  135MOL    C6843216   0.489   6.868   6.246  0.1632 -0.6430 -0.4508
  135MOL    C6943217   0.345   6.861   6.192 -0.3813 -0.0300 -0.5381
  135MOL    C7043218   0.333   6.796   6.054 -0.1566 -0.6085  0.4138
  135MOL    C7143219   0.643   7.056   6.517 -0.0625 -0.3643  0.2921
  135MOL    H7243220   0.688   6.876   6.391  0.8170  1.8373  0.1312
  135MOL    H7343221   0.559   6.910   6.173 -1.5801  0.8411 -1.2951
  135MOL    H7443222   0.509   6.763   6.267 -0.4074 -0.5727  0.4654
  135MOL    H7543223   0.315   6.965   6.190  2.0685  0.6846 -3.7151
  135MOL    H7643224   0.285   6.808   6.267 -1.9270 -0.7927 -2.2874
  135MOL    H7743225   0.388   6.846   5.974  0.7285 -3.4435 -0.8045
  135MOL    H7843226   0.233   6.799   6.012 -1.3525 -0.0927  3.1846
  135MOL    H7943227   0.373   6.695   6.054  0.7274 -0.2771  1.5819
  135MOL    H8043228   0.556   7.117   6.543  1.0516  0.6771  1.6515
  135MOL    H8143229   0.684   7.033   6.615  0.6060  0.7568  0.2911
  135MOL    C8243230   0.742   7.136   6.442 -0.5376  0.4700  0.1812
  135MOL    O8343231   0.776   7.264   6.501  0.2750 -0.1850 -0.2816
  135MOL    C8443232   0.701   7.372   6.455  0.5485 -0.4387  0.0688
  135MOL    C8543233   0.761   7.506   6.504  0.3586 -0.2347  0.5545
  135MOL    C8643234   0.694   7.637   6.475 -0.3225 -0.1743 -0.2749
  135MOL    C8743235   0.883   7.066   6.422 -0.1007 -0.2438 -0.1826
  135MOL    H8843236   0.688   7.146   6.348 -3.6127 -1.3272  1.6662
  135MOL    H8943237   0.689   7.366   6.347  0.2771 -1.3163  0.1441
  135MOL    H9043238   0.598   7.367   6.489  1.5732 -0.0109  3.4307
  135MOL    H9143239   0.868   7.512   6.483  0.5841  1.0107  1.9873
  135MOL    H9243240   0.750   7.508   6.612 -0.0066 -0.6014  0.5271
  135MOL    H9343241   0.695   7.664   6.370 -2.2086  0.2598 -0.1886
  135MOL    H9443242   0.764   7.709   6.518 -1.2916 -0.1191  1.2431
  135MOL    H9543243   0.595   7.657   6.515 -0.7159  0.5784 -1.6314
  135MOL    H9643244   0.921   7.039   6.521 -1.0077 -0.9065 -0.0041
  135MOL    H9743245   0.878   6.969   6.372 -1.0840 -0.5661  0.5122
  135MOL    C9843246   0.970   7.139   6.331 -0.1800 -0.9385  0.1173
  135MOL    O9943247   1.099   7.083   6.347 -0.1166  0.2537 -0.3146
  135MOL   C10043248   1.207   7.166   6.325 -0.2449  0.4320 -0.4779
  135MOL   C10143249   1.321   7.100   6.405 -0.8432 -0.7835 -0.4410
  135MOL   C10243250   1.274   7.105   6.546 -0.4490  0.3157  0.0758
  135MOL   C10343251   0.935   7.121   6.180 -0.1211  0.8580 -0.6432
  135MOL   H10443252   0.964   7.245   6.358  0.6461 -1.1756  1.2395
  135MOL   H10543253   1.241   7.168   6.222 -0.9897 -0.3573 -0.7494
  135MOL   H10643254   1.187   7.272   6.341 -3.2544  0.3024 -2.8668
  135MOL   H10743255   1.422   7.138   6.396 -0.7112 -0.9188  0.4252
  135MOL   H10843256   1.337   6.993   6.388 -0.9683 -1.1777  1.7827
  135MOL   H10943257   1.257   7.210   6.568  1.1832  0.8101 -0.8906
  135MOL   H11043258   1.353   7.068   6.611 -0.6850 -1.2039 -0.4824
  135MOL   H11143259   1.182   7.051   6.567  0.8989 -1.4290  1.6673
  135MOL   H11243260   1.001   7.051   6.128 -1.2791  0.9341 -2.2628
  135MOL   H11343261   0.841   7.065   6.179 -0.0674  0.7696 -0.8380
  135MOL   C11443262   0.918   7.262   6.110 -0.2749  0.0933 -0.2488
  135MOL   O11543263   1.031   7.340   6.143 -0.0253 -0.6168  0.5972
  135MOL   C11643264   1.023   7.481   6.110 -0.6896  0.3187  0.7268
  135MOL   C11743265   1.133   7.545   6.191 -0.0094  0.2049  0.0206
  135MOL   C11843266   1.274   7.502   6.147 -0.3392  0.5361  0.4043
  135MOL   C11943267   0.895   7.251   5.950 -0.5668 -0.9588 -0.5663
  135MOL   H12043268   0.830   7.307   6.155 -1.5784 -1.6445 -1.0161
  135MOL   H12143269   1.034   7.499   6.004  1.9481 -2.2387  0.4987
  135MOL   H12243270   0.927   7.510   6.154  0.2249 -0.5981  3.4867
  135MOL   H12343271   1.115   7.507   6.292  0.0794  0.5618  0.1750
  135MOL   H12443272   1.131   7.654   6.191  0.3932  0.2154 -1.3480
  135MOL   H12543273   1.281   7.511   6.039 -3.0602  0.7479  0.2074
  135MOL   H12643274   1.264   7.397   6.175  0.2755  0.9662  2.3306
  135MOL   H12743275   1.356   7.552   6.200  1.7364 -3.8028  1.5284
  135MOL   H12843276   0.906   7.343   5.894 -1.6499  0.4048  1.4022
  135MOL   H12943277   0.982   7.197   5.911  0.5986  1.4793 -1.4228
  135MOL   C13043278   0.757   7.192   5.916 -0.3234  0.1345 -0.3016
  135MOL   O13143279   0.664   7.302   5.921 -0.1214 -0.2631  0.2643
  135MOL   C13243280   0.550   7.269   5.994 -0.5155  0.4537  0.0694
  135MOL   C13343281   0.480   7.403   6.006  0.7180  0.1252  0.1497
  135MOL   C13443282   0.566   7.520   6.062  0.2919  0.0956  0.5696
  135MOL   C13543283   0.763   7.144   5.778 -0.2785  0.6485 -0.5708
  135MOL   H13643284   0.728   7.104   5.973 -1.1913  0.8581  0.3945
  135MOL   H13743285   0.478   7.200   5.950 -1.3689 -1.4575  4.2306
  135MOL   H13843286   0.586   7.231   6.090 -3.1059  1.5680  1.5345
  135MOL   H13943287   0.402   7.396   6.082  0.5785 -0.1487 -0.0175
  135MOL   H14043288   0.441   7.427   5.907 -0.8744 -0.2682  0.6707
  135MOL   H14143289   0.596   7.513   6.166  1.0881  2.7623  0.5679
  135MOL   H14243290   0.502   7.608   6.066 -1.2620 -0.9442 -0.5902
  135MOL   H14343291   0.654   7.535   6.000 -1.4038 -1.2243 -2.2910
  135MOL   H14443292   0.803   7.228   5.721 -0.5772  0.3407 -1.2474
  135MOL   H14543293   0.848   7.078   5.761  0.8471  2.1644 -0.9631
  135MOL   C14643294   0.638   7.096   5.713  0.1398  0.1097  0.3660
  135MOL   O14743295   0.651   7.088   5.572  0.2180 -0.7286  0.7079
  135MOL   C14843296   0.629   7.210   5.497 -0.0808  0.2247  0.5933
  135MOL   C14943297   0.630   7.174   5.347 -0.0937  0.6370  0.0076
  135MOL   C15043298   0.510   7.087   5.309  0.2941  0.3001  0.1979
  135MOL   C15143299   0.598   6.949   5.750  0.2123  0.8454 -0.1699
  135MOL   H15243300   0.556   7.166   5.729  0.2213  0.6545 -1.5000
  135MOL   H15343301   0.532   7.256   5.517 -0.7436 -0.5090 -0.8364
  135MOL   H15443302   0.704   7.279   5.535  2.7591 -3.1250  1.2962
  135MOL   H15543303   0.722   7.121   5.323  0.0064  0.8568 -0.0974
  135MOL   H15643304   0.626   7.266   5.288  0.5636  1.7215  1.6252
  135MOL   H15743305   0.479   7.025   5.393  2.1618 -0.0604  0.6498
  135MOL   H15843306   0.555   7.015   5.240 -0.0369  0.6705 -0.4111
  135MOL   H15943307   0.426   7.137   5.261  1.2181 -0.3938 -2.2414
  135MOL   H16043308   0.562   6.943   5.853  1.4069 -2.1497  0.1249
  135MOL   H16143309   0.506   6.932   5.693  1.7199  0.0889 -2.4659
  135MOL   C16243310   0.705   6.834   5.740  0.3637  0.7072  0.4350
  135MOL   O16343311   0.631   6.715   5.782  0.2286 -0.6992  0.2546
  135MOL   C16443312   0.662   6.668   5.907 -0.0881 -0.3669 -0.4066
  135MOL   C16543313   0.600   6.535   5.945  0.1001 -0.5386  0.5284
  135MOL   C16643314   0.631   6.432   5.832  0.1025 -0.0073  0.0543
  135MOL   C16743315   0.761   6.810   5.600 -0.2636  0.3596  0.3581
  135MOL   H16843316   0.788   6.844   5.809 -0.0002 -0.3941  1.0643
  135MOL   H16943317   0.770   6.655   5.914  0.0057  1.2623  1.4962
  135MOL   H17043318   0.640   6.742   5.984  0.4524  0.8129 -1.3830
  135MOL   H17143319   0.492   6.536   5.958 -0.5210  2.3036 -3.7059
  135MOL   H17243320   0.658   6.507   6.033  1.1213 -0.1377 -0.0119
  135MOL   H17343321   0.569   6.446   5.744  0.2628  2.1882  0.2562
  135MOL   H17443322   0.627   6.326   5.858  2.1092  0.2499  1.5854
  135MOL   H17543323   0.727   6.452   5.784 -0.0039 -1.1337 -0.6269
  135MOL   H17643324   0.680   6.800   5.527 -2.1062 -3.1852  2.7255
  135MOL   H17743325   0.818   6.893   5.561  0.3877 -1.5175 -2.8627
  135MOL   C17843326   0.855   6.693   5.597  0.0220  0.3282  0.1079
  135MOL   O17943327   0.866   6.652   5.459  0.6313 -0.1814  0.1205
  135MOL   C18043328   0.759   6.573   5.416  1.0566 -0.3989  0.0497
  135MOL   C18143329   0.735   6.604   5.264 -0.1366 -1.1458 -0.0934
  135MOL   C18243330   0.709   6.749   5.227 -0.5563 -0.2205  0.2247
  135MOL   C18343331   1.002   6.722   5.637 -0.5748  0.3559 -0.5231
  135MOL   H18443332   0.811   6.606   5.645 -0.0602  0.0330 -0.4890
  135MOL   H18543333   0.785   6.467   5.424 -1.5884 -1.1976 -1.3312
  135MOL   H18643334   0.667   6.599   5.468  0.4895  0.1381 -1.1984
  135MOL   H18743335   0.662   6.535   5.222 -0.7930 -0.5260  0.0302
  135MOL   H18843336   0.829   6.571   5.220  0.8728  0.0597  1.1285
  135MOL   H18943337   0.687   6.751   5.120 -2.5676 -3.9123  0.4815
  135MOL   H19043338   0.800   6.808   5.239  0.2018 -1.5719  1.3177
  135MOL   H19143339   0.624   6.793   5.279  0.3262  0.9262  0.7289
  135MOL   H19243340   1.047   6.763   5.547 -2.5695  0.0237 -1.6814
  135MOL   H19343341   1.008   6.802   5.711  1.1818  0.8366 -1.1700
  135MOL   C19443342   1.076   6.599   5.692  0.0908 -0.0689 -0.6421
  135MOL   O19543343   1.004   6.545   5.810 -0.5261 -0.6076 -0.3654
  135MOL   C19643344   1.070   6.446   5.881  0.6170 -0.1221 -0.0253
  135MOL   C19743345   0.982   6.407   5.996  0.6975 -0.2929  0.2401
  135MOL   C19843346   1.040   6.299   6.089 -0.1622 -0.4469 -0.4780
  135MOL   C19943347   1.099   6.492   5.586  0.6125 -0.6202 -0.2888
  135MOL   H20043348   1.167   6.634   5.741 -0.3235 -1.4454  1.1526
  135MOL   H20143349   1.085   6.364   5.810  1.2349  0.8827 -1.0827
  135MOL   H20243350   1.169   6.469   5.918 -0.1094  0.1489  1.7913
  135MOL   H20343351   0.892   6.361   5.953 -0.0239  0.3389  1.0752
  135MOL   H20443352   0.934   6.488   6.050 -2.0326 -2.1073  0.6735
  135MOL   H20543353   1.136   6.328   6.131 -0.5597  0.7411 -0.3932
  135MOL   H20643354   1.046   6.198   6.048 -1.3077 -1.1907  1.1265
  135MOL   H20743355   0.974   6.280   6.173 -0.7057  2.2692 -0.2656
  135MOL   H20843356   1.045   6.400   5.609 -1.0013 -0.0782 -1.7686
  135MOL   H20943357   1.064   6.533   5.491  0.9228  0.4452  0.0415
  135MOL   C21043358   1.248   6.454   5.570 -0.1521 -0.6594  0.0090
  135MOL   O21143359   1.287   6.395   5.693  0.2853  0.1370 -0.0123
  135MOL   C21243360   1.421   6.413   5.717 -0.5423 -0.4953 -0.4169
  135MOL   C21343361   1.465   6.348   5.845 -0.2999  0.3986 -0.2934
  135MOL   C21443362   1.494   6.201   5.844 -0.2677 -0.5714  0.5929
  135MOL   C21543363   1.269   6.335   5.466  0.3556  0.3745  0.4207
  135MOL   H21643364   1.313   6.539   5.545  0.4771 -1.0597  0.2755
  135MOL   H21743365   1.482   6.377   5.634  1.4146 -0.4647  0.9682
  135MOL   H21843366   1.438   6.521   5.720 -0.0051 -0.6008  3.1427
  135MOL   H21943367   1.401   6.368   5.931 -0.9423 -1.2846 -0.3807
  135MOL   H22043368   1.558   6.401   5.870 -0.0365 -0.3711  0.3631
  135MOL   H22143369   1.413   6.145   5.797 -0.2782  0.1206 -0.2065
  135MOL   H22243370   1.516   6.165   5.945  2.3853  1.2268  0.7134
  135MOL   H22343371   1.588   6.189   5.789 -0.0208 -0.1999  0.9348
  135MOL   H22443372   1.367   6.287   5.471 -0.0237 -0.4657 -0.1764
  135MOL   H22543373   1.198   6.255   5.491  0.6993 -0.4578 -1.2212
  135MOL   C22643374   1.234   6.371   5.325 -0.3859  1.0570  0.0423
  135MOL   O22743375   1.329   6.473   5.297  0.4012 -0.6734 -0.2067
  135MOL   C22843376   1.284   6.573   5.201 -0.1141 -0.5620 -0.0716
  135MOL   C22943377   1.194   6.683   5.278 -0.5908  0.0436  0.5987
  135MOL   C23043378   1.154   6.809   5.206  0.4282 -0.3483 -0.1337
  135MOL   C23143379   1.248   6.255   5.227  0.4237  0.0405 -0.1089
  135MOL   H23243380   1.134   6.415   5.317 -1.1351  0.0557  3.1219
  135MOL   H23343381   1.372   6.618   5.155 -0.5256 -1.7468 -2.0668
  135MOL   H23443382   1.229   6.512   5.130 -0.5150 -1.8803  1.3617
  135MOL   H23543383   1.239   6.722   5.369  1.0557 -1.7048  0.5496
  135MOL   H23643384   1.107   6.624   5.307 -0.9287  0.0896 -0.2940
  135MOL   H23743385   1.067   6.861   5.246  1.9310  0.8333  1.6549
  135MOL   H23843386   1.120   6.792   5.103  2.5667 -2.8793 -0.4623
  135MOL   H23943387   1.225   6.891   5.211 -0.7018  0.5409  2.1408
  135MOL   H24043388   1.281   6.286   5.127 -3.3542 -1.0739 -1.7781
  135MOL   H24143389   1.333   6.202   5.269 -1.5527 -0.0276  4.0165
  135MOL   C24243390   1.120   6.175   5.209 -0.1976 -0.2919 -0.1558
  135MOL   O24343391   1.031   6.264   5.141 -0.2514 -0.8011  0.2751
  135MOL   C24443392   0.890   6.234   5.162 -0.0442 -0.3561  0.1907
  135MOL   C24543393   0.811   6.251   5.033 -0.2870  0.2124  0.3899
  135MOL   C24643394   0.803   6.401   4.982 -0.1049  0.8069 -0.0442
  135MOL   C24743395   1.133   6.056   5.103 -0.5900 -0.2740 -0.0295
  135MOL   H24843396   1.084   6.137   5.304  2.8456  0.1670  1.2287
  135MOL   H24943397   0.879   6.136   5.207  2.1014 -1.1380 -0.9272
  135MOL   H25043398   0.850   6.301   5.238 -0.6989 -1.4816  0.8464
  135MOL   H25143399   0.708   6.218   5.047 -0.0834 -0.8477 -0.5045
  135MOL   H25243400   0.856   6.181   4.962  0.1639 -1.2266  2.0568
  135MOL   H25343401   0.720   6.439   5.041 -2.3095 -1.9419 -1.2697
  135MOL   H25443402   0.777   6.418   4.878  3.6214  0.4130 -1.1420
  135MOL   H25543403   0.895   6.457   4.999  0.2870 -0.4106  2.1086
  135MOL   H25643404   1.036   6.047   5.053 -1.8994  3.3957  1.6845
  135MOL   H25743405   1.190   6.089   5.017 -1.0036 -0.9279 -0.5687
  135MOL   C25843406   1.189   5.926   5.163  0.6203 -0.3299  0.3108
  135MOL   O25943407   1.101   5.873   5.271 -0.5140  0.2812 -0.0026
  135MOL   C26043408   1.175   5.822   5.379 -0.7207  0.6301 -0.6363
  135MOL   C26143409   1.087   5.746   5.479 -0.9006  0.3214  1.2960
  135MOL   C26243410   1.156   5.695   5.606  0.3980 -0.4210 -0.3135
  135MOL   C26343411   1.199   5.819   5.059 -0.2345  0.3017 -0.3100
  135MOL   H26443412   1.287   5.949   5.205  1.0047 -1.3162 -0.0210
  135MOL   H26543413   1.256   5.757   5.345 -1.4121 -1.4597  1.5907
  135MOL   H26643414   1.225   5.901   5.435 -2.5205 -1.3871  4.1015
  135MOL   H26743415   1.042   5.666   5.421 -1.1731  0.4600  1.3152
  135MOL   H26843416   1.010   5.819   5.504 -0.1612  1.5055  0.1667
  135MOL   H26943417   1.214   5.605   5.584  1.1627 -0.1858  0.6913
  135MOL   H27043418   1.071   5.678   5.671  0.4167 -0.5946 -0.3357
  135MOL   H27143419   1.221   5.774   5.644  1.5225 -1.3778 -0.2054
  135MOL   H27243420   1.167   5.721   5.094 -0.9324  1.4451  2.3541
  135MOL   H27343421   1.123   5.849   4.986 -2.5441 -1.0961  1.4516
  135MOL   C27443422   1.344   5.789   5.004 -0.1369  0.1567 -0.2938
  135MOL   O27543423   1.405   5.894   4.924  0.3632  0.0542 -0.3856
  135MOL   C27643424   1.332   5.931   4.808 -0.6388  0.3775  0.1174
  135MOL   C27743425   1.416   5.925   4.681  0.4667  0.0859  0.0093
  135MOL   C27843426   1.454   5.786   4.645  0.0400  0.4615 -0.1799
  135MOL   C27943427   1.439   5.733   5.114  0.5109 -0.0601 -0.0029
  135MOL   H28043428   1.334   5.711   4.928  3.6909 -0.6296 -0.1154
  135MOL   H28143429   1.245   5.869   4.786  0.6117 -1.1971 -0.4309
  135MOL   H28243430   1.296   6.032   4.830 -1.7354  0.6146 -2.6343
  135MOL   H28343431   1.503   5.984   4.708  1.4698 -1.8454  1.1395
  135MOL   H28443432   1.358   5.960   4.596 -2.0022  1.0307  2.0215
  135MOL   H28543433   1.370   5.717   4.634 -0.6877  1.5289 -1.4306
  135MOL   H28643434   1.513   5.750   4.729  0.1165  1.2665  0.1167
  135MOL   H28743435   1.523   5.784   4.560 -0.9174  0.6879 -0.9780
  135MOL   H28843436   1.464   5.801   5.195  0.8623 -2.3176  1.8346
  135MOL   H28943437   1.376   5.662   5.167 -1.1257 -0.5995 -2.5274
  135MOL   C29043438   1.564   5.661   5.055  0.3409 -0.2383  0.2275
  135MOL   O29143439   1.636   5.610   5.165  0.1325  0.4953  0.1294
  135MOL   C29243440   1.719   5.704   5.238 -0.1692  0.8852  0.2250
  135MOL   C29343441   1.836   5.620   5.307 -0.2784 -0.0795 -0.1741
  135MOL   C29443442   1.917   5.695   5.413  0.0340 -0.0661  0.1412
  135MOL   C29543443   1.536   5.539   4.974 -0.2610  0.0675 -0.1372
  135MOL   H29643444   1.622   5.737   5.002  4.5323 -1.5480  2.7000
  135MOL   H29743445   1.750   5.773   5.159 -0.4915 -1.0106 -1.6204
  135MOL   H29843446   1.646   5.754   5.301 -0.8446  2.7381 -1.9222
  135MOL   H29943447   1.897   5.585   5.225 -0.7757  2.3449 -1.6121
  135MOL   H30043448   1.794   5.525   5.342  1.5263 -1.0007 -0.4699
  135MOL   H30143449   1.858   5.765   5.472 -0.8548  0.0539 -0.8867
  135MOL   H30243450   2.007   5.743   5.374 -0.6260  1.2283  0.1982
  135MOL   H30343451   1.951   5.617   5.482 -3.3960 -0.8656  1.0081
  135MOL   H30443452   1.480   5.468   5.035 -2.3067  0.0077 -2.0134
  135MOL   H30543453   1.469   5.556   4.889  0.3232  4.6444  0.2165
  135MOL   C30643454   1.667   5.470   4.937  0.5628  0.5042  0.4539
  135MOL   O30743455   1.631   5.341   4.876  0.3940 -0.8771  0.6327
  135MOL   C30843456   1.693   5.227   4.931  0.1542  0.6218  0.3045
  135MOL   C30943457   1.631   5.091   4.882 -0.0065  0.8923 -0.2823
  135MOL   C31043458   1.660   5.067   4.735 -0.6289 -0.3630 -0.5029
  135MOL   C31143459   1.740   5.544   4.823 -0.5945  0.3300 -1.2985
  135MOL   H31243460   1.735   5.448   5.019  1.4427 -1.6263 -0.7987
  135MOL   H31343461   1.795   5.240   4.896  0.3197 -0.8225  0.2277
  135MOL   H31443462   1.697   5.224   5.039  1.6290 -0.5405  0.2337
  135MOL   H31543463   1.524   5.093   4.903  0.0292 -3.1915  0.7884
  135MOL   H31643464   1.679   5.008   4.935 -0.5156  0.5423 -0.3709
  135MOL   H31743465   1.616   4.971   4.709 -0.8944  0.1351 -1.9120
  135MOL   H31843466   1.768   5.063   4.720 -0.3898 -2.0189  1.3653
  135MOL   H31943467   1.631   5.145   4.664  0.4682 -0.7007 -1.3405
  135MOL   H32043468   1.668   5.570   4.745 -1.6071  3.1008  0.4813
  135MOL   H32143469   1.775   5.642   4.858 -0.8611  0.4774 -1.4469
  135MOL   H32243470   1.822   5.486   4.780 -0.4895 -1.4327  1.1759
  136MOL     C143471   1.319   6.645   3.857  0.1653  0.2040 -0.2823
  136MOL     O243472   1.259   6.528   3.907 -0.1664 -0.1991 -0.3663
  136MOL     C343473   1.168   6.476   3.809 -0.0162  0.4901  0.0932
  136MOL     C443474   1.108   6.344   3.855  0.3658 -0.5181  0.1213
  136MOL     C543475   1.218   6.239   3.879 -0.1303  0.3953  0.1389
  136MOL     C643476   1.429   6.690   3.952 -0.6082 -0.2046 -0.3135
  136MOL     H743477   1.235   6.714   3.851  0.0138 -0.1190 -1.9264
  136MOL     H843478   1.094   6.553   3.783 -0.5999 -0.9192 -2.5587
  136MOL     H943479   1.199   6.465   3.706  0.5653  0.1395  0.3079
  136MOL    H1043480   1.037   6.301   3.784 -0.1031  2.0304 -1.0213
  136MOL    H1143481   1.052   6.349   3.948  0.9749 -0.4746  0.4833
  136MOL    H1243482   1.292   6.233   3.800 -1.5449  0.5637 -1.2348
  136MOL    H1343483   1.167   6.144   3.897  0.1912  0.3024  0.5546
  136MOL    H1443484   1.286   6.259   3.961  2.7711 -0.9208 -1.8575
  136MOL    H1543485   1.510   6.617   3.947 -2.3996 -2.1951 -0.9984
  136MOL    H1643486   1.473   6.778   3.905  2.5846 -0.5813  1.8080
  136MOL    H1743487   1.365   6.628   3.760  0.7605  3.6417 -0.6882
  136MOL    C1843488   1.391   6.730   4.094  0.3518  0.5254  0.4072
  136MOL    O1943489   1.508   6.798   4.146 -0.2083 -0.2392  0.3210
  136MOL    C2043490   1.607   6.708   4.192 -0.7481  0.2563 -0.3475
  136MOL    C2143491   1.714   6.800   4.246 -0.7326 -0.0753 -0.0107
  136MOL    C2243492   1.663   6.890   4.356  0.5982 -0.3057 -0.1234
  136MOL    C2343493   1.279   6.833   4.098 -0.2252  0.5885  0.4609
  136MOL    H2443494   1.368   6.636   4.145 -2.8244 -0.0534 -1.9473
  136MOL    H2543495   1.562   6.655   4.276 -2.6713  1.6587 -0.4442
  136MOL    H2643496   1.647   6.634   4.122  0.7485  0.5664  0.1778
  136MOL    H2743497   1.750   6.856   4.160 -0.3419  0.3630  0.4358
  136MOL    H2843498   1.796   6.739   4.283  0.4309  1.6672  0.3161
  136MOL    H2943499   1.746   6.956   4.382 -1.1596  2.4370 -1.2049
  136MOL    H3043500   1.640   6.836   4.448  2.4672 -1.5018 -0.3224
  136MOL    H3143501   1.584   6.957   4.323  1.5146  0.7959 -0.1373
  136MOL    H3243502   1.319   6.917   4.042  1.0163 -0.4634 -0.2465
  136MOL    H3343503   1.190   6.795   4.048 -0.0476  0.7062  0.0585
  136MOL    C3443504   1.241   6.876   4.243 -0.0111 -0.0717 -0.1933
  136MOL    O3543505   1.132   6.965   4.248  0.4741 -0.2467  0.4789
  136MOL    C3643506   1.155   7.088   4.181  0.1597 -0.5353 -0.2323
  136MOL    C3743507   1.046   7.184   4.235  0.0186  0.5612  0.3375
  136MOL    C3843508   1.060   7.238   4.389  0.2268  0.6652  0.4802
  136MOL    C3943509   1.203   6.756   4.328  0.1272 -0.8670  0.1502
  136MOL    H4043510   1.325   6.924   4.293 -0.0742 -1.6650  1.5090
  136MOL    H4143511   1.251   7.125   4.215 -0.5893 -0.3044  1.6869
  136MOL    H4243512   1.155   7.081   4.072  0.1770  2.5222 -0.4569
  136MOL    H4343513   0.953   7.129   4.234  0.4430 -0.1339 -0.9601
  136MOL    H4443514   1.035   7.266   4.165 -0.3011  1.3744  1.3206
  136MOL    H4543515   1.108   7.172   4.461  1.5793 -0.6351 -1.5319
  136MOL    H4643516   0.962   7.271   4.423  0.3495 -1.3603  2.8655
  136MOL    H4743517   1.122   7.327   4.392  0.1613  0.6614  1.8724
  136MOL    H4843518   1.099   6.732   4.307 -0.3544  0.0974  1.3822
  136MOL    H4943519   1.265   6.668   4.308 -1.2255 -1.3357 -2.2287
  136MOL    C5043520   1.208   6.773   4.480 -0.0651 -0.8169  0.3243
  136MOL    O5143521   1.144   6.659   4.538 -0.1004  0.0677 -0.3486
  136MOL    C5243522   1.007   6.696   4.562 -0.2312  0.4490  0.0667
  136MOL    C5343523   0.939   6.558   4.605 -0.6573  0.0772 -0.7875
  136MOL    C5443524   0.987   6.522   4.744 -1.0902  1.0436 -0.1409
  136MOL    C5543525   1.346   6.767   4.542 -0.2391  0.1231 -0.3726
  136MOL    H5643526   1.169   6.872   4.505  2.9054  0.6933 -0.6843
  136MOL    H5743527   0.989   6.773   4.637 -2.1003 -0.0916  0.2242
  136MOL    H5843528   0.953   6.734   4.475 -0.8899  1.7952  1.0417
  136MOL    H5943529   0.953   6.482   4.528  0.4429 -1.3166  0.7607
  136MOL    H6043530   0.830   6.567   4.606 -0.5189  1.8890  0.0186
  136MOL    H6143531   1.096   6.531   4.748 -0.9634 -0.3037 -0.5156
  136MOL    H6243532   0.956   6.422   4.775  0.8820 -0.2510 -2.1947
  136MOL    H6343533   0.938   6.590   4.814  1.6885 -0.4549  3.4995
  136MOL    H6443534   1.387   6.673   4.506 -0.2926  0.1441 -0.4889
  136MOL    H6543535   1.407   6.847   4.500  0.5521 -1.2201 -1.8063
  136MOL    C6643536   1.348   6.777   4.695  0.0416  0.5567 -0.3077
  136MOL    O6743537   1.427   6.682   4.752 -0.3954  0.4644  0.2203
  136MOL    C6843538   1.371   6.553   4.768 -0.5610  0.5880 -0.3067
  136MOL    C6943539   1.478   6.455   4.773 -0.0499  0.5498 -0.4664
  136MOL    C7043540   1.553   6.446   4.642 -0.1911 -0.0819  0.6864
  136MOL    C7143541   1.399   6.914   4.749  0.0974  0.0997 -0.1100
  136MOL    H7243542   1.245   6.765   4.728  1.2151 -2.4577  2.5118
  136MOL    H7343543   1.299   6.546   4.850  0.7729 -1.5429  0.7240
  136MOL    H7443544   1.309   6.524   4.682  0.0997  1.0592 -0.9451
  136MOL    H7543545   1.429   6.362   4.800  0.2056  0.3846 -0.5686
  136MOL    H7643546   1.544   6.489   4.853  0.1809 -1.3135  0.1654
  136MOL    H7743547   1.619   6.361   4.662 -1.0539 -0.7406  0.7710
  136MOL    H7843548   1.611   6.536   4.620 -1.4844  1.0919  1.9870
  136MOL    H7943549   1.496   6.426   4.552  0.8262  1.3300 -0.2961
  136MOL    H8043550   1.495   6.945   4.707  0.7333 -2.8993 -1.0327
  136MOL    H8143551   1.324   6.986   4.717  0.3956  0.7094  0.5587
  136MOL    C8243552   1.408   6.917   4.901 -0.2199  0.1923  0.0939
  136MOL    O8343553   1.547   6.891   4.925  0.1762  0.6584 -0.2226
  136MOL    C8443554   1.567   6.791   5.026 -0.4906  0.5007  0.0748
  136MOL    C8543555   1.718   6.770   5.025 -0.4958 -0.7616  1.0798
  136MOL    C8643556   1.786   6.711   4.903  0.5135 -0.3728  0.7417
  136MOL    C8743557   1.379   7.049   4.971 -0.3009  0.7315  0.0252
  136MOL    H8843558   1.338   6.842   4.937  0.0125 -0.6813 -1.2447
  136MOL    H8943559   1.525   6.826   5.120  1.0134  0.5168  0.7486
  136MOL    H9043560   1.514   6.703   4.989 -0.6476  0.9117 -0.7023
  136MOL    H9143561   1.731   6.701   5.108 -1.0065 -1.5615  0.4968
  136MOL    H9243562   1.776   6.859   5.052  0.6106 -0.5728 -1.7099
  136MOL    H9343563   1.748   6.615   4.869  0.3247  0.1831 -0.6898
  136MOL    H9443564   1.891   6.695   4.926  0.7675  0.9454  0.5818
  136MOL    H9543565   1.788   6.781   4.819 -1.4046  0.8495  1.6717
  136MOL    H9643566   1.364   7.028   5.077  1.5295  0.0284  0.1544
  136MOL    H9743567   1.471   7.106   4.969 -0.1937  0.5878 -3.1686
  136MOL    C9843568   1.252   7.128   4.933  0.5937  0.3084  0.2645
  136MOL    O9943569   1.146   7.041   4.980  0.4075  0.0471  0.5962
  136MOL   C10043570   1.041   7.031   4.884  0.2274 -0.8777 -0.0996
  136MOL   C10143571   0.914   6.999   4.963  0.2042 -0.5227 -0.2550
  136MOL   C10243572   0.848   7.123   5.026 -0.9114  0.0487  0.5609
  136MOL   C10343573   1.236   7.258   5.006  0.0040  0.2520 -0.0726
  136MOL   H10443574   1.259   7.140   4.825  0.3239 -2.2752 -0.0860
  136MOL   H10543575   1.021   7.126   4.834 -0.9822 -0.1337  1.7225
  136MOL   H10643576   1.059   6.959   4.804  2.3207  0.3773 -0.7866
  136MOL   H10743577   0.941   6.927   5.040  2.5036  0.4307 -0.1232
  136MOL   H10843578   0.843   6.955   4.893 -0.6664 -1.3129  1.1227
  136MOL   H10943579   0.934   7.167   5.077 -0.6737  0.4616 -0.1877
  136MOL   H11043580   0.773   7.097   5.101  2.2566 -0.9489  3.5323
  136MOL   H11143581   0.817   7.197   4.953 -0.3613  0.6964  0.9813
  136MOL   H11243582   1.141   7.302   4.975 -0.4941 -0.0607  1.0031
  136MOL   H11343583   1.232   7.243   5.114 -2.7917  2.0957  0.1321
  136MOL   C11443584   1.345   7.364   4.976 -0.0858 -0.1004  0.2501
  136MOL   O11543585   1.340   7.400   4.841 -0.0918 -0.3749 -0.3631
  136MOL   C11643586   1.468   7.412   4.782  0.2510 -0.9520 -0.6166
  136MOL   C11743587   1.453   7.437   4.629  0.2897 -0.6683 -0.5227
  136MOL   C11843588   1.365   7.335   4.552 -0.5820  0.1835 -0.1873
  136MOL   C11943589   1.331   7.490   5.062  0.1721  0.0958 -0.4942
  136MOL   H12043590   1.433   7.311   5.012 -1.3968 -3.5598 -1.3926
  136MOL   H12143591   1.512   7.501   4.827 -1.0836 -0.9895  0.8311
  136MOL   H12243592   1.538   7.333   4.809 -1.5106 -3.1563 -2.2938
  136MOL   H12343593   1.558   7.427   4.600 -0.1173  0.9926 -2.6775
  136MOL   H12443594   1.419   7.538   4.606  3.4657  0.2350 -1.5489
  136MOL   H12543595   1.423   7.253   4.511  1.4032 -0.8051  4.3096
  136MOL   H12643596   1.323   7.381   4.462  0.8743  2.0123  0.0340
  136MOL   H12743597   1.290   7.300   4.622  1.3284 -0.9895  1.3179
  136MOL   H12843598   1.410   7.555   5.027  0.5388  0.5536  1.1308
  136MOL   H12943599   1.245   7.540   5.018  1.1399  1.6854 -0.6033
  136MOL   C13043600   1.338   7.479   5.215 -0.3920  0.1242  0.1798
  136MOL   O13143601   1.455   7.408   5.254 -0.5403  0.0047 -0.2082
  136MOL   C13243602   1.453   7.335   5.384  0.7248  0.2587  0.2242
  136MOL   C13343603   1.573   7.239   5.409  0.6682  0.4388 -0.1096
  136MOL   C13443604   1.589   7.122   5.308  0.4151 -0.0997 -0.5661
  136MOL   C13543605   1.321   7.609   5.299 -0.0079 -0.9884  0.0212
  136MOL   H13643606   1.258   7.419   5.260 -0.1644  0.7171  1.4087
  136MOL   H13743607   1.454   7.402   5.470 -2.4338 -0.2259  0.7087
  136MOL   H13843608   1.363   7.273   5.384  1.9300 -1.6014 -2.6896
  136MOL   H13943609   1.563   7.205   5.512 -1.1606  0.8191 -0.1590
  136MOL   H14043610   1.664   7.299   5.399 -0.2676  1.8172 -0.5064
  136MOL   H14143611   1.490   7.077   5.305  0.0797  0.7423 -3.0057
  136MOL   H14243612   1.653   7.041   5.343  0.3333  0.2608  0.4537
  136MOL   H14343613   1.618   7.159   5.210  0.5313  0.0615 -0.4715
  136MOL   H14443614   1.340   7.590   5.404 -3.0574 -2.1808  0.4097
  136MOL   H14543615   1.395   7.681   5.267 -2.4893  1.6688  0.0496
  136MOL   C14643616   1.176   7.675   5.283 -0.0549  0.2531 -0.5051
  136MOL   O14743617   1.084   7.584   5.348  0.7111 -0.4605  0.0231
  136MOL   C14843618   0.999   7.523   5.248 -0.8885 -0.0157  0.3298
  136MOL   C14943619   0.922   7.413   5.318 -0.2946  0.2867  0.4810
  136MOL   C15043620   1.001   7.294   5.368 -0.9272 -0.8319 -0.6375
  136MOL   C15143621   1.175   7.818   5.347 -0.8000 -0.4759  0.1547
  136MOL   H15243622   1.172   7.678   5.174 -1.2280 -1.7888 -0.5500
  136MOL   H15343623   0.934   7.604   5.215  0.0862  0.4436 -0.5012
  136MOL   H15443624   1.057   7.483   5.165 -2.5190  0.8795 -1.2612
  136MOL   H15543625   0.854   7.370   5.245  2.3687  1.3245 -2.7206
  136MOL   H15643626   0.862   7.464   5.394  1.5186  1.0336  1.4236
  136MOL   H15743627   1.059   7.254   5.286 -0.8291  0.0767 -1.0130
  136MOL   H15843628   0.939   7.216   5.413 -1.1219 -0.6539 -0.5952
  136MOL   H15943629   1.069   7.320   5.449 -1.4905 -2.0704  0.2514
  136MOL   H16043630   1.183   7.815   5.455  0.9808  0.8518  0.0906
  136MOL   H16143631   1.261   0.047   5.310 -1.0829  1.5108  2.4707
  136MOL   C16243632   1.040   0.061   5.320  0.3281 -0.2880 -0.3046
  136MOL   O16343633   1.036   0.176   5.396  1.0173 -0.4501  0.5488
  136MOL   C16443634   0.953   0.182   5.510  0.1237  0.5586 -0.1339
  136MOL   C16543635   0.974   0.319   5.569 -0.1455 -0.5795  1.1015
  136MOL   C16643636   0.919   0.431   5.485  0.3009 -0.2572 -0.0638
  136MOL   C16743637   1.020   0.084   5.165 -0.0017  0.0331 -0.4328
  136MOL   H16843638   0.961   7.820   5.350 -0.8016  0.4280 -1.5705
  136MOL   H16943639   0.846   0.174   5.492  0.3408 -1.0418 -0.8258
  136MOL   H17043640   0.986   0.112   5.586 -2.7349 -1.4284 -0.6713
  136MOL   H17143641   1.080   0.336   5.586 -0.2363 -0.5731  1.6990
  136MOL   H17243642   0.928   0.318   5.668 -0.3805 -0.5292  0.9927
  136MOL   H17343643   0.922   0.526   5.539 -0.2860 -0.2365 -0.0604
  136MOL   H17443644   0.815   0.412   5.458  0.5243  1.8510 -2.5844
  136MOL   H17543645   0.983   0.445   5.398  0.6425  2.1432  0.5217
  136MOL   H17643646   1.089   0.161   5.129  0.8628 -0.4420  0.2228
  136MOL   H17743647   1.036   7.822   5.107 -0.3314 -0.3029 -0.0053
  136MOL   C17843648   0.882   0.154   5.143 -0.5753 -0.4225  0.3170
  136MOL   O17943649   0.868   0.222   5.015  0.0834 -0.0369  0.1032
  136MOL   C18043650   0.956   0.331   4.984  0.3170  0.0827 -0.7598
  136MOL   C18143651   0.877   0.432   4.896 -0.5948 -0.2396 -0.2158
  136MOL   C18243652   0.865   0.380   4.749 -0.8660  0.2862  0.0557
  136MOL   C18343653   0.763   0.060   5.154  0.7882 -0.1967 -0.0041
  136MOL   H18443654   0.874   0.230   5.220  3.4426  1.0430 -0.5746
  136MOL   H18543655   0.995   0.385   5.070 -0.6035 -3.3085  1.9017
  136MOL   H18643656   1.049   0.286   4.949  1.0983  0.8550  0.2923
  136MOL   H18743657   0.914   0.534   4.906  0.5059 -0.5356 -1.0970
  136MOL   H18843658   0.780   0.434   4.944 -0.5432 -1.1928 -0.0528
  136MOL   H18943659   0.960   0.338   4.717 -0.8549  0.6059 -0.3272
  136MOL   H19043660   0.837   0.470   4.695 -2.7869  0.5806  1.4686
  136MOL   H19143661   0.782   0.309   4.744  1.0884 -1.9585 -1.9686
  136MOL   H19243662   0.778   0.000   5.244 -0.5859 -2.2096 -1.0883
  136MOL   H19343663   0.677   0.119   5.185  0.8944  0.2086 -0.4797
  136MOL   C19443664   0.727   7.800   5.025 -0.1718  0.4421 -0.5051
  136MOL   O19543665   0.824   7.699   5.012  0.5813  0.2910  0.1903
  136MOL   C19643666   0.844   7.643   4.885 -0.0293  0.1337 -0.4834
  136MOL   C19743667   0.923   7.512   4.891 -0.3991 -0.1866 -0.6191
  136MOL   C19843668   0.934   7.430   4.762  0.6856 -0.2341 -0.2354
  136MOL   C19943669   0.597   7.709   5.032 -0.3613  0.0738 -0.6271
  136MOL   H20043670   0.725   0.031   4.933 -1.3148 -2.0223 -2.1454
  136MOL   H20143671   0.752   7.631   4.828 -1.0855  1.9508  0.7843
  136MOL   H20243672   0.904   7.709   4.823  1.0179 -0.7225 -0.4089
  136MOL   H20343673   0.863   7.447   4.955 -2.9412  4.1011  1.5766
  136MOL   H20443674   1.012   7.526   4.951 -1.9928  0.5747  1.6554
  136MOL   H20543675   0.956   7.326   4.786 -0.7626 -0.4076  0.3951
  136MOL   H20643676   1.010   7.478   4.701  1.2051 -1.8986 -0.9297
  136MOL   H20743677   0.835   7.434   4.716 -0.1713  0.9467  1.6380
  136MOL   H20843678   0.573   7.668   4.934  1.0260 -0.3000 -0.8168
  136MOL   H20943679   0.613   7.624   5.099 -0.0057 -0.6784 -1.6571
  136MOL   C21043680   0.470   7.784   5.075  0.0404  1.0350 -0.0994
  136MOL   O21143681   0.419   0.039   4.973  0.2504 -0.1651  0.3670
  136MOL   C21243682   0.467   0.169   4.945  0.3693  0.0242 -0.0790
  136MOL   C21343683   0.403   0.225   4.818  0.0001 -0.4973 -0.1396
  136MOL   C21443684   0.470   0.351   4.762  0.6909 -0.0530 -0.1004
  136MOL   C21543685   0.355   7.688   5.119  0.2494  0.6119 -0.1610
  136MOL   H21643686   0.492   0.012   5.166  1.5917  1.1158 -0.4934
  136MOL   H21743687   0.447   0.229   5.033  0.1971  0.5970 -0.5031
  136MOL   H21843688   0.574   0.186   4.933  0.3572 -1.1883 -2.2713
  136MOL   H21943689   0.299   0.250   4.837  0.2122  0.1424  0.1769
  136MOL   H22043690   0.400   0.144   4.745 -1.8491  0.5327 -1.2141
  136MOL   H22143691   0.459   0.438   4.827 -1.7533 -0.6739  0.3444
  136MOL   H22243692   0.406   0.386   4.680  0.6138 -0.5473 -0.2530
  136MOL   H22343693   0.576   0.343   4.734  0.7965  1.9660 -0.4019
  136MOL   H22443694   0.323   7.633   5.031 -1.4213  1.6418 -0.2287
  136MOL   H22543695   0.393   7.614   5.190  1.0448 -0.3067 -1.5041
  136MOL   C22643696   0.237   7.753   5.201  0.1229  0.3307  0.2599
  136MOL   O22743697   0.146   7.648   5.235  0.6289  0.0197  0.4055
  136MOL   C22843698   0.046   7.621   5.142  0.2455  0.0786  0.0918
  136MOL   C22943699   7.775   7.524   5.218  0.5777 -0.0098 -0.2400
  136MOL   C23043700   7.697   7.604   5.325  0.3704  0.7858 -0.1334
  136MOL   C23143701   0.280   7.810   5.337  0.0138 -0.0309 -0.3968
  136MOL   H23243702   0.189   7.827   5.138  0.3200  0.6480  0.4824
  136MOL   H23343703   0.006   7.718   5.114 -0.6565  0.0553  1.2000
  136MOL   H23443704   0.079   7.573   5.051  1.4136 -2.3022  1.7143
  136MOL   H23543705   0.004   7.441   5.261 -0.5534 -0.1946  0.9206
  136MOL   H23643706   7.702   7.490   5.146  1.5435  1.1454 -1.7959
  136MOL   H23743707   7.629   7.682   5.288  0.4050  0.8054 -0.1550
  136MOL   H23843708   7.770   7.644   5.395  0.5936 -0.4599  0.3533
  136MOL   H23943709   7.639   7.541   5.392 -0.2696  0.7864 -0.6721
  136MOL   H24043710   0.264   7.732   5.412 -0.3908  0.8732  0.4561
  136MOL   H24143711   0.387   0.001   5.334  0.2195 -1.2115 -0.6399
  136MOL   C24243712   0.203   0.114   5.360 -0.8530  0.7494  0.2936
  136MOL   O24343713   0.065   0.099   5.360 -0.8907  0.3867  0.0696
  136MOL   C24443714   7.826   0.192   5.278  0.0734  0.1366 -0.4760
  136MOL   C24543715   7.673   0.171   5.293  0.5109  0.5533  0.3274
  136MOL   C24643716   7.591   0.282   5.231 -0.2945  0.0546 -0.0555
  136MOL   C24743717   0.234   0.171   5.505  0.3940 -0.6502 -0.2882
  136MOL   H24843718   0.254   0.181   5.290  0.2592  0.7484  1.0749
  136MOL   H24943719   0.016   0.291   5.320 -1.0939  0.3794 -0.5530
  136MOL   H25043720   0.032   0.182   5.175  0.1781  0.2722 -0.4551
  136MOL   H25143721   7.636   0.166   5.396 -0.1152  0.4994  0.1026
  136MOL   H25243722   7.648   0.077   5.243 -0.8779 -0.4230  2.7219
  136MOL   H25343723   7.486   0.269   5.254 -0.0887  0.1033  0.9553
  136MOL   H25443724   7.599   0.279   5.122 -2.1220 -2.7756 -0.1384
  136MOL   H25543725   7.613   0.381   5.273 -0.1570 -0.2894  0.6989
  136MOL   H25643726   0.163   0.249   5.533  2.5909  0.1432  3.5493
  136MOL   H25743727   0.225   0.096   5.584 -1.4894  0.3911  0.5144
  136MOL   C25843728   0.380   0.241   5.519  0.1867  0.3957 -1.1399
  136MOL   O25943729   0.398   0.333   5.415 -0.5949 -0.7425 -0.1543
  136MOL   C26043730   0.499   0.310   5.316 -0.5474  0.0854  0.0882
  136MOL   C26143731   0.490   0.443   5.242  0.1717 -0.6979  0.4559
  136MOL   C26243732   0.356   0.487   5.178 -0.0140 -0.6781  0.0471
  136MOL   C26343733   0.409   0.301   5.660 -0.1631  0.1289 -0.3736
  136MOL   H26443734   0.455   0.165   5.497  0.6356  0.2888  0.7021
  136MOL   H26543735   0.592   0.291   5.369 -2.0710 -1.9493  2.1210
  136MOL   H26643736   0.473   0.224   5.254 -1.2494  0.4071 -0.0775
  136MOL   H26743737   0.568   0.446   5.166  2.8472  0.4668  3.1468
  136MOL   H26843738   0.517   0.517   5.317  0.7932 -1.6652  1.2099
  136MOL   H26943739   0.301   0.532   5.260 -0.5644  1.5741 -1.5133
  136MOL   H27043740   0.297   0.405   5.136  0.8180 -0.7242 -1.0510
  136MOL   H27143741   0.376   0.567   5.107 -0.4562 -1.9976 -1.6072
  136MOL   H27243742   0.348   0.391   5.669  1.4218  1.1614  0.2864
  136MOL   H27343743   0.379   0.230   5.737 -0.6885  0.6960 -0.0502
  136MOL   C27443744   0.557   0.335   5.677  0.5325 -0.2792  0.1710
  136MOL   O27543745   0.577   0.468   5.718 -0.5109 -0.6837  0.4108
  136MOL   C27643746   0.569   0.566   5.622 -0.3898 -0.1237  0.8840
  136MOL   C27743747   0.583   0.701   5.693  0.1618  1.0574  0.0756
  136MOL   C27843748   0.464   0.721   5.786 -0.2370 -0.2932  0.1397
  136MOL   C27943749   0.621   0.255   5.795 -0.0221 -0.4225  0.1309
  136MOL   H28043750   0.604   0.312   5.582  1.4538 -0.2382  0.6147
  136MOL   H28143751   0.647   0.552   5.546 -1.9318  1.0780 -0.9867
  136MOL   H28243752   0.474   0.555   5.570 -0.7532 -0.3968  1.6062
  136MOL   H28343753   0.590   0.783   5.621 -0.0845 -0.0392 -1.2226
  136MOL   H28443754   0.674   0.710   5.752  0.9003 -2.9793 -0.3319
  136MOL   H28543755   0.455   0.823   5.823 -3.0260 -0.7472  0.8324
  136MOL   H28643756   0.470   0.658   5.874 -1.9068 -0.5480  0.0870
  136MOL   H28743757   0.370   0.700   5.735 -0.7397  2.4873 -0.1712
  136MOL   H28843758   0.725   0.287   5.783 -0.3201 -0.4014 -2.9227
  136MOL   H28943759   0.584   0.287   5.892 -0.8153 -1.1704  0.0836
  136MOL   C29043760   0.606   0.104   5.788 -1.0501 -0.1652 -0.1618
  136MOL   O29143761   0.643   0.054   5.660 -0.3950  0.5135 -0.1322
  136MOL   C29243762   0.584   7.757   5.628  0.2706 -0.1532 -0.4471
  136MOL   C29343763   0.628   7.720   5.487 -0.5028  0.1002 -0.0964
  136MOL   C29443764   0.571   7.590   5.428 -0.3635 -0.3182 -0.4225
  136MOL   C29543765   0.704   0.051   5.894 -0.3329 -0.5230 -0.1596
  136MOL   H29643766   0.505   0.068   5.807 -0.7932 -0.5391  0.4916
  136MOL   H29743767   0.623   7.686   5.701  0.1603 -1.4823 -1.6668
  136MOL   H29843768   0.477   7.763   5.643  0.4015  0.5913  0.2581
  136MOL   H29943769   0.736   7.721   5.500 -0.2474  0.2251 -2.1018
  136MOL   H30043770   0.605   7.800   5.416 -0.6355 -0.3297 -0.5391
  136MOL   H30143771   0.622   7.506   5.477  1.1585  2.3882  2.8764
  136MOL   H30243772   0.589   7.576   5.322  3.8025 -1.6668  0.3757
  136MOL   H30343773   0.466   7.580   5.456 -0.1999 -0.6191  0.0989
  136MOL   H30443774   0.720   7.771   5.889  1.1271 -0.3558  0.7476
  136MOL   H30543775   0.804   0.089   5.869 -0.1307 -0.7823  0.2586
  136MOL   C30643776   0.670   0.076   6.044  0.5297  0.8825 -0.1279
  136MOL   O30743777   0.535   0.029   6.069 -0.3112  0.2513  0.3760
  136MOL   C30843778   0.478   0.061   6.193 -0.7776  0.4360  0.1884
  136MOL   C30943779   0.337   7.827   6.203  1.1479 -0.4066 -0.2561
  136MOL   C31043780   0.247   0.056   6.092 -0.2170  0.3585 -0.1843
  136MOL   C31143781   0.764   0.000   6.137  0.0196 -0.1128 -0.1416
  136MOL   H31243782   0.677   0.180   6.075  1.9556  0.5860  0.5640
  136MOL   H31343783   0.551   0.021   6.264 -1.2148 -2.6704 -1.0620
  136MOL   H31443784   0.469   0.169   6.209 -1.1744  0.6559 -1.4437
  136MOL   H31543785   0.297   0.032   6.299  0.8170 -0.6527 -0.3097
  136MOL   H31643786   0.349   7.719   6.209  1.3861 -0.3701 -0.0515
  136MOL   H31743787   0.140   0.043   6.108 -0.4356  0.2350 -1.7072
  136MOL   H31843788   0.286   0.022   5.996 -0.8454 -1.6307  0.2531
  136MOL   H31943789   0.259   0.164   6.083  0.4864  0.3927  1.1027
  136MOL   H32043790   0.866   0.007   6.102 -0.2627 -1.0414 -1.1606
  136MOL   H32143791   0.764   0.043   6.238 -1.9999  0.6205 -0.4166
  136MOL   H32243792   0.734   7.723   6.141 -1.9886  0.4941  1.5349
  137MOL     C143793   4.996   3.348   3.131 -0.0556  0.1426  0.0670
  137MOL     O243794   5.103   3.376   3.041  0.1370 -0.2074  0.1970
  137MOL     C343795   5.225   3.415   3.098 -0.6485  0.2101 -0.0082
  137MOL     C443796   5.332   3.428   2.988  0.6561  0.5959 -0.9417
  137MOL     C543797   5.374   3.303   2.914  0.4747 -0.0640  0.2696
  137MOL     C643798   4.875   3.304   3.049  0.1526 -0.4159 -0.1303
  137MOL     H743799   4.978   3.434   3.195 -1.6638  0.0917 -0.3038
  137MOL     H843800   5.205   3.516   3.134  0.6766  0.5718 -0.2700
  137MOL     H943801   5.263   3.350   3.176 -0.6299 -1.0976 -1.0804
  137MOL    H1043802   5.415   3.478   3.039  1.0653 -0.7321 -0.2820
  137MOL    H1143803   5.290   3.498   2.915  1.7718 -0.0591 -2.2381
  137MOL    H1243804   5.451   3.337   2.844 -0.4029  0.2097 -0.5750
  137MOL    H1343805   5.295   3.253   2.859 -1.9024  1.1552  2.4578
  137MOL    H1443806   5.418   3.234   2.985  0.7273 -0.1228  0.0576
  137MOL    H1543807   4.863   3.387   2.979 -1.2109 -1.4922 -1.2044
  137MOL    H1643808   4.913   3.221   2.990  1.1856 -0.7175  0.9289
  137MOL    H1743809   5.032   3.268   3.195  0.3817  0.3192  0.0476
  137MOL    C1843810   4.747   3.284   3.135  0.6487  0.0841 -0.4794
  137MOL    O1943811   4.710   3.405   3.192  0.3814 -0.5487 -0.3897
  137MOL    C2043812   4.622   3.404   3.305  0.7302 -0.2612  0.7382
  137MOL    C2143813   4.597   3.557   3.334  0.5756  0.1369  0.1779
  137MOL    C2243814   4.722   3.645   3.298 -0.1058 -0.2023 -0.1149
  137MOL    C2343815   4.638   3.241   3.033  0.3544 -0.6209  0.1589
  137MOL    H2443816   4.756   3.208   3.213 -0.3960  0.5347  0.0930
  137MOL    H2543817   4.526   3.361   3.276 -0.1905  2.9899 -1.3231
  137MOL    H2643818   4.653   3.337   3.385  0.8570 -0.8836  0.1767
  137MOL    H2743819   4.572   3.561   3.440  0.3710 -0.8539  0.1708
  137MOL    H2843820   4.508   3.591   3.280  0.3900 -0.3675  0.1686
  137MOL    H2943821   4.803   3.605   3.360  2.1070  0.3664 -2.5547
  137MOL    H3043822   4.697   3.750   3.307 -0.9041 -0.4464  0.5611
  137MOL    H3143823   4.749   3.629   3.194  0.2298  4.5713 -0.8348
  137MOL    H3243824   4.541   3.284   3.057 -0.7482 -1.3117 -2.8905
  137MOL    H3343825   4.674   3.281   2.939  2.8820 -1.4717  0.7130
  137MOL    C3443826   4.633   3.083   3.025 -0.9157 -0.5055 -0.5340
  137MOL    O3543827   4.590   3.020   3.145  0.3447  0.3630 -0.1020
  137MOL    C3643828   4.465   3.056   3.206  0.1562 -0.0777 -0.3763
  137MOL    C3743829   4.448   2.972   3.344 -0.1200 -0.6340  0.8183
  137MOL    C3843830   4.531   3.036   3.457 -0.0641 -0.4250 -0.0993
  137MOL    C3943831   4.536   3.038   2.915  0.0239  0.6198  0.1456
  137MOL    H4043832   4.737   3.053   3.015 -0.8976 -0.2803 -1.0305
  137MOL    H4143833   4.442   3.161   3.224  3.9244  0.6729  0.6952
  137MOL    H4243834   4.392   3.015   3.137 -0.3011 -0.1661  0.1599
  137MOL    H4343835   4.481   2.868   3.338  1.1021 -0.2435  0.4761
  137MOL    H4443836   4.345   2.978   3.378 -0.8833 -3.3906 -0.9145
  137MOL    H4543837   4.501   2.993   3.553 -1.2773  2.4462  0.8466
  137MOL    H4643838   4.513   3.143   3.469 -0.6521 -0.7163  1.7907
  137MOL    H4743839   4.639   3.030   3.441  0.4097  0.2544  2.5536
  137MOL    H4843840   4.530   2.929   2.916 -0.6492  0.6058 -1.8785
  137MOL    H4943841   4.435   3.071   2.939 -0.1036  0.7141 -0.5118
  137MOL    C5043842   4.572   3.089   2.770 -0.4593 -0.0413  0.2039
  137MOL    O5143843   4.543   2.988   2.671  0.2501  0.4395 -0.0750
  137MOL    C5243844   4.589   2.860   2.689 -0.4105  0.3704 -0.4490
  137MOL    C5343845   4.622   2.791   2.555 -0.8892  0.2874  0.8412
  137MOL    C5443846   4.668   2.642   2.573 -0.1486  0.2406 -0.3209
  137MOL    C5543847   4.489   3.226   2.744 -0.3083 -0.1328 -0.4233
  137MOL    H5643848   4.680   3.107   2.768 -0.3624 -0.6802 -0.8293
  137MOL    H5743849   4.676   2.853   2.755 -0.6820 -0.2375 -0.1573
  137MOL    H5843850   4.504   2.813   2.736 -0.4995  1.5150  0.5751
  137MOL    H5943851   4.709   2.834   2.506 -0.8629 -0.3188  0.3515
  137MOL    H6043852   4.543   2.789   2.480  1.4070  2.3005 -1.7233
  137MOL    H6143853   4.578   2.583   2.583 -0.6964  0.9799 -0.8004
  137MOL    H6243854   4.721   2.615   2.665 -2.5152  0.7765  1.2510
  137MOL    H6343855   4.708   2.602   2.480  1.2669  1.7985 -0.4223
  137MOL    H6443856   4.384   3.203   2.729 -0.9528  1.9875  0.6404
  137MOL    H6543857   4.487   3.295   2.828  3.2591  0.6459 -0.9135
  137MOL    C6643858   4.563   3.315   2.637  0.0854 -1.1534  0.1440
  137MOL    O6743859   4.462   3.354   2.545  0.0629  0.5899  0.5979
  137MOL    C6843860   4.459   3.269   2.428  0.0652 -0.3598 -0.4160
  137MOL    C6943861   4.336   3.311   2.353 -0.0120 -0.7416  0.4372
  137MOL    C7043862   4.333   3.467   2.312 -0.5986 -0.7369  0.0715
  137MOL    C7143863   4.620   3.446   2.702  0.4524 -0.1801 -0.3742
  137MOL    H7243864   4.638   3.248   2.594 -1.6296 -2.0576 -1.5599
  137MOL    H7343865   4.544   3.289   2.364  0.9505  2.8782  1.6194
  137MOL    H7443866   4.468   3.162   2.450 -0.8479 -1.1284 -3.5125
  137MOL    H7543867   4.247   3.290   2.412 -1.0683  2.8361  0.2747
  137MOL    H7643868   4.327   3.259   2.258  1.2722 -1.5727  0.7524
  137MOL    H7743869   4.240   3.485   2.258 -1.7084  0.3160  2.2628
  137MOL    H7843870   4.425   3.473   2.253 -2.1254 -1.0446 -2.4114
  137MOL    H7943871   4.358   3.525   2.401 -0.5290 -1.2618  0.3957
  137MOL    H8043872   4.539   3.511   2.735  0.5072 -0.0854 -0.4260
  137MOL    H8143873   4.681   3.433   2.791 -0.6018 -1.7397  0.1273
  137MOL    C8243874   4.710   3.519   2.600  0.0691 -0.2448 -0.3554
  137MOL    O8343875   4.733   3.652   2.658  0.0140  0.1477 -0.4859
  137MOL    C8443876   4.790   3.748   2.571 -0.4636 -0.3856  0.3105
  137MOL    C8543877   4.772   3.894   2.621 -0.3263 -0.0195 -0.2954
  137MOL    C8643878   4.830   3.998   2.524 -0.2721  0.2922  0.3164
  137MOL    C8743879   4.852   3.445   2.595  0.4925  0.6719 -0.2312
  137MOL    H8843880   4.653   3.511   2.508  1.7078 -1.7435 -1.2571
  137MOL    H8943881   4.893   3.730   2.538 -0.7054 -0.8137 -0.2214
  137MOL    H9043882   4.742   3.728   2.475  2.3594  0.4350 -1.3525
  137MOL    H9143883   4.835   3.904   2.710 -1.7343  0.5184  0.6548
  137MOL    H9243884   4.668   3.910   2.648 -0.2508  0.4869 -0.3103
  137MOL    H9343885   4.762   4.010   2.440 -0.0643 -2.9823 -0.3999
  137MOL    H9443886   4.927   3.963   2.490  0.1021  2.8507 -1.3597
  137MOL    H9543887   4.837   4.091   2.581 -0.6286  1.4731 -1.5190
  137MOL    H9643888   4.926   3.497   2.655  0.6438  0.3766 -0.1603
  137MOL    H9743889   4.856   3.353   2.654  0.4402  1.3240  0.8196
  137MOL    C9843890   4.899   3.414   2.451  0.6963  0.8332 -0.5472
  137MOL    O9943891   4.909   3.534   2.377  0.0734 -0.3367 -0.5465
  137MOL   C10043892   4.851   3.535   2.250  0.2252  0.0190 -0.2908
  137MOL   C10143893   4.864   3.680   2.193  1.0705 -0.7435  0.1638
  137MOL   C10243894   5.013   3.732   2.183  0.4366  0.0358 -0.0529
  137MOL   C10343895   5.046   3.359   2.452  0.1586 -0.0918  0.4818
  137MOL   H10443896   4.831   3.341   2.407 -0.0697  0.4181  1.2794
  137MOL   H10543897   4.905   3.461   2.190 -2.1272 -1.3878 -0.7441
  137MOL   H10643898   4.749   3.498   2.247 -0.4673  1.9484 -2.8055
  137MOL   H10743899   4.800   3.742   2.256 -0.2040 -1.3941 -0.4479
  137MOL   H10843900   4.812   3.669   2.097  0.6167  1.3426  0.1580
  137MOL   H10943901   5.006   3.819   2.117  1.0790 -1.5510 -2.2545
  137MOL   H11043902   5.076   3.652   2.144  1.4226  1.1112 -0.7172
  137MOL   H11143903   5.055   3.758   2.280 -0.2513  0.5394  0.1158
  137MOL   H11243904   5.080   3.368   2.349  0.4711 -2.1582  0.3873
  137MOL   H11343905   5.109   3.430   2.507 -0.5443  1.5092 -0.7377
  137MOL   C11443906   5.058   3.214   2.489 -0.1660 -0.5941 -0.4935
  137MOL   O11543907   5.007   3.139   2.384 -0.0687  0.1597 -0.8078
  137MOL   C11643908   4.947   3.013   2.411 -0.4742  0.4124 -0.1742
  137MOL   C11743909   4.897   2.958   2.279 -0.3365 -0.1624  0.5857
  137MOL   C11843910   4.800   3.059   2.219 -0.1066  0.8475  0.6608
  137MOL   C11943911   5.201   3.172   2.518 -0.9417  0.0921  0.1378
  137MOL   H12043912   5.003   3.197   2.581 -0.5298  0.2093 -0.5579
  137MOL   H12143913   5.020   2.944   2.454  0.4185  2.2718  1.3685
  137MOL   H12243914   4.865   3.020   2.482 -0.6849  3.2498 -0.6466
  137MOL   H12343915   4.846   2.865   2.304  0.9972 -0.7896  1.0566
  137MOL   H12443916   4.982   2.932   2.216  0.8654  0.5146  1.8820
  137MOL   H12543917   4.718   3.102   2.277  0.1116  2.1908  0.0008
  137MOL   H12643918   4.744   3.009   2.140  0.6375 -2.0834  1.9240
  137MOL   H12743919   4.852   3.145   2.177 -0.1098  1.4280  1.8264
  137MOL   H12843920   5.223   3.218   2.615  2.0892 -0.0365 -0.4437
  137MOL   H12943921   5.200   3.068   2.550  1.0709 -0.4302 -1.4662
  137MOL   C13043922   5.315   3.198   2.417  0.2985 -0.1679  0.3949
  137MOL   O13143923   5.440   3.193   2.473  0.3741 -0.2808 -0.2844
  137MOL   C13243924   5.476   3.322   2.536 -0.2652  0.0357  0.1940
  137MOL   C13343925   5.605   3.295   2.609 -0.5173  0.1821 -0.5985
  137MOL   C13443926   5.724   3.262   2.524 -0.4337 -0.2445  0.1104
  137MOL   C13543927   5.319   3.095   2.302 -0.7161  0.4156 -0.1826
  137MOL   H13643928   5.288   3.293   2.372  2.2812 -0.2241 -1.0155
  137MOL   H13743929   5.492   3.398   2.460  1.0250  0.6636  1.0637
  137MOL   H13843930   5.403   3.369   2.601 -1.3465 -1.4986  0.0993
  137MOL   H13943931   5.585   3.212   2.677 -2.8883  1.7024  0.6159
  137MOL   H14043932   5.628   3.381   2.671  0.2754  0.1564 -0.8500
  137MOL   H14143933   5.706   3.166   2.476  0.2136 -1.2266  1.7674
  137MOL   H14243934   5.815   3.261   2.583 -0.5344  1.1286  0.3134
  137MOL   H14343935   5.744   3.343   2.455  0.0455 -0.4500  0.0072
  137MOL   H14443936   5.352   2.999   2.340 -0.6576  1.1059  1.5395
  137MOL   H14543937   5.216   3.073   2.274 -0.6604 -0.3466  0.2138
  137MOL   C14643938   5.410   3.134   2.185  0.1864  0.2324  0.3628
  137MOL   O14743939   5.338   3.244   2.126  0.0263  0.0559  0.2316
  137MOL   C14843940   5.255   3.203   2.018 -0.1151  0.1325  0.1089
  137MOL   C14943941   5.131   3.295   2.022  0.6656 -0.5161 -0.0528
  137MOL   C15043942   5.025   3.255   1.924 -0.2117 -0.8721  0.0470
  137MOL   C15143943   5.553   3.176   2.207 -0.6193 -0.1109  0.1609
  137MOL   H15243944   5.414   3.047   2.118 -0.3832  0.4220  0.0792
  137MOL   H15343945   5.307   3.204   1.922 -0.3779 -2.9526 -0.1253
  137MOL   H15443946   5.224   3.101   2.041 -1.6853  0.7094  0.6468
  137MOL   H15543947   5.163   3.396   1.994  2.1579 -0.9320  0.1309
  137MOL   H15643948   5.082   3.306   2.118  0.9685  1.1998 -0.0630
  137MOL   H15743949   4.964   3.167   1.948  1.1233 -2.6835 -3.0017
  137MOL   H15843950   5.082   3.215   1.841  1.6401  0.3535  0.6953
  137MOL   H15943951   4.956   3.323   1.874  0.1728 -0.4905  0.0361
  137MOL   H16043952   5.570   3.262   2.273 -0.1991 -0.3305  0.3426
  137MOL   H16143953   5.598   3.091   2.257  0.1242  0.0758 -0.1873
  137MOL   C16243954   5.635   3.216   2.081  1.0138 -0.5421  0.1386
  137MOL   O16343955   5.752   3.288   2.110  0.0666 -0.8133 -0.0444
  137MOL   C16443956   5.728   3.423   2.135  0.0414  0.2955  0.4467
  137MOL   C16543957   5.859   3.504   2.110 -0.5384 -0.3614  0.1566
  137MOL   C16643958   5.985   3.451   2.185  0.6966  0.3542  0.3666
  137MOL   C16743959   5.680   3.096   1.995  0.0763 -0.5989  0.0722
  137MOL   H16843960   5.563   3.272   2.020 -0.6294 -1.6971  0.9879
  137MOL   H16943961   5.654   3.465   2.066  1.7219 -1.2300 -2.3570
  137MOL   H17043962   5.694   3.432   2.239 -0.3693  0.4376  0.3034
  137MOL   H17143963   5.838   3.608   2.132 -0.1918 -0.2650  0.0389
  137MOL   H17243964   5.885   3.507   2.004  2.8543  0.8956  0.9479
  137MOL   H17343965   6.073   3.515   2.184  1.0898 -0.1875 -1.0769
  137MOL   H17443966   6.011   3.354   2.143  0.0690  0.8351 -1.1576
  137MOL   H17543967   5.967   3.437   2.292  0.2992 -1.1761  0.1099
  137MOL   H17643968   5.755   3.044   2.055 -0.1008  2.7688  3.3961
  137MOL   H17743969   5.600   3.023   1.990 -0.5196  0.2101 -3.1957
  137MOL   C17843970   5.740   3.136   1.861  0.0475 -0.0974  0.1910
  137MOL   O17943971   5.872   3.078   1.841 -0.0509 -0.2470  0.4157
  137MOL   C18043972   5.972   3.144   1.923  0.8167  0.3009 -0.0194
  137MOL   C18143973   6.105   3.135   1.856 -0.0108  0.8484 -0.2785
  137MOL   C18243974   6.214   3.194   1.944  0.1894  0.2484 -0.2481
  137MOL   C18343975   5.666   3.079   1.734  0.0758  0.1524  0.0707
  137MOL   H18443976   5.752   3.243   1.849  1.7630 -0.3325 -0.4202
  137MOL   H18543977   5.949   3.250   1.916  1.7787  0.6343  1.4576
  137MOL   H18643978   5.990   3.113   2.026  1.4640  2.2484  0.4614
  137MOL   H18743979   6.108   3.187   1.761 -1.0757 -0.3245 -0.9836
  137MOL   H18843980   6.125   3.034   1.821 -1.0527  0.1445  1.0734
  137MOL   H18943981   6.242   3.291   1.904 -1.4336  0.6548 -0.4303
  137MOL   H19043982   6.305   3.135   1.928 -0.2233 -0.0693 -1.4917
  137MOL   H19143983   6.208   3.214   2.051  2.3353 -0.0898 -0.0321
  137MOL   H19243984   5.719   3.083   1.638 -0.5300 -0.9445 -0.3166
  137MOL   H19343985   5.653   2.971   1.746  1.5281 -0.3040 -2.1179
  137MOL   C19443986   5.523   3.138   1.700  0.2884  0.6538  0.1639
  137MOL   O19543987   5.553   3.264   1.641  0.1436  0.6058  0.7548
  137MOL   C19643988   5.443   3.357   1.640  0.1981  0.0204 -0.3654
  137MOL   C19743989   5.458   3.455   1.752  0.2569 -0.0295  1.0621
  137MOL   C19843990   5.574   3.563   1.724  0.3214  0.4218 -0.0963
  137MOL   C19943991   5.450   3.059   1.587 -0.1284 -0.3047  0.2981
  137MOL   H20043992   5.453   3.144   1.783  0.5627  1.3406  0.3488
  137MOL   H20143993   5.430   3.404   1.543 -0.1275  0.0490 -0.3105
  137MOL   H20243994   5.341   3.320   1.655  1.2381 -1.9872  2.1207
  137MOL   H20343995   5.491   3.395   1.837 -1.4246  1.3496  2.7227
  137MOL   H20443996   5.362   3.504   1.765  0.7543  1.7860 -1.7186
  137MOL   H20543997   5.541   3.637   1.651 -0.4804 -0.2144 -0.3953
  137MOL   H20643998   5.672   3.524   1.699  0.0217 -0.7605  0.5400
  137MOL   H20743999   5.605   3.614   1.814 -1.7552  1.2123  0.1936
  137MOL   H20844000   5.407   3.129   1.516  0.2168 -0.0626  0.3219
  137MOL   H20944001   5.528   3.016   1.524 -0.4968 -1.6448  0.7338
  137MOL   C21044002   5.359   2.941   1.629 -0.2634 -0.5201 -0.4125
  137MOL   O21144003   5.224   2.987   1.642  0.3293  0.6124  0.2113
  137MOL   C21244004   5.151   2.910   1.737 -0.5436  0.3150 -0.1404
  137MOL   C21344005   5.001   2.934   1.719 -0.8905  0.1324 -0.6426
  137MOL   C21444006   4.912   2.823   1.784 -0.6257 -0.2593 -1.2483
  137MOL   C21544007   5.371   2.823   1.519  0.1138 -0.1924  0.3157
  137MOL   H21644008   5.396   2.903   1.724  0.9587  0.1121 -0.6124
  137MOL   H21744009   5.175   2.806   1.716 -1.8065 -0.4332  2.0186
  137MOL   H21844010   5.183   2.946   1.834 -0.9161 -1.1946  0.5546
  137MOL   H21944011   4.978   2.933   1.612 -0.1562  0.6276 -0.8051
  137MOL   H22044012   4.966   3.031   1.755 -1.3688 -0.5197  0.6723
  137MOL   H22144013   4.804   2.828   1.767 -1.0825 -0.8078  1.2614
  137MOL   H22244014   4.923   2.832   1.892 -1.9808  1.3027 -1.2195
  137MOL   H22344015   4.945   2.728   1.741 -0.2254  0.2363 -2.0510
  137MOL   H22444016   5.278   2.766   1.524  0.3401 -0.6278 -0.3828
  137MOL   H22544017   5.372   2.870   1.420 -1.5722 -0.3690  0.1987
  137MOL   C22644018   5.498   2.731   1.522 -0.0559 -0.1224 -0.5058
  137MOL   O22744019   5.489   2.669   1.650 -0.1883  0.2117 -0.1470
  137MOL   C22844020   5.605   2.607   1.686  0.3813 -0.3336 -0.1043
  137MOL   C22944021   5.607   2.574   1.833  0.6163  0.2050  0.2986
  137MOL   C23044022   5.591   2.700   1.916 -0.2152  0.2146 -0.3562
  137MOL   C23144023   5.491   2.630   1.405  0.1089 -0.1657 -0.2218
  137MOL   H23244024   5.587   2.794   1.526  0.5527 -1.0284  0.3802
  137MOL   H23344025   5.628   2.521   1.623  1.6201  0.7781 -1.2310
  137MOL   H23444026   5.686   2.680   1.676  0.9605 -0.4353  3.2272
  137MOL   H23544027   5.690   2.516   1.873 -1.0289 -2.4287  0.0183
  137MOL   H23644028   5.526   2.502   1.849  1.1432 -0.7455 -1.1762
  137MOL   H23744029   5.502   2.762   1.900  0.5570  1.3084 -0.4444
  137MOL   H23844030   5.660   2.776   1.880 -0.6039  0.2254 -1.0914
  137MOL   H23944031   5.608   2.694   2.023 -0.2534  0.1881 -0.3513
  137MOL   H24044032   5.467   2.532   1.447  2.1177  0.3544  2.2875
  137MOL   H24144033   5.408   2.662   1.341  3.0326  0.8617 -3.6552
  137MOL   C24244034   5.632   2.629   1.321  0.4591  0.0195 -0.5925
  137MOL   O24344035   5.636   2.510   1.246 -0.0800  0.4890  0.0727
  137MOL   C24444036   5.663   2.391   1.316  0.3737  0.4335 -0.7742
  137MOL   C24544037   5.691   2.265   1.231  0.4329  0.0544 -0.5144
  137MOL   C24644038   5.568   2.206   1.153  0.6246  0.0251  0.7118
  137MOL   C24744039   5.628   2.746   1.221  0.0342  0.1061 -0.0715
  137MOL   H24844040   5.714   2.628   1.392 -1.5511 -1.1674  1.8000
  137MOL   H24944041   5.738   2.404   1.395  2.1844 -3.4773 -1.7595
  137MOL   H25044042   5.580   2.368   1.383  2.1748 -0.3785  1.2453
  137MOL   H25144043   5.739   2.196   1.302 -0.4223 -0.0555 -0.0392
  137MOL   H25244044   5.766   2.282   1.154  0.8461  1.4584  0.1890
  137MOL   H25344045   5.489   2.178   1.223  1.0289 -1.0614  0.7533
  137MOL   H25444046   5.605   2.113   1.108  1.6054  0.4479  0.6363
  137MOL   H25544047   5.517   2.277   1.088 -0.9944  0.1132  2.0575
  137MOL   H25644048   5.603   2.702   1.125 -0.9291  0.2038  0.1354
  137MOL   H25744049   5.558   2.824   1.248 -2.3257 -1.5719 -1.1411
  137MOL   C25844050   5.767   2.813   1.209 -0.2735  0.2756 -0.0606
  137MOL   O25944051   5.791   2.877   1.330 -0.5303 -0.0570 -0.1322
  137MOL   C26044052   5.896   2.980   1.335 -0.7994  0.0368 -0.0709
  137MOL   C26144053   6.007   2.927   1.430 -0.1826  0.1020 -0.1244
  137MOL   C26244054   5.941   2.917   1.568 -0.3015 -0.1732  0.0723
  137MOL   C26344055   5.874   2.721   1.162 -0.0480 -0.3455  0.3088
  137MOL   H26444056   5.767   2.897   1.139 -2.4706  2.0466  1.9826
  137MOL   H26544057   5.938   3.011   1.239 -0.1155  0.0064  0.2168
  137MOL   H26644058   5.846   3.068   1.375 -0.2296  0.9327 -1.2877
  137MOL   H26744059   6.089   2.999   1.425 -1.2634  1.2374 -1.8149
  137MOL   H26844060   6.049   2.838   1.384  1.1571  0.6204  0.0654
  137MOL   H26944061   5.993   2.846   1.632 -1.3830 -0.8217  0.2304
  137MOL   H27044062   5.836   2.891   1.570 -0.8130  1.9219  3.0040
  137MOL   H27144063   5.961   3.016   1.610  1.9682 -0.2685 -0.6928
  137MOL   H27244064   5.959   2.734   1.229  0.3050 -3.3330  0.5138
  137MOL   H27344065   5.849   2.617   1.181  0.7738 -0.0817  3.0526
  137MOL   C27444066   5.919   2.738   1.024  0.5764  0.7194 -0.2420
  137MOL   O27544067   5.951   2.874   0.999  0.5488  0.0686 -0.1582
  137MOL   C27644068   5.900   2.921   0.873  0.2859 -0.5415 -1.1201
  137MOL   C27744069   5.980   3.041   0.831  0.7008  0.1508  0.2500
  137MOL   C27844070   5.936   3.179   0.886  0.8400  0.0955  0.1559
  137MOL   C27944071   6.032   2.642   0.978 -0.2354  0.1406  0.3048
  137MOL   H28044072   5.829   2.711   0.968  1.2320  0.9329 -1.4157
  137MOL   H28144073   5.926   2.848   0.796  1.6694 -0.2059 -0.9702
  137MOL   H28244074   5.792   2.935   0.882  0.5912  1.5879 -0.4588
  137MOL   H28344075   5.965   3.046   0.724 -1.1567 -0.6236  0.4607
  137MOL   H28444076   6.085   3.018   0.852  0.7291  0.4568  0.4399
  137MOL   H28544077   5.828   3.182   0.905  0.8196 -0.1517  0.0783
  137MOL   H28644078   5.942   3.269   0.824 -0.9248 -0.6197 -1.0913
  137MOL   H28744079   5.985   3.200   0.981  0.0032  3.0362 -0.0071
  137MOL   H28844080   6.065   2.674   0.879 -1.9634 -1.3196 -0.7685
  137MOL   H28944081   6.122   2.646   1.040 -0.3505  2.3010  0.3566
  137MOL   C29044082   5.996   2.493   0.964  0.2314  0.5697 -0.0552
  137MOL   O29144083   5.909   2.493   0.848 -0.2422 -0.2612  0.1793
  137MOL   C29244084   5.834   2.369   0.830 -0.4211  0.1437  0.6611
  137MOL   C29344085   5.858   2.346   0.680  0.2298  0.3816  0.3630
  137MOL   C29444086   5.772   2.239   0.617  0.4732  0.6831 -0.0461
  137MOL   C29544087   6.121   2.400   0.944  0.1359  0.0658  0.2159
  137MOL   H29644088   5.947   2.452   1.052 -0.8888 -0.3460 -1.1021
  137MOL   H29744089   5.865   2.276   0.879 -0.5108 -0.1967  0.0758
  137MOL   H29844090   5.730   2.388   0.857 -0.9519  0.2191 -1.3672
  137MOL   H29944091   5.960   2.311   0.672  0.1793  0.5120 -1.0745
  137MOL   H30044092   5.851   2.436   0.619  1.7507  0.1617 -0.1557
  137MOL   H30144093   5.809   2.218   0.517 -0.5145 -0.9391 -0.0947
  137MOL   H30244094   5.664   2.251   0.609  0.3163  0.4991  1.6375
  137MOL   H30344095   5.788   2.143   0.666 -0.7872 -0.0793 -1.0931
  137MOL   H30444096   6.093   2.301   0.910  0.4741  0.0085  0.1087
  137MOL   H30544097   6.184   2.439   0.864  0.0463  1.4885  0.8157
  137MOL   C30644098   6.219   2.398   1.063  0.5713 -0.1135 -0.3247
  137MOL   O30744099   6.145   2.351   1.179 -0.1264  0.0334  0.7100
  137MOL   C30844100   6.175   2.415   1.304 -0.6029 -0.0940  0.8253
  137MOL   C30944101   6.074   2.379   1.420 -0.2051  0.3436  0.3896
  137MOL   C31044102   6.093   2.459   1.545 -0.1680  0.0319 -0.3356
  137MOL   C31144103   6.332   2.297   1.022  0.3965  0.0968 -0.1193
  137MOL   H31244104   6.255   2.498   1.087  0.0498 -0.1165  0.5053
  137MOL   H31344105   6.279   2.405   1.333  0.1110  0.8526 -1.3180
  137MOL   H31444106   6.161   2.521   1.280  0.7284  0.0489  0.6371
  137MOL   H31544107   6.083   2.275   1.451  2.1648  0.3058 -0.3341
  137MOL   H31644108   5.972   2.388   1.381  0.4677 -1.1388 -1.7961
  137MOL   H31744109   6.086   2.567   1.531  0.3383  0.1117  0.0259
  137MOL   H31844110   6.191   2.445   1.590 -0.1612 -1.1034 -0.6837
  137MOL   H31944111   6.018   2.438   1.620  0.6630  1.2353  0.8445
  137MOL   H32044112   6.403   2.270   1.100 -0.1730 -0.4120  0.2232
  137MOL   H32144113   6.282   2.204   0.995  0.6139 -0.6566  2.0115
  137MOL   H32244114   6.382   2.343   0.936 -0.5730  0.7725 -0.3363
  138MOL     C144115   1.429   0.339   0.847  0.0448  0.1613 -0.5663
  138MOL     O244116   1.561   0.301   0.812  0.1523  0.5601 -0.1307
  138MOL     C344117   1.640   0.256   0.917 -0.7248 -0.2423  0.7295
  138MOL     C444118   1.772   0.202   0.847  0.8093  0.0318  0.1840
  138MOL     C544119   1.891   0.183   0.939  0.0408  0.1660  0.1269
  138MOL     C644120   1.369   0.447   0.763  0.5789  0.3822 -1.1324
  138MOL     H744121   1.433   0.365   0.953  0.2872 -1.7396 -0.0979
  138MOL     H844122   1.660   0.344   0.978  0.8525 -0.7369  0.9472
  138MOL     H944123   1.581   0.181   0.969 -0.1700 -1.8407 -0.9019
  138MOL    H1044124   1.800   0.270   0.766 -0.8078  0.8263  0.2618
  138MOL    H1144125   1.740   0.109   0.798  0.6478 -0.4938  1.2708
  138MOL    H1244126   1.874   0.118   1.025 -3.2299  1.8248  0.8099
  138MOL    H1344127   1.936   0.277   0.971 -0.1699  0.2749  0.1011
  138MOL    H1444128   1.969   0.138   0.877 -0.9619  0.8138 -1.6357
  138MOL    H1544129   1.403   0.539   0.809 -0.8611 -0.2301  1.2181
  138MOL    H1644130   1.406   0.435   0.661  2.4039 -0.6755 -0.3669
  138MOL    H1744131   1.376   0.245   0.834  0.7860 -0.0414 -2.2712
  138MOL    C1844132   1.210   0.436   0.774  0.2953 -0.3281  0.0245
  138MOL    O1944133   1.185   0.511   0.891 -0.1392 -0.2432 -0.4351
  138MOL    C2044134   1.046   0.518   0.927  0.7170 -0.3120 -0.2898
  138MOL    C2144135   1.039   0.580   1.067  0.0543 -0.7315 -0.4701
  138MOL    C2244136   0.892   0.574   1.119 -0.7898 -0.1602 -0.3095
  138MOL    C2344137   1.142   0.500   0.647  0.4099 -0.2745 -0.5326
  138MOL    H2444138   1.179   0.333   0.792  2.0293 -0.4965  2.2429
  138MOL    H2544139   0.996   0.582   0.855 -0.9420  0.0027  1.0868
  138MOL    H2644140   1.007   0.416   0.922 -1.4466  0.6255 -3.7358
  138MOL    H2744141   1.083   0.679   1.073  2.9667 -1.9624 -0.7797
  138MOL    H2844142   1.104   0.521   1.131 -0.8137 -0.2490  0.8962
  138MOL    H2944143   0.883   0.614   1.220 -2.5720 -2.3931  0.4665
  138MOL    H3044144   0.850   0.474   1.121 -3.4310  0.8790 -1.2588
  138MOL    H3144145   0.834   0.636   1.050 -0.7433 -0.8546 -0.9758
  138MOL    H3244146   1.034   0.492   0.655  0.4035 -0.9670 -1.1863
  138MOL    H3344147   1.184   0.601   0.653 -0.1635 -0.1669  2.4390
  138MOL    C3444148   1.179   0.432   0.516 -0.4488 -0.0061  0.2476
  138MOL    O3544149   1.120   0.298   0.519 -0.1780  0.8276  0.0763
  138MOL    C3644150   1.223   0.198   0.495 -0.1018  0.1485 -0.3739
  138MOL    C3744151   1.170   0.058   0.526 -0.1612  0.1570  0.0104
  138MOL    C3844152   1.231   7.762   0.447 -0.1118 -0.2389 -0.1805
  138MOL    C3944153   1.097   0.497   0.410  0.5814 -0.3530  0.3179
  138MOL    H4044154   1.284   0.432   0.488 -0.8015  0.9309 -1.1150
  138MOL    H4144155   1.238   0.203   0.387 -2.4037  1.0686 -0.6651
  138MOL    H4244156   1.317   0.208   0.549  0.3660 -1.4511 -0.8592
  138MOL    H4344157   1.063   0.063   0.504 -0.3918 -0.0482  1.0627
  138MOL    H4444158   1.197   0.040   0.631  2.6010  0.7207 -0.5539
  138MOL    H4544159   1.323   7.734   0.497  1.3327  0.7795 -2.2311
  138MOL    H4644160   1.245   7.785   0.341 -1.1909  0.4261 -0.1874
  138MOL    H4744161   1.155   7.684   0.451  0.2400 -0.6489 -1.1733
  138MOL    H4844162   1.093   0.430   0.324 -1.7265  0.6227 -0.3811
  138MOL    H4944163   0.992   0.510   0.437  0.3000  1.8652 -1.6239
  138MOL    C5044164   1.142   0.637   0.359 -0.5578  0.4509 -0.2083
  138MOL    O5144165   1.255   0.606   0.273 -0.4156 -0.3454 -0.0168
  138MOL    C5244166   1.340   0.711   0.241  0.8138  0.9355 -0.3864
  138MOL    C5344167   1.481   0.663   0.286  0.4124  0.3245  0.3034
  138MOL    C5444168   1.525   0.684   0.435 -0.1041 -0.3674 -0.5800
  138MOL    C5544169   1.034   0.699   0.266  0.4051 -0.0094 -0.2681
  138MOL    H5644170   1.172   0.704   0.440  1.2040 -0.6165  0.0613
  138MOL    H5744171   1.358   0.731   0.136  0.0948 -0.3397 -0.7612
  138MOL    H5844172   1.311   0.804   0.290  0.2924  0.3314  0.4689
  138MOL    H5944173   1.543   0.733   0.229 -0.5078 -1.9528 -3.7145
  138MOL    H6044174   1.505   0.566   0.243 -1.1429 -0.3903  1.0193
  138MOL    H6144175   1.459   0.643   0.511  0.0582  1.7077  0.7186
  138MOL    H6244176   1.535   0.790   0.459  1.4716 -0.3623 -1.1773
  138MOL    H6344177   1.621   0.634   0.447  0.5739  0.8314 -0.8346
  138MOL    H6444178   1.080   0.782   0.213  2.3781  0.7451  2.4768
  138MOL    H6544179   1.007   0.623   0.193 -3.4926  0.0365  1.0232
  138MOL    C6644180   0.903   0.743   0.336 -0.4174  0.5215  0.2905
  138MOL    O6744181   0.931   0.798   0.458  0.8957 -0.5208 -0.4548
  138MOL    C6844182   0.844   0.756   0.564  0.2388  0.2337  0.4684
  138MOL    C6944183   0.874   0.835   0.685  0.1669  0.2893  0.2411
  138MOL    C7044184   0.855   0.985   0.671 -0.8714 -0.6225  0.1866
  138MOL    C7144185   0.823   0.833   0.249  0.1444  0.0335  0.0365
  138MOL    H7244186   0.843   0.652   0.337  0.7814 -0.2900 -0.4212
  138MOL    H7344187   0.740   0.772   0.534  0.7657  0.6184 -1.2072
  138MOL    H7444188   0.850   0.654   0.601  2.6703  0.2649  0.1875
  138MOL    H7544189   0.974   0.812   0.722  0.9860  0.1071 -2.0410
  138MOL    H7644190   0.799   0.805   0.759 -0.4182 -0.9561 -0.8343
  138MOL    H7744191   0.937   1.034   0.723 -0.8825 -0.4278  0.0232
  138MOL    H7844192   0.760   1.015   0.715  1.1545  2.1070  2.9112
  138MOL    H7944193   0.861   1.035   0.574 -1.3998  1.0973  1.0122
  138MOL    H8044194   0.754   0.886   0.314  1.0121  2.6024 -1.0521
  138MOL    H8144195   0.871   0.925   0.213 -1.7152  2.3324  3.2107
  138MOL    C8244196   0.741   0.766   0.137  0.5505 -0.6516  0.3117
  138MOL    O8344197   0.834   0.704   0.057  0.0808  0.1829  0.0663
  138MOL    C8444198   0.807   0.711   7.745  0.4208 -0.6551  0.4336
  138MOL    C8544199   0.888   0.608   7.673  0.3213  0.2830  0.2768
  138MOL    C8644200   1.041   0.623   7.676  0.5036  0.4679 -0.3588
  138MOL    C8744201   0.622   0.677   0.187 -0.4061  0.4901 -0.3307
  138MOL    H8844202   0.693   0.847   0.082  0.4817 -0.1742  1.0657
  138MOL    H8944203   0.702   0.685   7.730  0.0345 -0.3898  2.4245
  138MOL    H9044204   0.828   0.806   7.695 -1.3324 -0.5292 -0.1140
  138MOL    H9144205   0.843   0.600   7.575 -0.1359  1.9613  0.3486
  138MOL    H9244206   0.874   0.507   7.713 -0.8711 -2.0487 -5.5835
  138MOL    H9344207   1.081   0.540   7.617  1.5386  0.5006  0.2878
  138MOL    H9444208   1.073   0.621   7.780 -0.4652 -0.1252 -0.0624
  138MOL    H9544209   1.074   0.717   7.632  1.7655  0.9933  1.6590
  138MOL    H9644210   0.591   0.646   0.087  0.4892 -0.4532 -0.3287
  138MOL    H9744211   0.656   0.584   0.233  1.8481  1.1906 -0.5078
  138MOL    C9844212   0.502   0.749   0.259 -0.3763 -0.6267 -0.0898
  138MOL    O9944213   0.484   0.874   0.183 -0.2756  0.2118  0.6478
  138MOL   C10044214   0.424   0.977   0.255 -0.4040 -0.3030 -0.9269
  138MOL   C10144215   0.464   1.099   0.180  0.1008  0.2005  0.3661
  138MOL   C10244216   0.619   1.121   0.174 -0.5403 -1.0747  0.3960
  138MOL   C10344217   0.372   0.660   0.245  0.0602 -0.4842  0.3671
  138MOL   H10444218   0.526   0.772   0.363 -1.0621  0.4230 -0.1538
  138MOL   H10544219   0.317   0.955   0.252 -0.2176 -1.5337  0.5485
  138MOL   H10644220   0.460   0.982   0.358  0.2396  0.0725 -1.1637
  138MOL   H10744221   0.409   1.176   0.234 -0.1704 -0.4809  1.0617
  138MOL   H10844222   0.417   1.104   0.081 -0.6999 -0.9339  0.6804
  138MOL   H10944223   0.639   1.224   0.145 -0.1343 -0.1124  3.8473
  138MOL   H11044224   0.664   1.064   0.094  0.3998  2.0419 -1.3661
  138MOL   H11144225   0.672   1.089   0.264  0.5379 -2.1343 -0.6052
  138MOL   H11244226   0.294   0.735   0.259 -0.4509 -0.9688  0.1242
  138MOL   H11344227   0.360   0.638   0.139 -0.2691 -0.7114  0.4487
  138MOL   C11444228   0.375   0.545   0.340 -0.2070  0.1447  0.3659
  138MOL   O11544229   0.351   0.595   0.474 -0.3472 -0.3678  0.1225
  138MOL   C11644230   0.415   0.525   0.577 -0.1097  0.1276 -0.1374
  138MOL   C11744231   0.392   0.604   0.708 -0.8889  0.5177 -0.3868
  138MOL   C11844232   0.458   0.745   0.714 -0.6948 -0.6421  0.2688
  138MOL   C11944233   0.259   0.449   0.286 -0.9531  0.1630 -0.7031
  138MOL   H12044234   0.476   0.504   0.342  0.8154  2.5668 -0.2620
  138MOL   H12144235   0.372   0.427   0.598  2.7864 -1.1931 -0.1866
  138MOL   H12244236   0.517   0.500   0.552  0.0889  0.0773  0.7203
  138MOL   H12344237   0.404   0.542   0.797 -0.9279 -0.1030 -0.8091
  138MOL   H12444238   0.285   0.623   0.710 -1.5947 -3.0971 -0.4236
  138MOL   H12544239   0.422   0.805   0.797  0.7211  0.4055  0.1423
  138MOL   H12644240   0.449   0.793   0.616 -0.0722  1.6895  1.3155
  138MOL   H12744241   0.564   0.726   0.726 -0.7844 -1.3581 -0.0691
  138MOL   H12844242   0.170   0.507   0.305  1.4232  3.3934  0.9355
  138MOL   H12944243   0.257   0.440   0.177  1.2271  0.3442 -0.7876
  138MOL   C13044244   0.239   0.302   0.335 -0.8886  0.2362 -0.1102
  138MOL   O13144245   0.147   0.229   0.248  0.6195  0.3818 -0.1356
  138MOL   C13244246   0.069   0.140   0.320  0.2824  0.2022 -0.3804
  138MOL   C13344247   7.792   0.074   0.228 -0.1532 -0.2761 -1.1298
  138MOL   C13444248   0.017   7.818   0.112 -0.1364 -0.5376 -0.0562
  138MOL   C13544249   0.376   0.223   0.336  0.1700  0.3559 -0.6240
  138MOL   H13644250   0.201   0.309   0.437 -0.6466 -0.3622  0.0248
  138MOL   H13744251   0.131   0.061   0.362 -0.2606 -0.7028 -1.2844
  138MOL   H13844252   0.006   0.181   0.399  0.6807 -0.2292  0.1713
  138MOL   H13944253   7.715   0.144   0.197 -1.2436 -1.5014 -1.2602
  138MOL   H14044254   7.739   0.004   0.293 -0.8638  0.4058 -0.9753
  138MOL   H14144255   0.067   0.055   0.041 -3.1443  2.6494  0.5938
  138MOL   H14244256   7.771   7.757   0.059  0.3248 -1.7848  0.6939
  138MOL   H14344257   0.095   7.752   0.149  0.2260 -0.5957 -0.9168
  138MOL   H14444258   0.430   0.254   0.425 -1.4947  0.3263  0.4186
  138MOL   H14544259   0.351   0.119   0.352 -0.4334  0.3514 -1.5637
  138MOL   C14644260   0.463   0.229   0.216  0.4893  0.6066  0.1926
  138MOL   O14744261   0.577   0.160   0.261 -0.3076  0.0478  0.3093
  138MOL   C14844262   0.688   0.243   0.280 -1.2844  0.0806  0.0034
  138MOL   C14944263   0.808   0.159   0.338  0.3315  0.2873 -0.0091
  138MOL   C15044264   0.848   0.035   0.262 -0.0698  0.1289 -0.0597
  138MOL   C15144265   0.409   0.153   0.095  0.6582  0.8270 -0.4256
  138MOL   H15244266   0.475   0.334   0.188 -1.0246  0.8255  0.3371
  138MOL   H15344267   0.715   0.291   0.186 -1.0518 -2.9262 -1.5223
  138MOL   H15444268   0.673   0.317   0.359  0.9162 -2.1822  2.6609
  138MOL   H15544269   0.785   0.139   0.443 -0.4087  1.5228  0.0780
  138MOL   H15644270   0.898   0.220   0.340 -0.0015  0.7639  1.1359
  138MOL   H15744271   0.771   7.786   0.273 -0.0113 -0.0280 -0.7535
  138MOL   H15844272   0.947   0.010   0.301  0.4405  0.7206 -0.9739
  138MOL   H15944273   0.842   0.055   0.155  1.0705 -1.3009 -0.4049
  138MOL   H16044274   0.385   0.061   0.148  0.7004  1.0847  0.0484
  138MOL   H16144275   0.310   0.189   0.066  0.2958 -0.8325 -1.2618
  138MOL   C16244276   0.509   0.138   7.807  0.4159 -0.1475 -0.1853
  138MOL   O16344277   0.458   0.022   7.750  0.1721 -0.3185  0.2242
  138MOL   C16444278   0.547   7.766   7.678 -0.8700  0.4462  0.6631
  138MOL   C16544279   0.494   7.623   7.664 -1.1117 -0.0866 -0.6536
  138MOL   C16644280   0.347   7.618   7.607 -0.3046  0.0294  0.5686
  138MOL   C16744281   0.521   0.258   7.715  0.9158 -0.2287 -1.1312
  138MOL   H16844282   0.610   0.119   0.015  0.2703  1.5031  1.1636
  138MOL   H16944283   0.561   7.811   7.580  0.5765  0.7146  0.9866
  138MOL   H17044284   0.643   7.774   7.730 -0.7149 -1.1484  0.6300
  138MOL   H17144285   0.488   7.570   7.759  1.1435  1.2295  0.2554
  138MOL   H17244286   0.570   7.575   7.602  1.2008  1.8812  0.5473
  138MOL   H17344287   0.270   7.660   7.671 -0.5779 -2.3266  1.8274
  138MOL   H17444288   0.318   7.519   7.571 -1.0217  1.0925 -1.8901
  138MOL   H17544289   0.351   7.681   7.518  2.0037 -0.0653  0.5690
  138MOL   H17644290   0.570   0.337   7.772 -0.6110 -0.2564  0.2939
  138MOL   H17744291   0.587   0.227   7.634 -0.7134 -1.8739 -1.8683
  138MOL   C17844292   0.393   0.314   7.660  0.0738  0.3577  0.0390
  138MOL   O17944293   0.419   0.432   7.585  0.4693  0.1231  0.6033
  138MOL   C18044294   0.414   0.557   7.657  0.1097  0.5868  0.1304
  138MOL   C18144295   0.421   0.664   7.547  0.0897  0.1835  0.6307
  138MOL   C18244296   0.432   0.807   7.612 -0.0282  0.0998 -0.4525
  138MOL   C18344297   0.310   0.219   7.576 -0.2358 -0.4287  0.1415
  138MOL   H18444298   0.333   0.339   7.747 -1.6456  1.3223 -1.3909
  138MOL   H18544299   0.333   0.563   7.729  1.3610 -1.2461  1.7249
  138MOL   H18644300   0.502   0.573   7.719  0.4042  0.2284 -0.1865
  138MOL   H18744301   0.333   0.648   7.485  0.2829 -1.1907  0.6961
  138MOL   H18844302   0.507   0.647   7.482 -0.4869  0.3748 -0.1851
  138MOL   H18944303   0.366   0.829   7.696 -0.2175 -0.5179 -0.4356
  138MOL   H19044304   0.428   0.883   7.533 -1.2897  0.4897 -0.0262
  138MOL   H19144305   0.532   0.831   7.648  0.0979  1.1052 -1.4383
  138MOL   H19244306   0.364   0.191   7.485 -0.1810  1.3872 -0.3971
  138MOL   H19344307   0.285   0.125   7.626  0.0432 -1.1145 -0.9761
  138MOL   C19444308   0.167   0.270   7.532 -0.1333 -0.2541 -0.9575
  138MOL   O19544309   0.088   0.151   7.514 -0.6489 -0.5492 -0.2510
  138MOL   C19644310   0.112   0.073   7.393 -0.1954 -0.4571 -0.7934
  138MOL   C19744311   0.007   7.794   7.387  0.1752 -0.0833  0.4076
  138MOL   C19844312   0.030   7.702   7.268  0.6669  0.1069  0.5555
  138MOL   C19944313   0.084   0.348   7.639  0.1390  0.2083 -0.0861
  138MOL   H20044314   0.171   0.332   7.442 -0.6391 -0.9955 -1.4966
  138MOL   H20144315   0.129   0.123   7.298 -1.2912 -1.4549 -1.5350
  138MOL   H20244316   0.200   0.014   7.416 -1.0638 -1.1512  0.8313
  138MOL   H20344317   7.732   0.004   7.377 -0.7323 -2.2595  1.2885
  138MOL   H20444318   7.825   7.742   7.482  1.7118 -1.4144 -0.1577
  138MOL   H20544319   7.791   7.616   7.272  0.4569  0.2673  0.5434
  138MOL   H20644320   0.131   7.672   7.239  0.0295  1.1321 -2.9054
  138MOL   H20744321   7.824   7.752   7.177 -1.0268 -0.6479  0.7516
  138MOL   H20844322   0.082   0.286   7.728  0.6972 -0.7920 -0.7681
  138MOL   H20944323   0.137   0.442   7.657 -0.8302  0.5890  0.8534
  138MOL   C21044324   7.768   0.388   7.597 -0.3623  0.4228 -0.0816
  138MOL   O21144325   7.734   0.479   7.700  0.3482  0.0567 -0.1056
  138MOL   C21244326   7.675   0.421   7.816  0.0891 -0.2966  0.2625
  138MOL   C21344327   7.626   0.521   0.093  0.0527 -0.0538  0.0282
  138MOL   C21444328   7.712   0.526   0.226 -0.4276 -0.8301  0.7220
  138MOL   C21544329   7.757   0.440   7.452  0.2723  1.4620  0.4124
  138MOL   H21644330   7.704   0.300   7.602  1.3368 -0.9908 -2.1241
  138MOL   H21744331   7.588   0.364   7.783  0.2459 -0.0687 -0.5735
  138MOL   H21844332   7.742   0.350   0.036  0.6307  1.8624  2.8546
  138MOL   H21944333   7.529   0.484   0.127 -0.2869  0.8269  0.0232
  138MOL   H22044334   7.617   0.621   0.050  0.7478 -0.0844 -0.1936
  138MOL   H22144335   7.737   0.428   0.265  2.9567 -0.7740 -1.0814
  138MOL   H22244336   7.651   0.572   0.303 -0.7999 -1.7000  0.9475
  138MOL   H22344337   7.806   0.580   0.209 -0.4214 -1.1640 -0.3615
  138MOL   H22444338   0.004   0.518   7.443  0.6175  1.0044 -0.7239
  138MOL   H22544339   7.766   0.366   7.373 -0.0414  1.5060  0.3346
  138MOL   C22644340   7.624   0.513   7.416 -0.1253 -0.1654 -0.4448
  138MOL   O22744341   7.631   0.572   7.282 -0.0018 -0.2267  0.2505
  138MOL   C22844342   7.603   0.709   7.277 -0.3796  0.2401  0.3396
  138MOL   C22944343   7.605   0.749   7.125  0.0836  0.3079 -0.4997
  138MOL   C23044344   7.484   0.704   7.049  0.1037  0.2814 -1.3670
  138MOL   C23144345   7.504   0.416   7.413 -0.1767 -0.2342 -0.8626
  138MOL   H23244346   7.612   0.590   7.493  1.6386  0.1029 -0.4167
  138MOL   H23344347   7.502   0.730   7.312  0.1304 -0.3765  2.2462
  138MOL   H23444348   7.674   0.771   7.332  1.2599 -0.6432 -0.7482
  138MOL   H23544349   7.695   0.709   7.078 -0.2967 -0.6231 -0.4421
  138MOL   H23644350   7.604   0.858   7.130 -1.8563  0.2556  1.3558
  138MOL   H23744351   7.485   0.596   7.062 -0.9797  0.4121 -0.1596
  138MOL   H23844352   7.501   0.723   6.943  1.4252 -0.2314 -1.2624
  138MOL   H23944353   7.406   0.759   7.102  0.4930 -1.2386  0.8550
  138MOL   H24044354   7.525   0.331   7.348  1.0606  0.7420 -1.7758
  138MOL   H24144355   7.501   0.365   7.509  1.9081 -0.1547 -0.7387
  138MOL   C24244356   7.369   0.489   7.395 -0.2231  0.1009 -0.2687
  138MOL   O24344357   7.273   0.386   7.373  0.6298 -0.4925 -0.0497
  138MOL   C24444358   7.214   0.387   7.243  0.0000  0.8404 -0.3388
  138MOL   C24544359   7.120   0.265   7.236  0.1526  0.0044 -0.2003
  138MOL   C24644360   7.014   0.236   7.337  0.5689  0.3926 -0.7686
  138MOL   C24744361   7.323   0.560   7.527 -0.4125 -0.4647  0.1235
  138MOL   H24844362   7.361   0.561   7.313 -2.4205  0.6913  0.4101
  138MOL   H24944363   7.144   0.470   7.227 -2.0505 -0.7717  0.0176
  138MOL   H25044364   7.280   0.397   7.157  0.7506  2.5236  0.3941
  138MOL   H25144365   7.195   0.186   7.232  1.0304  0.8134 -0.0688
  138MOL   H25244366   7.076   0.269   7.136  1.2719  3.8246 -0.6251
  138MOL   H25344367   6.939   0.315   7.349  1.1262  0.5960  1.5431
  138MOL   H25444368   7.054   0.227   7.437 -1.0102  0.9996 -0.0685
  138MOL   H25544369   6.958   0.145   7.313  2.4670 -0.7315 -1.0101
  138MOL   H25644370   7.313   0.493   7.612 -0.9230 -2.3341 -1.3764
  138MOL   H25744371   7.401   0.628   7.561  0.4790  0.2093 -3.0827
  138MOL   C25844372   7.195   0.647   7.511 -0.1179 -0.1901 -0.4108
  138MOL   O25944373   7.160   0.703   7.635  0.3571 -0.0411  0.6395
  138MOL   C26044374   7.090   0.614   7.720 -0.5812  0.8049  0.5987
  138MOL   C26144375   7.122   0.631   0.047 -0.0408 -0.3569  0.3618
  138MOL   C26244376   7.269   0.613   0.075  0.1178 -0.9830  0.2191
  138MOL   C26344377   7.210   0.771   7.415  0.9663  0.1557  0.1485
  138MOL   H26444378   7.115   0.584   7.470 -0.5497  0.6241 -0.8458
  138MOL   H26544379   6.989   0.650   7.697 -1.1397 -1.6579 -0.9285
  138MOL   H26644380   7.086   0.508   7.698  2.1796  0.5235  1.2364
  138MOL   H26744381   7.066   0.566   0.114 -0.1323  1.2890  1.9057
  138MOL   H26844382   7.105   0.734   0.076  0.7427  0.2020 -1.0729
  138MOL   H26944383   7.320   0.631   7.809 -0.6304  0.5789  0.1073
  138MOL   H27044384   7.303   0.515   0.110  1.0815 -1.5944 -2.2996
  138MOL   H27144385   7.304   0.681   0.152  0.9514 -0.0236 -0.9919
  138MOL   H27244386   7.297   0.824   7.454  0.0358  0.8045  1.3673
  138MOL   H27344387   7.233   0.738   7.313 -3.2893 -0.8133 -0.5756
  138MOL   C27444388   7.086   0.863   7.404 -0.7501 -0.3382  0.1439
  138MOL   O27544389   7.114   0.963   7.309 -0.1875 -0.4094 -0.2911
  138MOL   C27644390   7.107   1.097   7.361  0.0398  0.3038 -0.6581
  138MOL   C27744391   7.100   1.186   7.241 -0.4363  0.5191  0.2529
  138MOL   C27844392   7.095   1.334   7.274  0.6826  0.1730  0.0491
  138MOL   C27944393   6.956   0.795   7.377  0.1818 -0.4356  0.5489
  138MOL   H28044394   7.069   0.900   7.505 -2.9581  0.0083 -0.3200
  138MOL   H28144395   7.023   1.112   7.429 -0.6344  1.4372 -1.7186
  138MOL   H28244396   7.201   1.107   7.416  0.0136  0.8451 -0.7114
  138MOL   H28344397   7.017   1.142   7.184  1.2172 -2.9269  0.4058
  138MOL   H28444398   7.187   1.171   7.177  1.0361 -0.6881  2.4831
  138MOL   H28544399   6.994   1.349   7.313 -0.3469 -2.7000 -1.3409
  138MOL   H28644400   7.114   1.397   7.186  0.5628 -1.0531 -0.8718
  138MOL   H28744401   7.180   1.358   7.338  0.4241 -1.2578  0.9478
  138MOL   H28844402   6.965   0.750   7.278 -1.8208 -0.3235  0.2778
  138MOL   H28944403   6.943   0.706   7.438 -2.0261  0.1677  1.0332
  138MOL   C29044404   6.822   0.877   7.389 -0.5631  0.6217  0.2901
  138MOL   O29144405   6.752   0.858   7.269  0.2312 -0.1731 -0.9598
  138MOL   C29244406   6.759   0.963   7.170 -0.7018 -0.2693  0.5504
  138MOL   C29344407   6.658   0.933   7.067 -0.6174  0.1990  0.1415
  138MOL   C29444408   6.520   0.973   7.108 -0.3288 -0.5759  0.4164
  138MOL   C29544409   6.722   0.821   7.488 -0.0218  0.0383  0.0517
  138MOL   H29644410   6.835   0.979   7.426 -1.5946  1.5101 -1.7381
  138MOL   H29744411   6.740   1.057   7.221  0.8854 -0.7091  2.0215
  138MOL   H29844412   6.862   0.958   7.134 -1.7114  0.5134 -2.5574
  138MOL   H29944413   6.664   0.828   7.039  1.0202  0.7516 -1.6938
  138MOL   H30044414   6.698   0.989   6.982  0.0448  1.4979  1.2769
  138MOL   H30144415   6.451   0.961   7.024 -0.2776  0.4603  0.2237
  138MOL   H30244416   6.513   1.078   7.133  0.0613 -0.6024  0.6393
  138MOL   H30344417   6.478   0.915   7.190 -1.8991  1.1269  0.8445
  138MOL   H30444418   6.701   0.715   7.474  2.0945 -0.2330 -1.2931
  138MOL   H30544419   6.748   0.828   7.594  0.0465 -0.5930  0.0801
  138MOL   C30644420   6.588   0.891   7.488  0.2505  0.3210 -0.2048
  138MOL   O30744421   6.502   0.824   7.587  0.5162 -0.2224  0.2998
  138MOL   C30844422   6.360   0.825   7.564 -0.1788 -0.5532  0.2115
  138MOL   C30944423   6.309   0.700   7.626 -0.1611 -0.4477  0.0854
  138MOL   C31044424   6.353   0.566   7.570 -0.0990  0.0413 -0.1634
  138MOL   C31144425   6.571   1.041   7.512 -0.9306  0.1202 -0.7320
  138MOL   H31244426   6.551   0.882   7.386 -1.2037  0.5521  0.2799
  138MOL   H31344427   6.314   0.914   7.607 -0.1163 -0.4753  0.1207
  138MOL   H31444428   6.333   0.826   7.458  2.0351 -0.1284 -0.3723
  138MOL   H31544429   6.201   0.705   7.633 -0.2781 -1.0138 -1.1469
  138MOL   H31644430   6.351   0.703   7.726  0.9971 -0.0542 -0.4044
  138MOL   H31744431   6.329   0.491   7.646 -1.4798 -1.3361 -1.9037
  138MOL   H31844432   6.461   0.575   7.570 -0.1952  1.5721  2.2052
  138MOL   H31944433   6.327   0.535   7.469 -0.5610 -1.4997  0.4077
  138MOL   H32044434   6.466   1.067   7.503  0.0872  4.7892 -0.3434
  138MOL   H32144435   6.582   1.086   7.610 -0.4544 -1.0649 -0.2345
  138MOL   H32244436   6.640   1.094   7.445 -0.1732  0.2187  0.1227
  139MOL     C144437   0.300   5.438   4.910  0.8593 -1.0547  0.4534
  139MOL     O244438   0.382   5.337   4.958 -0.1964 -0.0067 -0.4035
  139MOL     C344439   0.297   5.234   5.009 -0.4325  0.6657 -0.3200
  139MOL     C444440   0.333   5.098   4.960  0.2034 -0.0484  0.3000
  139MOL     C544441   0.254   4.993   5.043  0.0213  0.3815  0.6624
  139MOL     C644442   0.380   5.574   4.894 -0.3346 -0.1217  0.0599
  139MOL     H744443   0.211   5.447   4.974  0.0430  0.2628 -0.8517
  139MOL     H844444   0.307   5.229   5.117  1.7735 -0.7986 -0.5575
  139MOL     H944445   0.194   5.245   4.975  0.3894  2.3160 -2.3840
  139MOL    H1044446   0.439   5.076   4.975 -0.2251 -0.9113  2.1686
  139MOL    H1144447   0.326   5.077   4.853 -0.8903  2.3862 -0.1303
  139MOL    H1244448   0.288   4.892   5.019 -2.0606 -0.5908  1.6871
  139MOL    H1344449   0.147   5.005   5.026 -0.0771 -0.4314  0.6988
  139MOL    H1444450   0.263   5.008   5.150  1.9082 -0.5388  0.6594
  139MOL    H1544451   0.432   5.603   4.985 -0.3471  1.3397 -0.3895
  139MOL    H1644452   0.458   5.566   4.818 -0.2000 -0.3061  0.2157
  139MOL    H1744453   0.265   5.411   4.811  0.2810  1.1652  0.0309
  139MOL    C1844454   0.296   5.697   4.855  0.2492  0.2425 -0.2369
  139MOL    O1944455   0.220   5.666   4.741  0.0600 -0.5120 -0.1852
  139MOL    C2044456   0.281   5.650   4.621 -0.2323  0.1273  0.8688
  139MOL    C2144457   0.165   5.645   4.516  0.5233 -0.7931 -0.6744
  139MOL    C2244458   0.082   5.776   4.519 -0.5295 -0.5049 -0.1307
  139MOL    C2344459   0.198   5.734   4.974  0.3634 -0.3921  0.3568
  139MOL    H2444460   0.367   5.774   4.827 -0.4258  0.6476 -0.8336
  139MOL    H2544461   0.356   5.726   4.597 -2.1000  1.7914  0.1078
  139MOL    H2644462   0.337   5.558   4.609  0.6684  0.7756  0.0069
  139MOL    H2744463   0.100   5.562   4.540 -0.2128  0.6166  2.4955
  139MOL    H2844464   0.212   5.624   4.420  0.4150 -0.9316 -0.6968
  139MOL    H2944465   0.001   5.760   4.449 -0.2379 -0.5556 -0.4554
  139MOL    H3044466   0.144   5.863   4.498  0.3493 -1.1325 -0.1827
  139MOL    H3144467   0.044   5.797   4.619  1.0413  1.7896  0.0298
  139MOL    H3244468   0.132   5.650   4.992 -1.1983  0.9110  0.8816
  139MOL    H3344469   0.264   5.738   5.061 -2.8229  0.3798  2.8516
  139MOL    C3444470   0.109   5.866   4.950  0.4789  0.3403 -0.3056
  139MOL    O3544471   7.808   5.838   5.004 -0.0606 -0.2172  0.4739
  139MOL    C3644472   7.706   5.787   4.913 -0.2604 -0.2171 -0.2538
  139MOL    C3744473   7.633   5.897   4.832  0.2214  0.0142 -0.5824
  139MOL    C3844474   7.545   5.854   4.719  0.0602 -0.1952  0.3386
  139MOL    C3944475   0.160   5.999   5.021  0.6536  0.0604 -0.3122
  139MOL    H4044476   0.101   5.888   4.844 -1.1158  1.2754 -0.0127
  139MOL    H4144477   7.755   5.719   4.843 -0.7687  0.4635 -1.2735
  139MOL    H4244478   7.631   5.724   4.961  1.2506 -1.9092 -0.0590
  139MOL    H4344479   7.695   5.978   4.795  0.3992  0.2561  0.2485
  139MOL    H4444480   7.562   5.941   4.902  0.6854 -0.1671  0.0087
  139MOL    H4544481   7.486   5.764   4.733 -0.0552 -0.0208  1.0228
  139MOL    H4644482   7.606   5.838   4.630 -1.1581  1.2775 -0.8000
  139MOL    H4744483   7.480   5.938   4.693  1.0214  0.7263  0.8730
  139MOL    H4844484   0.089   6.081   5.008  1.4376  0.8539  0.3245
  139MOL    H4944485   0.161   5.985   5.129 -1.1442  0.4409 -0.2431
  139MOL    C5044486   0.300   6.047   4.968 -0.0928 -0.2834  0.0945
  139MOL    O5144487   0.281   6.077   4.830  0.3525  0.1723 -0.6149
  139MOL    C5244488   0.393   6.041   4.742  0.8189  0.4327  0.4923
  139MOL    C5344489   0.410   6.156   4.647  0.6285 -0.0061 -0.2939
  139MOL    C5444490   0.447   6.285   4.722 -0.3139  0.0546  0.4163
  139MOL    C5544491   0.349   6.168   5.048  0.2297 -0.4061 -0.4350
  139MOL    H5644492   0.383   5.976   4.970  1.3542  1.4211  1.9645
  139MOL    H5744493   0.486   6.006   4.786 -0.1745 -2.0076  0.7600
  139MOL    H5844494   0.356   5.957   4.684  1.7496  0.7055 -0.5008
  139MOL    H5944495   0.317   6.170   4.591  1.3328  1.1842 -1.1849
  139MOL    H6044496   0.490   6.135   4.576 -0.2036 -1.7685 -0.7204
  139MOL    H6144497   0.365   6.302   4.792 -1.9955 -1.2324 -1.2106
  139MOL    H6244498   0.439   6.364   4.648  2.5498  1.9033  2.0058
  139MOL    H6344499   0.548   6.277   4.762 -0.4389 -0.1326  0.6954
  139MOL    H6444500   0.428   6.219   4.993 -0.0010  0.2884 -0.1309
  139MOL    H6544501   0.271   6.239   5.074  2.3709  1.0255  2.4171
  139MOL    C6644502   0.408   6.123   5.189  0.2596 -0.9456 -0.6457
  139MOL    O6744503   0.531   6.055   5.162 -0.1073 -0.1222  0.4580
  139MOL    C6844504   0.531   5.926   5.220 -0.0496 -0.0990  0.1603
  139MOL    C6944505   0.667   5.863   5.179  0.2888 -0.2831  0.8080
  139MOL    C7044506   0.669   5.823   5.033 -0.3370  0.4642  0.0132
  139MOL    C7144507   0.430   6.240   5.290 -0.2446  0.4293  0.1866
  139MOL    H7244508   0.334   6.054   5.230  0.6849 -0.6090  0.7318
  139MOL    H7344509   0.527   5.934   5.328 -0.9320 -0.5229  0.1663
  139MOL    H7444510   0.446   5.863   5.193 -0.0159 -0.4909  0.9579
  139MOL    H7544511   0.705   5.789   5.249  0.5150  0.1985  1.2042
  139MOL    H7644512   0.739   5.945   5.181 -0.1996  0.1335  1.9046
  139MOL    H7744513   0.678   5.912   4.972 -0.4517  0.0915 -0.5492
  139MOL    H7844514   0.587   5.752   5.017 -0.6347  0.5147  1.2250
  139MOL    H7944515   0.762   5.770   5.013  0.0029 -0.0809  2.7726
  139MOL    H8044516   0.501   6.310   5.246 -3.5994  2.5566 -2.0219
  139MOL    H8144517   0.342   6.304   5.294  1.2010  2.5588 -0.9797
  139MOL    C8244518   0.478   6.196   5.439  0.0671 -0.4910  0.2555
  139MOL    O8344519   0.623   6.207   5.435  0.0499  0.2236  0.5121
  139MOL    C8444520   0.692   6.153   5.552  0.1640 -0.4987  1.1534
  139MOL    C8544521   0.846   6.142   5.516  0.2279  0.5477  0.2820
  139MOL    C8644522   0.932   6.123   5.644  0.6326  0.3228 -0.4581
  139MOL    C8744523   0.412   6.286   5.552  0.1655  0.4662  0.0077
  139MOL    H8844524   0.440   6.099   5.471 -0.9317 -0.8486 -1.9320
  139MOL    H8944525   0.677   6.215   5.640  0.1831 -0.2689  0.9928
  139MOL    H9044526   0.650   6.053   5.565  1.6628 -1.4728 -1.1026
  139MOL    H9144527   0.876   6.232   5.462 -2.4625  2.4304  1.7880
  139MOL    H9244528   0.854   6.052   5.455  0.4361 -0.1200  1.2940
  139MOL    H9344529   0.908   6.023   5.679  0.9612  0.2886 -0.3244
  139MOL    H9444530   0.911   6.199   5.720  1.4508 -1.1662  1.2872
  139MOL    H9544531   1.038   6.133   5.622  1.0119 -1.9709  0.1920
  139MOL    H9644532   0.457   6.264   5.649 -0.4172 -1.8539 -0.1997
  139MOL    H9744533   0.447   6.388   5.540  0.7032 -0.0194 -2.9045
  139MOL    C9844534   0.254   6.286   5.556 -0.3481 -0.2678  0.0205
  139MOL    O9944535   0.208   6.160   5.498  0.0754 -0.1372  0.8140
  139MOL   C10044536   0.093   6.177   5.419 -0.4094 -0.3988 -0.3044
  139MOL   C10144537   0.024   6.044   5.401  0.0320 -0.2425  0.1101
  139MOL   C10244538   7.812   5.976   5.539  0.1815  0.9189  0.1787
  139MOL   C10344539   0.207   6.302   5.697  0.4051 -0.1875  0.0907
  139MOL   H10444540   0.228   6.368   5.489  0.4729 -0.8573 -1.0270
  139MOL   H10544541   0.030   6.257   5.459 -0.6447  0.0354 -1.5095
  139MOL   H10644542   0.127   6.218   5.324  1.5154  0.5874  0.7678
  139MOL   H10744543   0.092   5.977   5.349 -0.5389 -0.3096 -0.5613
  139MOL   H10844544   7.763   6.061   5.340 -0.3384  0.6907  0.9127
  139MOL   H10944545   7.742   6.029   5.602 -1.1748 -0.5826 -0.0366
  139MOL   H11044546   0.074   5.939   5.588  2.1835 -0.8012 -4.4456
  139MOL   H11144547   7.766   5.878   5.526  2.6124 -0.3245  0.5015
  139MOL   H11244548   0.099   6.287   5.705 -0.0217  1.8637 -1.3359
  139MOL   H11344549   0.260   6.224   5.751 -0.8029 -0.3559  1.0455
  139MOL   C11444550   0.238   6.438   5.756 -0.1174  0.5725  0.0142
  139MOL   O11544551   0.228   6.540   5.654  0.1475 -0.3381 -0.0465
  139MOL   C11644552   0.323   6.648   5.672  0.2387  0.2698  0.6706
  139MOL   C11744553   0.279   6.769   5.587 -0.3266  0.6326 -0.0145
  139MOL   C11844554   0.280   6.725   5.441  0.3312  0.2881  0.1088
  139MOL   C11944555   0.144   6.479   5.870  0.1770  0.1771  0.1251
  139MOL   H12044556   0.341   6.433   5.791 -0.3439  1.1029  0.7594
  139MOL   H12144557   0.318   6.668   5.779  1.2707 -2.1090  1.1772
  139MOL   H12244558   0.427   6.623   5.650 -0.1204 -0.7824  0.1586
  139MOL   H12344559   0.349   6.851   5.599  0.3658  0.0883 -0.2922
  139MOL   H12444560   0.184   6.816   5.611  0.0757  0.3463  2.2195
  139MOL   H12544561   0.219   6.640   5.414 -0.2881  0.7570  0.0304
  139MOL   H12644562   0.380   6.711   5.399  0.4301 -1.7706  0.9853
  139MOL   H12744563   0.222   6.797   5.383 -0.8847 -0.9722 -0.2471
  139MOL   H12844564   0.171   6.575   5.915 -1.8161  0.9807 -0.3476
  139MOL   H12944565   0.048   6.502   5.823  1.0176  0.5006 -1.4965
  139MOL   C13044566   0.125   6.380   5.986 -0.8244 -0.4704 -0.1205
  139MOL   O13144567   0.252   6.380   6.050 -0.0872  0.0600 -0.3740
  139MOL   C13244568   0.299   6.253   6.105  0.2077  0.3151  0.6222
  139MOL   C13344569   0.456   6.245   6.126  0.0079  0.1257 -0.2415
  139MOL   C13444570   0.505   6.351   6.227 -0.0687  0.1088 -0.2487
  139MOL   C13544571   0.015   6.436   6.089  0.0518 -0.1002 -0.6128
  139MOL   H13644572   0.103   6.280   5.947  2.0808 -1.3757  0.4309
  139MOL   H13744573   0.241   6.255   6.197  0.1857 -2.5836  0.6893
  139MOL   H13844574   0.263   6.166   6.050  1.0706  1.6948 -2.2336
  139MOL   H13944575   0.495   6.258   6.025 -0.1795 -0.9572 -0.4649
  139MOL   H14044576   0.472   6.147   6.171  2.9003  0.7129  0.1064
  139MOL   H14144577   0.614   6.346   6.229 -0.0138  1.0385 -0.9246
  139MOL   H14244578   0.475   6.323   6.329 -1.3916 -1.2182 -0.9808
  139MOL   H14344579   0.466   6.446   6.191 -2.0585 -0.2663  0.8099
  139MOL   H14444580   7.824   6.366   6.170  0.2490  0.6376  0.0762
  139MOL   H14544581   0.047   6.527   6.140 -0.9580 -0.2721  0.3571
  139MOL   C14644582   7.707   6.451   6.026  0.1959  0.4472 -0.5281
  139MOL   O14744583   7.677   6.327   5.960 -0.2168  0.4196 -0.1021
  139MOL   C14844584   7.565   6.326   5.870 -0.1009 -0.2073 -0.7182
  139MOL   C14944585   7.546   6.200   5.789 -0.2274  0.2523 -0.0723
  139MOL   C15044586   7.417   6.200   5.706 -0.6115  0.3981  0.0421
  139MOL   C15144587   7.591   6.477   6.127  0.0530 -0.9706 -0.2124
  139MOL   H15244588   7.701   6.527   5.947  1.6021 -1.6274 -2.6978
  139MOL   H15344589   7.469   6.359   5.907  0.3893 -0.0272  0.4178
  139MOL   H15444590   7.611   6.400   5.804  3.3512 -2.1117 -0.5959
  139MOL   H15544591   7.547   6.129   5.871  0.3657  0.6403  0.2642
  139MOL   H15644592   7.632   6.181   5.725 -0.3706 -2.0740  0.3694
  139MOL   H15744593   7.423   6.291   5.647 -0.7492  1.1063  1.1323
  139MOL   H15844594   7.323   6.195   5.761  1.2091  2.3941  3.5096
  139MOL   H15944595   7.416   6.120   5.631 -1.2792  0.7170 -0.2907
  139MOL   H16044596   7.493   6.464   6.081 -0.1741  1.1971 -0.3987
  139MOL   H16144597   7.588   6.403   6.207 -1.5280  0.0495  0.6933
  139MOL   C16244598   7.608   6.611   6.203 -0.1147 -0.6168 -0.3500
  139MOL   O16344599   7.614   6.726   6.116 -0.0800  0.2913 -0.3965
  139MOL   C16444600   7.707   6.825   6.155  0.3175  0.2743  0.9577
  139MOL   C16544601   7.690   6.942   6.051  0.0114 -0.1854 -0.0353
  139MOL   C16644602   7.679   6.891   5.909  0.5093  0.0061  0.5597
  139MOL   C16744603   7.486   6.629   6.300 -0.2497  0.5951  0.3167
  139MOL   H16844604   7.698   6.603   6.264 -0.4832 -0.1219  0.2770
  139MOL   H16944605   7.669   6.856   6.253  0.0318 -3.9833  2.3046
  139MOL   H17044606   7.811   6.793   6.163 -0.2146 -2.5294 -2.2903
  139MOL   H17144607   7.772   7.007   6.080  2.4577 -4.3316  3.0214
  139MOL   H17244608   7.592   6.982   6.073 -0.1377 -0.6651  0.1940
  139MOL   H17344609   7.765   6.828   5.883 -0.2031  0.4421 -2.9885
  139MOL   H17444610   7.696   6.969   5.835  0.2837  0.1160  0.6274
  139MOL   H17544611   7.585   6.841   5.886  0.7240 -0.7287  1.2271
  139MOL   H17644612   7.505   6.728   6.340  0.7579 -0.1364  1.7125
  139MOL   H17744613   7.388   6.631   6.252  0.4813 -0.4223 -1.2741
  139MOL   C17844614   7.474   6.523   6.413  0.7466  0.6718 -0.7229
  139MOL   O17944615   7.592   6.536   6.491  0.3704 -0.0306  0.6662
  139MOL   C18044616   7.642   6.413   6.540  0.6088  0.2386 -0.0754
  139MOL   C18144617   7.763   6.439   6.636  0.6675  0.4665  0.4181
  139MOL   C18244618   0.058   6.488   6.565  0.4145 -0.6917 -0.1566
  139MOL   C18344619   7.367   6.555   6.517  0.0939 -0.3094  0.5651
  139MOL   H18444620   7.473   6.420   6.377 -0.3640  0.9486 -1.4992
  139MOL   H18544621   7.568   6.364   6.604 -3.0389  0.2228 -4.1128
  139MOL   H18644622   7.669   6.339   6.465 -0.0590  2.5502 -2.6597
  139MOL   H18744623   7.785   6.349   6.694 -2.9630  0.1081  1.3191
  139MOL   H18844624   7.735   6.504   6.719  3.2123  0.3656  1.4206
  139MOL   H18944625   0.135   6.513   6.638 -0.1621  0.4492  0.0830
  139MOL   H19044626   0.028   6.583   6.519  2.3314 -0.5974 -1.2612
  139MOL   H19144627   0.091   6.426   6.482  0.5560 -1.4354  0.4565
  139MOL   H19244628   7.393   6.510   6.613 -0.9270  0.7957  1.3710
  139MOL   H19344629   7.370   6.664   6.527  1.7402 -0.3323  0.5750
  139MOL   C19444630   7.223   6.513   6.478 -0.8344  1.3102  0.1425
  139MOL   O19544631   7.228   6.371   6.452 -0.5214 -0.0358 -0.2645
  139MOL   C19644632   7.143   6.318   6.349  0.5106 -0.1402 -0.4345
  139MOL   C19744633   7.186   6.180   6.308  0.5874  0.2507 -0.1548
  139MOL   C19844634   7.302   6.169   6.211  0.4830 -0.0557 -0.6483
  139MOL   C19944635   7.125   6.531   6.596 -0.4914  0.3096  0.5253
  139MOL   H20044636   7.189   6.569   6.391 -0.5420  1.4736  0.1328
  139MOL   H20144637   7.040   6.305   6.381  1.3884 -0.8367  2.2478
  139MOL   H20244638   7.134   6.383   6.262 -1.4109 -1.5583 -1.3414
  139MOL   H20344639   7.104   6.124   6.263 -0.3213  0.3883  1.3117
  139MOL   H20444640   7.220   6.123   6.394  0.9790 -1.0001 -1.1038
  139MOL   H20544641   7.389   6.231   6.235  1.2661 -1.3553 -0.1140
  139MOL   H20644642   7.269   6.205   6.114 -0.2398  1.9450  0.3007
  139MOL   H20744643   7.346   6.070   6.201  0.8066 -0.4512  3.7218
  139MOL   H20844644   7.024   6.521   6.558  0.1965 -0.3847 -1.1716
  139MOL   H20944645   7.161   6.451   6.661 -0.2436  0.3400  0.4281
  139MOL   C21044646   7.133   6.670   6.663 -0.6615 -0.3342  0.2099
  139MOL   O21144647   7.110   6.770   6.559  0.3865  0.1181 -0.0014
  139MOL   C21244648   7.152   6.905   6.576 -0.4326 -0.1474 -0.3006
  139MOL   C21344649   7.201   6.965   6.449 -0.6720 -0.0441  1.0072
  139MOL   C21444650   7.320   6.889   6.377  0.6287  0.1478 -0.6171
  139MOL   C21544651   7.023   6.697   6.775 -0.4644 -0.7670  0.5572
  139MOL   H21644652   7.233   6.700   6.694 -0.6566  0.5061 -0.6008
  139MOL   H21744653   7.065   6.956   6.617  0.3842 -1.1522  2.8174
  139MOL   H21844654   7.229   6.902   6.653 -0.1276 -0.4077 -0.6143
  139MOL   H21944655   7.234   7.067   6.467  0.4423  0.1128 -1.7491
  139MOL   H22044656   7.109   6.962   6.391 -1.7613 -2.6912  2.7692
  139MOL   H22144657   7.393   6.873   6.457 -0.7071  2.1030  1.0466
  139MOL   H22244658   7.376   6.939   6.299  0.9483  0.1317 -0.3999
  139MOL   H22344659   7.280   6.794   6.341  1.0780 -1.6275  3.2787
  139MOL   H22444660   7.008   6.801   6.800 -0.9291 -0.3578 -1.3384
  139MOL   H22544661   6.927   6.668   6.733 -0.2184 -1.1587  0.2543
  139MOL   C22644662   7.049   6.612   6.902  0.4172 -0.8147 -0.3985
  139MOL   O22744663   7.052   6.482   6.866 -0.6723 -0.0154  0.1299
  139MOL   C22844664   6.921   6.415   6.877  0.1126  0.1732 -0.8548
  139MOL   C22944665   6.941   6.262   6.876  0.3705 -0.2772 -0.6675
  139MOL   C23044666   6.990   6.191   6.748 -0.5592  0.2502 -0.2940
  139MOL   C23144667   7.168   6.656   6.978 -0.2588  0.6209  0.2831
  139MOL   H23244668   6.967   6.631   6.971  0.7633 -0.1916 -0.1530
  139MOL   H23344669   6.858   6.448   6.960 -1.0613 -1.3096 -1.1286
  139MOL   H23444670   6.868   6.447   6.787  0.0022 -2.6746 -1.8656
  139MOL   H23544671   6.849   6.207   6.897  0.9792 -0.0653  2.8419
  139MOL   H23644672   7.013   6.244   6.956 -1.0817  0.3554  0.8100
  139MOL   H23744673   7.095   6.210   6.726 -0.2240 -0.2764  0.7764
  139MOL   H23844674   6.919   6.223   6.672 -1.0527 -0.4137 -0.1185
  139MOL   H23944675   6.988   6.082   6.756 -0.0571  0.3539  1.5325
  139MOL   H24044676   7.167   6.604   7.073  1.2867 -1.5428 -0.8521
  139MOL   H24144677   7.265   6.639   6.933  0.6814  0.3839  2.3475
  139MOL   C24244678   7.163   6.804   7.019  0.5256 -0.3117 -0.2743
  139MOL   O24344679   7.041   6.826   7.081  0.3575  0.1023 -0.3673
  139MOL   C24444680   6.996   6.958   7.100  0.2850 -0.6401  0.1217
  139MOL   C24544681   6.837   6.951   7.118  0.1587  0.1949  0.9633
  139MOL   C24644682   6.788   7.099   7.125  0.5636  0.0588 -0.0904
  139MOL   C24744683   7.268   6.830   7.129 -0.0564  0.6070  0.1579
  139MOL   H24844684   7.174   6.873   6.936 -1.3250 -0.1327 -0.3988
  139MOL   H24944685   7.049   7.018   7.175 -0.1271  1.9979 -1.6178
  139MOL   H25044686   7.028   7.009   7.009 -1.5853  0.1498 -0.1010
  139MOL   H25144687   6.812   6.883   7.200 -1.5755  0.7256  0.9100
  139MOL   H25244688   6.796   6.900   7.032  0.8475  2.2384 -0.6188
  139MOL   H25344689   6.826   7.137   7.220  2.5179  0.4370 -0.9967
  139MOL   H25444690   6.679   7.102   7.130  0.5441 -2.4622  1.5095
  139MOL   H25544691   6.828   7.169   7.051  2.5651  0.4010  1.2707
  139MOL   H25644692   7.266   6.936   7.155  2.5027  1.0810 -1.4205
  139MOL   H25744693   7.244   6.776   7.221 -2.1683  1.7916  0.3279
  139MOL   C25844694   7.412   6.808   7.085 -0.2538  0.4371 -0.3509
  139MOL   O25944695   7.439   6.882   6.968  0.4308 -0.2024 -0.4335
  139MOL   C26044696   7.546   6.843   6.892  0.2562 -0.4636  0.7559
  139MOL   C26144697   7.505   6.859   6.749  0.5431  0.3127  0.5962
  139MOL   C26244698   7.615   6.825   6.652  0.4329 -0.2389 -0.3916
  139MOL   C26344699   7.519   6.841   7.197 -0.2055 -0.5947  0.3887
  139MOL   H26444700   7.421   6.700   7.068  1.1298  0.3858  0.5587
  139MOL   H26544701   7.623   6.920   6.901  1.5770 -1.6773 -0.0665
  139MOL   H26644702   7.586   6.742   6.904  0.3343 -0.6546 -0.9769
  139MOL   H26744703   7.492   6.966   6.733  0.4265  0.5161  1.9790
  139MOL   H26844704   7.412   6.809   6.722  0.2795  0.8638  0.4792
  139MOL   H26944705   7.709   6.873   6.679  0.0900 -0.1451  0.6824
  139MOL   H27044706   7.574   6.848   6.554  0.4085 -0.0275 -0.3338
  139MOL   H27144707   7.641   6.721   6.668  2.5198 -0.1436 -2.8413
  139MOL   H27244708   7.624   6.839   7.169 -0.3011 -1.1205  0.0459
  139MOL   H27344709   7.510   6.947   7.220  5.2277  0.2619 -0.7443
  139MOL   C27444710   7.508   6.760   7.329 -0.0511  0.1062 -0.0615
  139MOL   O27544711   7.535   6.623   7.295 -0.0703 -0.3402  0.1429
  139MOL   C27644712   7.430   6.523   7.309 -0.1396 -0.3498 -0.4620
  139MOL   C27744713   7.495   6.390   7.269  0.2829  0.1845  0.2565
  139MOL   C27844714   7.384   6.289   7.291 -0.8633  0.0583 -0.3945
  139MOL   C27944715   7.614   6.806   7.432  0.1676  0.1474 -0.8594
  139MOL   H28044716   7.410   6.775   7.372  0.6482  1.5271  1.0849
  139MOL   H28144717   7.394   6.505   7.410  0.1114 -1.4781 -0.5690
  139MOL   H28244718   7.346   6.537   7.242  0.1434  0.8751 -0.5804
  139MOL   H28344719   7.587   6.364   7.321  0.1480  0.0052  0.4053
  139MOL   H28444720   7.535   6.383   7.168  0.6209  2.6162  0.2035
  139MOL   H28544721   7.311   6.306   7.212  0.3974 -0.1126 -1.6201
  139MOL   H28644722   7.326   6.298   7.383 -0.6145 -1.9957 -0.0019
  139MOL   H28744723   7.419   6.186   7.288  0.4526  0.4349  1.1711
  139MOL   H28844724   7.710   6.789   7.383  0.2733  0.7781 -0.8748
  139MOL   H28944725   7.608   6.914   7.443  1.9479  0.0211  1.8754
  139MOL   C29044726   7.601   6.748   7.575 -0.3596  0.3848 -0.3665
  139MOL   O29144727   7.472   6.790   7.606 -0.2699  0.0955 -1.0534
  139MOL   C29244728   7.458   6.822   7.744  0.5455 -0.5241  0.1430
  139MOL   C29344729   7.303   6.829   7.764 -0.0768  0.5409 -0.1516
  139MOL   C29444730   7.241   6.697   7.807 -0.0682  0.4689  0.9005
  139MOL   C29544731   7.642   6.600   7.592 -0.1487  0.4522 -0.0440
  139MOL   H29644732   7.669   6.798   7.643 -1.4823 -0.7992  1.6800
  139MOL   H29744733   7.494   6.735   7.799 -0.0173  0.8160  2.7698
  139MOL   H29844734   7.508   6.915   7.774 -2.7192  2.3138 -2.7947
  139MOL   H29944735   7.263   6.862   7.668  0.2847 -0.0319 -0.4998
  139MOL   H30044736   7.275   6.914   7.826  1.9294  0.9248  0.2716
  139MOL   H30144737   7.259   6.622   7.729  0.8396 -0.8930  2.3797
  139MOL   H30244738   7.135   6.719   7.823 -0.6344 -1.2406 -0.2998
  139MOL   H30344739   7.291   6.653   0.066 -1.4627 -1.5690  0.7364
  139MOL   H30444740   7.621   6.580   7.697  1.9827 -1.1518  0.1246
  139MOL   H30544741   7.586   6.522   7.542  0.2883 -0.2795  0.5997
  139MOL   C30644742   7.791   6.575   7.585  0.8691  0.0172 -0.3651
  139MOL   O30744743   0.034   6.651   7.680 -0.2380  0.5336  0.0580
  139MOL   C30844744   0.120   6.754   7.634 -0.1275 -0.7678  0.4518
  139MOL   C30944745   0.188   6.829   7.754 -1.1991 -0.1582 -0.4631
  139MOL   C31044746   0.094   6.859   0.042  0.1707  0.3207 -0.2648
  139MOL   C31144747   7.821   6.427   7.602 -0.3280  0.3316  0.5032
  139MOL   H31244748   0.002   6.601   7.487 -3.2499 -0.1962 -2.1572
  139MOL   H31344749   0.186   6.709   7.560 -0.0727 -1.4212  0.8899
  139MOL   H31444750   0.061   6.826   7.578 -0.4720 -0.8908  0.6494
  139MOL   H31544751   0.234   6.913   7.703  0.0775 -0.7760 -0.3350
  139MOL   H31644752   0.268   6.767   7.793  0.4422  0.0698 -3.3437
  139MOL   H31744753   0.152   6.920   0.112  1.4766 -0.6582 -0.4624
  139MOL   H31844754   0.059   6.772   0.097 -0.6069  0.8320  0.0475
  139MOL   H31944755   0.001   6.908   0.016  0.6791  1.3376 -0.1940
  139MOL   H32044756   0.006   6.363   7.514 -1.0596 -0.0010  0.6372
  139MOL   H32144757   0.092   6.422   7.648  1.1319  1.0242 -2.4297
  139MOL   H32244758   7.751   6.389   7.676  0.1433  0.8384  1.2212
  140MOL     C144759   5.152   6.607   7.426  0.3201  0.3913 -0.6562
  140MOL     O244760   5.239   6.541   7.517 -0.3154 -0.0828 -0.5363
  140MOL     C344761   5.374   6.556   7.482  0.2474  1.1196  0.3101
  140MOL     C444762   5.483   6.467   7.559  0.1409  0.0105 -0.0692
  140MOL     C544763   5.453   6.320   7.538  0.2910  0.1382 -0.2963
  140MOL     C644764   5.006   6.589   7.477 -0.0415  0.4761  0.7464
  140MOL     H744765   5.154   6.545   7.336  1.4663 -0.8351  0.1953
  140MOL     H844766   5.380   6.547   7.373 -0.3569 -1.3476  0.4688
  140MOL     H944767   5.406   6.659   7.500  1.0942  0.7072  1.1789
  140MOL    H1044768   5.490   6.472   7.668 -1.6506  0.4035  0.0583
  140MOL    H1144769   5.581   6.500   7.527 -0.6191  1.4285 -1.0230
  140MOL    H1244770   5.457   6.303   7.430  0.9125  0.2106 -0.2854
  140MOL    H1344771   5.352   6.301   7.573  0.6195 -0.7313  0.2011
  140MOL    H1444772   5.517   6.251   7.592 -0.8649 -0.9678 -0.3122
  140MOL    H1544773   4.991   6.482   7.489  1.3275 -0.4002 -4.0676
  140MOL    H1644774   4.996   6.640   7.573 -0.8251  0.5695  0.6172
  140MOL    H1744775   5.179   6.713   7.416  1.8238  0.3079  2.1240
  140MOL    C1844776   4.892   6.640   7.380 -0.0484  0.0538  0.5437
  140MOL    O1944777   4.888   6.578   7.251 -0.4671  0.3982  0.3800
  140MOL    C2044778   4.895   6.664   7.133  0.7019  0.6490 -0.4787
  140MOL    C2144779   4.922   6.594   7.000 -0.5360  0.3125 -0.5849
  140MOL    C2244780   5.054   6.518   7.002 -0.5700 -0.6470  0.1134
  140MOL    C2344781   4.751   6.631   7.444 -0.0740 -0.2439 -0.0457
  140MOL    H2444782   4.907   6.747   7.365  0.1532  0.0762  0.9001
  140MOL    H2544783   4.802   6.720   7.119 -0.2769 -0.8024  0.0595
  140MOL    H2644784   4.969   6.744   7.136  1.2122  0.1765 -0.4086
  140MOL    H2744785   4.914   6.669   6.922 -0.1539  0.4727 -0.4727
  140MOL    H2844786   4.841   6.523   6.987  0.3689 -0.8530 -0.0056
  140MOL    H2944787   5.048   6.427   7.062  2.0527 -1.9791 -1.5737
  140MOL    H3044788   5.123   6.590   7.047  0.3490 -0.2607 -1.8981
  140MOL    H3144789   5.085   6.499   6.900  1.7819  0.0595  0.6817
  140MOL    H3244790   4.669   6.630   7.373  0.0362  1.5957 -0.2219
  140MOL    H3344791   4.747   6.536   7.499 -0.1418 -0.7030 -0.8384
  140MOL    C3444792   4.716   6.742   7.540  0.2419  0.4362 -0.1306
  140MOL    O3544793   4.694   6.861   7.469 -0.4675 -0.5315  0.3234
  140MOL    C3644794   4.767   6.972   7.517 -0.1521  0.2716 -0.0422
  140MOL    C3744795   4.702   7.096   7.476 -0.4782 -0.4821  0.2944
  140MOL    C3844796   4.750   7.141   7.344  0.2477 -0.3880 -0.8016
  140MOL    C3944797   4.596   6.708   7.628  0.5153 -0.1873 -0.7227
  140MOL    H4044798   4.803   6.766   7.601  0.0366 -0.1657  0.3935
  140MOL    H4144799   4.753   6.987   7.624  0.3582 -1.5757  0.3004
  140MOL    H4244800   4.872   6.976   7.490 -0.5327  2.8740 -1.3000
  140MOL    H4344801   4.716   7.178   7.546  0.8719  0.7272 -1.3279
  140MOL    H4444802   4.595   7.092   7.458 -0.5172 -1.7506  0.7678
  140MOL    H4544803   4.732   7.245   7.318  0.1829  0.0477  0.9137
  140MOL    H4644804   4.721   7.076   7.262 -1.4474 -1.7378  0.8366
  140MOL    H4744805   4.859   7.152   7.343  0.3341 -0.8711  1.3771
  140MOL    H4844806   4.566   6.804   7.670 -2.0420 -0.2886 -2.2045
  140MOL    H4944807   4.511   6.663   7.576  0.0317  0.5980 -0.6140
  140MOL    C5044808   4.613   6.618   7.748  0.9219  0.2805 -0.6527
  140MOL    O5144809   4.711   6.677   0.008 -0.3599  0.5810  0.4129
  140MOL    C5244810   4.770   6.586   0.100 -1.0957 -0.1017 -0.6412
  140MOL    C5344811   4.885   6.653   0.169  0.3055  0.1868 -0.4041
  140MOL    C5444812   4.997   6.699   0.078 -0.3912  0.6965  0.5708
  140MOL    C5544813   4.491   6.565   0.003 -0.5089  0.2372  0.6277
  140MOL    H5644814   4.653   6.527   7.703  1.2705  0.4481 -0.6870
  140MOL    H5744815   4.699   6.549   0.174 -0.5475  0.8917  0.3969
  140MOL    H5844816   4.800   6.496   0.046  2.3132  0.1800  0.6985
  140MOL    H5944817   4.931   6.576   0.231 -2.9781  0.5359  2.5877
  140MOL    H6044818   4.852   6.730   0.238 -2.7011  1.0265 -2.6480
  140MOL    H6144819   5.021   6.622   0.004 -1.0211 -0.4301  1.5256
  140MOL    H6244820   5.090   6.726   0.129 -0.1940 -0.6261  0.9333
  140MOL    H6344821   4.975   6.791   0.025 -1.7628 -1.3301 -2.5713
  140MOL    H6444822   4.422   6.524   7.756  1.1742  0.2607 -0.9733
  140MOL    H6544823   4.513   6.479   0.067 -4.9744 -2.4575 -1.2012
  140MOL    C6644824   4.418   6.688   0.065  0.1803  0.7011  0.2823
  140MOL    O6744825   4.344   6.750   7.787  0.9329  0.0043  0.4786
  140MOL    C6844826   4.325   6.890   7.791  0.1248  0.7582 -0.2042
  140MOL    C6944827   4.245   6.939   7.677 -0.1721 -0.1921  0.6351
  140MOL    C7044828   4.292   6.893   7.538  0.2101 -0.1530 -0.1524
  140MOL    C7144829   4.311   6.640   0.155  0.3914  0.1772  0.2280
  140MOL    H7244830   4.494   6.745   0.117  1.4266 -0.1354 -0.5867
  140MOL    H7344831   4.278   6.918   0.057  1.9459  2.0454  0.3443
  140MOL    H7444832   4.426   6.932   7.797  0.8994 -0.9847 -0.7578
  140MOL    H7544833   4.246   7.048   7.679 -0.6403 -0.2027  1.8184
  140MOL    H7644834   4.143   6.916   7.704  0.1881 -2.1641  0.3707
  140MOL    H7744835   4.269   6.788   7.520  0.4452  0.1441 -2.3480
  140MOL    H7844836   4.397   6.916   7.521  0.5652 -1.8803 -0.3945
  140MOL    H7944837   4.235   6.952   7.465 -0.2015  0.0151  0.2998
  140MOL    H8044838   4.238   6.719   0.172 -1.0721 -0.2042 -3.5900
  140MOL    H8144839   4.252   6.553   0.124 -0.8398  1.0965 -0.0559
  140MOL    C8244840   4.356   6.616   0.299  0.2050 -0.0434  0.1378
  140MOL    O8344841   4.406   6.740   0.363 -0.4886  0.4053 -0.0960
  140MOL    C8444842   4.502   6.724   0.467  0.1080  0.1014 -0.5008
  140MOL    C8544843   4.533   6.859   0.537 -1.1443  0.0592 -0.1853
  140MOL    C8644844   4.410   6.911   0.617 -0.5420 -0.7621  0.3983
  140MOL    C8744845   4.261   6.525   0.383 -0.3777  0.7858  0.6381
  140MOL    H8844846   4.445   6.554   0.285 -0.4287 -0.4993 -2.0952
  140MOL    H8944847   4.468   6.661   0.549 -3.1299  1.2463 -0.8789
  140MOL    H9044848   4.595   6.687   0.423  1.0748  0.7519  0.9509
  140MOL    H9144849   4.580   6.931   0.470  0.9299  1.6816  2.8748
  140MOL    H9244850   4.607   6.835   0.613 -1.7613  0.6131  0.5989
  140MOL    H9344851   4.384   6.841   0.696 -1.1070 -0.0215  0.8883
  140MOL    H9444852   4.328   6.920   0.545 -1.1352 -1.2654  1.0081
  140MOL    H9544853   4.432   7.011   0.655 -0.2506 -0.1512 -1.3148
  140MOL    H9644854   4.268   6.428   0.335 -1.4256  0.1692  1.7075
  140MOL    H9744855   4.308   6.519   0.482  1.7875  2.1946 -0.2719
  140MOL    C9844856   4.110   6.571   0.380  0.0005 -0.0921 -0.4707
  140MOL    O9944857   4.037   6.470   0.443  0.1502 -0.0968  0.2641
  140MOL   C10044858   4.004   6.353   0.365 -0.0365  0.5243  0.3524
  140MOL   C10144859   3.879   6.375   0.287  0.1332 -0.2721 -0.4730
  140MOL   C10244860   3.823   6.234   0.241  0.0885 -0.6728 -1.0065
  140MOL   C10344861   4.077   6.700   0.462  0.3795 -0.5633  0.3279
  140MOL   H10444862   4.083   6.581   0.276 -0.0714 -0.2874 -0.4702
  140MOL   H10544863   4.085   6.312   0.305 -3.3867 -1.8432 -2.7244
  140MOL   H10644864   3.999   6.276   0.443  0.5118 -0.8813 -0.9699
  140MOL   H10744865   3.905   6.429   0.196  2.4577  1.4148  1.1218
  140MOL   H10844866   3.799   6.429   0.339  0.9553  3.1848 -2.6317
  140MOL   H10944867   3.787   6.197   0.337  0.2292  0.4515 -0.5079
  140MOL   H11044868   3.897   6.167   0.198  1.0841  0.0632 -0.4699
  140MOL   H11144869   3.736   6.252   0.178 -0.3414  1.0496  0.0167
  140MOL   H11244870   4.059   6.678   0.567 -1.2404 -0.3117  0.1202
  140MOL   H11344871   4.160   6.771   0.456  0.6652 -0.8218  1.2497
  140MOL   C11444872   3.957   6.778   0.418  0.3542  0.2601  0.2921
  140MOL   O11544873   3.967   6.894   0.498 -0.4466 -0.1276 -0.6775
  140MOL   C11644874   3.856   6.913   0.587 -0.0479  0.3128  0.4180
  140MOL   C11744875   3.891   7.008   0.699 -0.7355  0.2992  0.4435
  140MOL   C11844876   4.012   6.962   0.780  0.1410  0.0541 -0.3731
  140MOL   C11944877   3.966   6.827   0.275  0.2417  0.3547  1.2761
  140MOL   H12044878   3.867   6.717   0.429  0.7191 -0.2768  0.3741
  140MOL   H12144879   3.760   6.928   0.537 -0.0498 -3.2921 -0.8389
  140MOL   H12244880   3.834   6.819   0.637  0.5440 -0.8986 -1.5286
  140MOL   H12344881   3.810   7.005   0.772 -0.2908 -1.8055  0.8890
  140MOL   H12444882   3.913   7.107   0.658 -2.0037  0.4000  0.0066
  140MOL   H12544883   3.979   6.886   0.851  0.5745 -0.8112 -1.0937
  140MOL   H12644884   4.049   7.049   0.835 -1.6062  0.5734  0.0264
  140MOL   H12744885   4.096   6.937   0.716 -0.8273  3.3721 -3.1038
  140MOL   H12844886   4.042   6.904   0.261 -1.0069  1.5929  1.2350
  140MOL   H12944887   3.989   6.752   0.199  0.7415  0.6463  1.1365
  140MOL   C13044888   3.839   6.903   0.227  0.6331 -0.0524  0.1678
  140MOL   O13144889   3.721   6.842   0.276  0.5408 -0.0729  0.3856
  140MOL   C13244890   3.685   6.729   0.194  0.4051  1.3216  0.1722
  140MOL   C13344891   3.572   6.638   0.246 -0.1703  0.2985  0.4071
  140MOL   C13444892   3.550   6.522   0.147  0.0050  0.0700  0.1524
  140MOL   C13544893   3.848   7.054   0.281  0.0240  0.4112  0.0768
  140MOL   H13644894   3.836   6.900   0.118  2.3428 -0.3717  0.1187
  140MOL   H13744895   3.656   6.759   0.093 -1.9007  0.1337  0.4641
  140MOL   H13844896   3.774   6.666   0.194 -0.4653  0.0836  2.0908
  140MOL   H13944897   3.478   6.691   0.257 -0.3641  0.2146 -0.8450
  140MOL   H14044898   3.607   6.604   0.344 -1.7073  2.5524  1.7878
  140MOL   H14144899   3.639   6.458   0.151 -0.7984 -1.1966 -1.5331
  140MOL   H14244900   3.523   6.546   0.045  0.0736  0.3854  0.2075
  140MOL   H14344901   3.476   6.453   0.188  0.8123 -0.7288  0.3071
  140MOL   H14444902   3.808   7.059   0.383  1.5729  0.0615  0.7230
  140MOL   H14544903   3.954   7.077   0.285  0.4705 -1.4353 -0.8431
  140MOL   C14644904   3.760   7.146   0.183 -0.1109  0.1460  0.4384
  140MOL   O14744905   3.809   7.127   0.048  0.0276 -0.0248  0.8787
  140MOL   C14844906   3.800   7.234   7.779  0.1706 -0.1711 -0.4240
  140MOL   C14944907   3.843   7.178   7.650  0.0067  0.0317 -0.3628
  140MOL   C15044908   3.834   7.278   7.533 -0.3668  0.1587 -0.0377
  140MOL   C15144909   3.605   7.128   0.196 -0.8847  0.2178  0.0254
  140MOL   H15244910   3.788   7.246   0.215  0.2698  0.2089 -0.0851
  140MOL   H15344911   3.696   7.265   7.772 -0.0905 -0.8511  0.4156
  140MOL   H15444912   3.866   7.311   7.818  0.8718 -0.5247 -0.8897
  140MOL   H15544913   3.786   7.087   7.630 -0.1511 -0.4868  2.2616
  140MOL   H15644914   3.948   7.151   7.661  0.3474  0.6548 -1.9045
  140MOL   H15744915   3.726   7.286   7.519 -0.1716 -1.0186 -2.3398
  140MOL   H15844916   3.875   7.252   7.436 -0.7101  0.7278 -0.3417
  140MOL   H15944917   3.877   7.374   7.563  0.1585  0.2410 -1.0424
  140MOL   H16044918   3.560   7.206   0.135  1.2060 -0.7437 -2.8084
  140MOL   H16144919   3.583   7.036   0.142 -1.3109 -0.0548  0.6500
  140MOL   C16244920   3.546   7.124   0.340  0.7238 -0.6323 -0.7836
  140MOL   O16344921   3.559   7.251   0.410 -0.3068 -0.1635  0.1372
  140MOL   C16444922   3.662   7.259   0.504  0.6640 -0.6525  0.2282
  140MOL   C16544923   3.636   7.374   0.596 -0.1028 -0.5752 -0.4485
  140MOL   C16644924   3.620   7.501   0.512 -0.3431  0.5813 -0.5713
  140MOL   C16744925   3.388   7.098   0.330 -0.1284 -0.0018 -0.1576
  140MOL   H16844926   3.591   7.042   0.396  2.1767  0.4236 -0.3739
  140MOL   H16944927   3.661   7.162   0.554 -0.4066 -2.1398 -2.5823
  140MOL   H17044928   3.755   7.267   0.449  0.1722  1.5713 -0.3366
  140MOL   H17144929   3.729   7.385   0.652  0.3827 -0.9024 -1.1915
  140MOL   H17244930   3.550   7.350   0.658 -0.0446 -0.3719 -0.2902
  140MOL   H17344931   3.516   7.517   0.484 -0.8745 -2.0499 -0.2420
  140MOL   H17444932   3.675   7.498   0.418  0.5328  1.0759 -0.0801
  140MOL   H17544933   3.669   7.591   0.550  0.5312  0.5984 -1.7022
  140MOL   H17644934   3.358   7.192   0.285  0.6907 -0.2811 -1.3274
  140MOL   H17744935   3.350   7.023   0.260  1.8944 -0.6356 -0.6045
  140MOL   C17844936   3.321   7.080   0.465  0.0835  0.3077  0.2527
  140MOL   O17944937   3.178   7.091   0.453 -0.1182 -0.2876  0.2454
  140MOL   C18044938   3.139   7.225   0.457  0.5274  0.0024 -0.0514
  140MOL   C18144939   2.988   7.240   0.478 -0.2532  0.0673  0.0428
  140MOL   C18244940   2.944   7.222   0.624 -0.6670  0.2900  0.0923
  140MOL   C18344941   3.349   6.941   0.525 -0.2721 -0.2576 -0.3120
  140MOL   H18444942   3.351   7.155   0.537 -0.9177  0.8888  0.0770
  140MOL   H18544943   3.190   7.285   0.532  0.9699 -0.5964  0.1298
  140MOL   H18644944   3.173   7.260   0.359 -0.4185 -0.5819 -0.5978
  140MOL   H18744945   2.937   7.169   0.414  2.5829 -1.4877 -0.5901
  140MOL   H18844946   2.947   7.335   0.443  0.4214  0.2395 -0.2908
  140MOL   H18944947   2.972   7.308   0.685  1.5528  0.2378 -0.8301
  140MOL   H19044948   2.995   7.137   0.668  1.3632  0.1569 -2.4455
  140MOL   H19144949   2.835   7.230   0.634 -0.7731 -0.2477 -0.6587
  140MOL   H19244950   3.286   6.874   0.466 -0.6822  0.4511 -0.6858
  140MOL   H19344951   3.454   6.924   0.502 -0.1906  0.7492 -0.7049
  140MOL   C19444952   3.321   6.936   0.678 -0.0133 -0.4285  0.4111
  140MOL   O19544953   3.269   6.810   0.716 -0.2349  0.2795 -0.1961
  140MOL   C19644954   3.132   6.793   0.693 -0.8071 -0.2318  0.3848
  140MOL   C19744955   3.097   6.644   0.669 -0.3652 -0.0340 -0.8364
  140MOL   C19844956   2.947   6.619   0.649 -0.3604  0.2476  0.1989
  140MOL   C19944957   3.445   6.962   0.770 -0.3573 -0.2966 -0.2660
  140MOL   H20044958   3.244   7.013   0.687 -3.0518 -3.0637 -1.7133
  140MOL   H20144959   3.076   6.832   0.778  1.1565  0.6674  1.2744
  140MOL   H20244960   3.100   6.859   0.612  0.3546 -0.5998 -0.3776
  140MOL   H20344961   3.133   6.580   0.750 -1.2890  0.9538  0.3736
  140MOL   H20444962   3.147   6.622   0.575  0.9694 -0.2519 -0.0881
  140MOL   H20544963   2.934   6.518   0.610  0.8364 -0.1133  0.7071
  140MOL   H20644964   2.904   6.691   0.580 -1.6095 -0.1497  0.5541
  140MOL   H20744965   2.902   6.624   0.748 -1.0572  0.5197 -0.1288
  140MOL   H20844966   3.511   6.876   0.766 -0.5180 -0.6401  2.9040
  140MOL   H20944967   3.509   7.046   0.743  0.2156 -1.0484 -1.2640
  140MOL   C21044968   3.412   6.998   0.918  0.2332 -0.4434 -0.2351
  140MOL   O21144969   3.519   6.979   1.014 -0.0424 -0.6075  0.3720
  140MOL   C21244970   3.527   6.854   1.070  0.1538 -0.5467 -0.2561
  140MOL   C21344971   3.657   6.833   1.137 -1.1098 -1.2969 -0.5565
  140MOL   C21444972   3.782   6.831   1.055  0.1429  0.3788  0.1867
  140MOL   C21544973   3.378   7.149   0.927 -0.0275 -0.1492  0.4346
  140MOL   H21644974   3.323   6.943   0.947 -1.6498  2.1115 -0.9102
  140MOL   H21744975   3.441   6.833   1.134  1.3272  1.5619  2.0678
  140MOL   H21844976   3.526   6.778   0.992  1.3784 -0.7304 -0.1061
  140MOL   H21944977   3.659   6.746   1.202  0.2706 -0.0794  1.0638
  140MOL   H22044978   3.668   6.900   1.222 -1.2168  0.6507 -2.0389
  140MOL   H22144979   3.773   6.770   0.965 -2.4411  0.0193  0.6519
  140MOL   H22244980   3.863   6.792   1.117 -0.4280 -1.9129 -0.4538
  140MOL   H22344981   3.815   6.929   1.020 -0.9690  0.4213 -0.7590
  140MOL   H22444982   3.467   7.211   0.934 -1.1196  1.5129 -0.0654
  140MOL   H22544983   3.322   7.178   0.838 -1.7586 -3.1549  0.4884
  140MOL   C22644984   3.278   7.183   1.043 -0.3705 -0.4931  0.0808
  140MOL   O22744985   3.311   7.315   1.094 -0.1114 -0.2186 -0.1663
  140MOL   C22844986   3.407   7.311   1.195 -0.3825  0.4214 -0.4097
  140MOL   C22944987   3.412   7.446   1.272  0.8848  0.0791  0.0667
  140MOL   C23044988   3.537   7.456   1.364 -0.3898 -0.0379 -0.7709
  140MOL   C23144989   3.139   7.191   0.979  0.3731  0.8348 -0.3839
  140MOL   H23244990   3.277   7.105   1.119  0.4525 -1.3760 -0.8042
  140MOL   H23344991   3.376   7.235   1.267  0.9888  1.7719  1.6558
  140MOL   H23444992   3.507   7.277   1.171  0.5451  1.1057  2.3771
  140MOL   H23544993   3.327   7.453   1.340  0.6255  0.8711 -0.3343
  140MOL   H23644994   3.411   7.516   1.188  1.2403 -0.6730 -0.5690
  140MOL   H23744995   3.626   7.478   1.304 -1.1911  2.0093 -1.2602
  140MOL   H23844996   3.550   7.365   1.421  0.8634  0.1003 -0.8062
  140MOL   H23944997   3.516   7.534   1.437  0.6298  0.4810 -1.0215
  140MOL   H24044998   3.118   7.280   0.919 -0.5121  0.8353 -0.0721
  140MOL   H24144999   3.125   7.121   0.896 -0.6153  0.8967 -0.2678
  140MOL   C24245000   3.020   7.151   1.065  0.8314 -0.3797  0.0706
  140MOL   O24345001   3.031   7.027   1.138  0.1540  0.3113  0.4092
  140MOL   C24445002   3.038   6.908   1.054 -0.1105 -0.1850 -0.2086
  140MOL   C24545003   3.114   6.792   1.120  0.0310 -0.1192 -0.5587
  140MOL   C24645004   3.104   6.653   1.051  0.5440  0.0830 -0.8964
  140MOL   C24745005   3.000   7.259   1.169  0.1205 -0.6700 -0.2454
  140MOL   H24845006   2.934   7.141   0.998  1.4111 -2.4278 -0.4127
  140MOL   H24945007   2.937   6.872   1.031  0.8684 -1.8509 -2.0228
  140MOL   H25045008   3.083   6.930   0.958  2.2278 -0.2658  0.8428
  140MOL   H25145009   3.069   6.780   1.218 -0.7721 -1.0146 -1.0301
  140MOL   H25245010   3.219   6.819   1.137 -0.4950  1.4404  0.3149
  140MOL   H25345011   2.997   6.646   1.034  0.0253  1.7755  1.3485
  140MOL   H25445012   3.148   6.569   1.103  0.2525  0.1822 -0.4939
  140MOL   H25545013   3.160   6.662   0.957  0.6205  1.9327 -0.7052
  140MOL   H25645014   3.040   7.225   1.264 -1.5645  1.1451  1.1513
  140MOL   H25745015   3.044   7.354   1.141  0.3092 -0.0236  2.1185
  140MOL   C25845016   2.852   7.299   1.188 -0.8215  0.1161 -0.1815
  140MOL   O25945017   2.787   7.347   1.074 -0.0745  0.7390  0.2346
  140MOL   C26045018   2.805   7.483   1.055 -0.1692  0.4676  0.0501
  140MOL   C26145019   2.750   7.493   0.916  0.4975 -0.1962 -0.3268
  140MOL   C26245020   2.746   7.636   0.852  0.1359 -0.2476 -0.0173
  140MOL   C26345021   2.763   7.189   1.257  0.4075  0.0149  0.4181
  140MOL   H26445022   2.868   7.375   1.264  1.7346 -0.3707 -0.1815
  140MOL   H26545023   2.745   7.545   1.122  1.2359  0.1945  1.6098
  140MOL   H26645024   2.911   7.510   1.057  0.2940 -1.2324 -0.5424
  140MOL   H26745025   2.652   7.445   0.914  0.7062 -0.6272 -0.3733
  140MOL   H26845026   2.824   7.439   0.857 -0.4914 -1.4021 -0.4749
  140MOL   H26945027   2.844   7.682   0.849  1.7512 -3.5258  0.1807
  140MOL   H27045028   2.690   7.700   0.920  1.4960  0.8312  0.0969
  140MOL   H27145029   2.701   7.644   0.753 -0.8585 -0.6579  0.3921
  140MOL   H27245030   2.657   7.214   1.257  0.7455  1.4948  1.4053
  140MOL   H27345031   2.764   7.107   1.185 -2.3256  2.9776 -3.2599
  140MOL   C27445032   2.799   7.155   1.401  0.2898 -0.1157  0.5169
  140MOL   O27545033   2.703   7.190   1.506 -0.4976  0.4284  0.2882
  140MOL   C27645034   2.679   7.328   1.519  0.1253  0.1177 -0.4227
  140MOL   C27745035   2.590   7.357   1.637  0.7020 -0.2943  0.0022
  140MOL   C27845036   2.649   7.289   1.761  0.5645  0.4637 -0.8207
  140MOL   C27945037   2.824   7.003   1.415  0.0211  0.1778  0.5166
  140MOL   H28045038   2.893   7.207   1.418  1.2874 -1.3585 -1.0129
  140MOL   H28145039   2.776   7.377   1.527  0.2979 -0.2570 -0.2137
  140MOL   H28245040   2.633   7.364   1.426 -2.1662 -1.5514  0.0214
  140MOL   H28345041   2.492   7.315   1.616  0.5133  0.2473 -0.2094
  140MOL   H28445042   2.563   7.463   1.646 -0.5076 -0.5911 -0.0724
  140MOL   H28545043   2.587   7.324   1.843  1.9515 -2.3434  1.5098
  140MOL   H28645044   2.755   7.307   1.776  0.5111  1.5978 -1.7274
  140MOL   H28745045   2.625   7.183   1.746 -0.8154  0.3415  1.9901
  140MOL   H28845046   2.742   6.951   1.366 -0.6937  0.6457  1.1955
  140MOL   H28945047   2.910   6.979   1.353  0.3234  1.1465  0.5411
  140MOL   C29045048   2.855   6.948   1.553 -0.3255  0.3418  0.4345
  140MOL   O29145049   2.884   6.808   1.543  0.1735 -0.1486  0.0106
  140MOL   C29245050   2.779   6.724   1.502  0.1741  0.5386  0.5168
  140MOL   C29345051   2.823   6.572   1.482  0.3554 -0.4039 -0.2464
  140MOL   C29445052   2.918   6.561   1.360  0.1343  0.0629  0.2981
  140MOL   C29545053   2.975   7.012   1.614 -0.3807 -0.0226 -0.4130
  140MOL   H29645054   2.766   6.964   1.614 -0.1720  1.4238  0.3903
  140MOL   H29745055   2.708   6.712   1.585  0.1153 -0.9425  0.2768
  140MOL   H29845056   2.725   6.752   1.412 -1.3018 -1.9359  0.5863
  140MOL   H29945057   2.733   6.513   1.464 -1.2037  2.1176 -1.0159
  140MOL   H30045058   2.868   6.535   1.574 -1.0582 -0.8007  0.2958
  140MOL   H30145059   2.948   6.456   1.351 -0.0488  0.1092 -0.9159
  140MOL   H30245060   3.005   6.624   1.377 -0.5220  1.0213  0.1182
  140MOL   H30345061   2.875   6.588   1.264 -0.3528 -2.2379 -0.1711
  140MOL   H30445062   3.061   6.993   1.549  0.5985  0.7607  0.6517
  140MOL   H30545063   2.962   7.120   1.610 -1.6464 -0.0317  2.4721
  140MOL   C30645064   2.998   6.961   1.755  0.2854  0.7209 -0.3729
  140MOL   O30745065   3.135   6.996   1.790  0.2409 -0.3727 -0.0258
  140MOL   C30845066   3.200   6.898   1.873  0.0100  0.6867  0.2500
  140MOL   C30945067   3.320   6.953   1.947 -0.5203 -0.5119  0.2754
  140MOL   C31045068   3.401   6.845   2.018 -0.6556  0.3243 -0.3922
  140MOL   C31145069   2.904   7.024   1.858  0.3743  0.2314 -0.0743
  140MOL   H31245070   2.987   6.853   1.760  0.8820  0.6961  0.5183
  140MOL   H31345071   3.131   6.850   1.942 -1.7946  2.7998 -0.0210
  140MOL   H31445072   3.229   6.813   1.811 -1.7540  0.7753 -0.7317
  140MOL   H31545073   3.292   7.039   2.008 -0.3317  0.1467 -0.5617
  140MOL   H31645074   3.388   6.989   1.870 -0.7160 -0.3240  0.1891
  140MOL   H31745075   3.470   6.792   1.952  0.3817 -1.1075  1.7713
  140MOL   H31845076   3.340   6.777   2.079 -1.5824  0.9232 -0.6448
  140MOL   H31945077   3.466   6.882   2.097 -0.0632  1.0959 -1.2439
  140MOL   H32045078   2.934   7.124   1.889 -0.1513  0.0509  1.0281
  140MOL   H32145079   2.799   7.027   1.828  0.6899  4.6336 -1.0158
  140MOL   H32245080   2.917   6.956   1.942  2.2233  0.1446 -0.4104
  141MOL     C145081   4.577   4.398   6.498 -0.3765  0.8444 -0.0042
  141MOL     O245082   4.603   4.516   6.440  0.5857  0.0565  0.6605
  141MOL     C345083   4.665   4.615   6.520 -0.1667  0.0085  0.1936
  141MOL     C445084   4.671   4.743   6.436 -0.2299  0.7244 -0.2281
  141MOL     C545085   4.756   4.716   6.312  0.2921 -0.5815  0.0122
  141MOL     C645086   4.700   4.302   6.485  0.6151  0.7464 -0.1692
  141MOL     H745087   4.496   4.349   6.445  1.1432  0.3683 -1.9654
  141MOL     H845088   4.615   4.631   6.615  0.3506 -2.5385  0.9390
  141MOL     H945089   4.765   4.579   6.543  0.5716  1.2452 -1.0084
  141MOL    H1045090   4.704   4.822   6.503 -1.3136  0.7008  0.3353
  141MOL    H1145091   4.574   4.784   6.408 -1.4197  0.1968  2.9400
  141MOL    H1245092   4.857   4.703   6.349  0.0483  0.7474  1.1654
  141MOL    H1345093   4.748   4.797   6.239  0.4928 -0.5715  0.0013
  141MOL    H1445094   4.743   4.616   6.270 -1.1611 -0.1578 -0.5921
  141MOL    H1545095   4.715   4.279   6.379  0.4147 -0.1779  0.0011
  141MOL    H1645096   4.783   4.367   6.513  1.9466 -1.0348  0.1231
  141MOL    H1745097   4.539   4.397   6.600  0.2910 -1.5467  0.2597
  141MOL    C1845098   4.697   4.176   6.578  0.2366 -0.7833  0.5724
  141MOL    O1945099   4.591   4.098   6.531  0.2826  0.1221 -0.0061
  141MOL    C2045100   4.526   4.022   6.634  0.0673  0.1150 -0.5920
  141MOL    C2145101   4.408   3.948   6.567  0.1960 -0.7278  0.2542
  141MOL    C2245102   4.305   4.041   6.495  0.1375 -0.0326  0.3343
  141MOL    C2345103   4.832   4.104   6.577 -0.4926 -0.2514  0.2774
  141MOL    H2445104   4.684   4.222   6.676  0.8670  0.7301 -0.0387
  141MOL    H2545105   4.581   3.953   6.698 -1.9226  0.0266  1.0509
  141MOL    H2645106   4.484   4.094   6.703 -2.9853  0.6469 -2.8523
  141MOL    H2745107   4.352   3.890   6.640  2.5496 -1.6053  1.4125
  141MOL    H2845108   4.448   3.872   6.499 -0.0672 -2.1184  1.6231
  141MOL    H2945109   4.369   4.103   6.432 -1.4889 -0.2980 -1.6080
  141MOL    H3045110   4.244   4.106   6.558  2.2584  1.6681  0.7206
  141MOL    H3145111   4.231   3.984   6.440 -1.3178  1.0736  1.0811
  141MOL    H3245112   4.827   4.002   6.615 -0.6150  0.0032  0.9603
  141MOL    H3345113   4.866   4.096   6.474 -1.4377 -0.9908  0.0238
  141MOL    C3445114   4.934   4.185   6.661  0.8156 -0.4470  0.1787
  141MOL    O3545115   4.881   4.190   6.794  0.2719  0.1681 -0.3296
  141MOL    C3645116   4.909   4.300   6.877 -0.4070 -0.2796  0.2381
  141MOL    C3745117   4.818   4.303   7.002 -0.1878  0.0222  0.0514
  141MOL    C3845118   4.817   4.438   7.075  0.7595 -0.8429 -0.5688
  141MOL    C3945119   5.077   4.132   6.659  0.0139  0.2225 -0.4759
  141MOL    H4045120   4.937   4.288   6.624 -0.5115 -0.9504 -1.3501
  141MOL    H4145121   5.016   4.312   6.890 -0.2241 -0.2254 -1.3161
  141MOL    H4245122   4.891   4.394   6.824  0.5459  0.7128  1.6363
  141MOL    H4345123   4.830   4.222   7.074 -1.1809 -3.2010 -3.2644
  141MOL    H4445124   4.716   4.288   6.967  0.4041 -0.3694 -1.5524
  141MOL    H4545125   4.788   4.512   7.000  2.1642  0.7460  0.4534
  141MOL    H4645126   4.903   4.471   7.132 -1.4783  1.7829  1.3991
  141MOL    H4745127   4.724   4.439   7.132  0.8265 -0.2258 -0.4776
  141MOL    H4845128   5.137   4.184   6.735  0.6661  2.3909 -2.3936
  141MOL    H4945129   5.076   4.030   6.697 -0.7459  0.9109  1.3807
  141MOL    C5045130   5.156   4.138   6.523 -0.8150  0.7981  0.2949
  141MOL    O5145131   5.142   4.271   6.467  0.1815  0.1080  0.8846
  141MOL    C5245132   5.114   4.273   6.328 -0.4372  0.2967  0.2509
  141MOL    C5345133   5.064   4.410   6.291 -0.2222  0.1432  0.5100
  141MOL    C5445134   5.150   4.525   6.342 -0.1711 -0.0171  0.6039
  141MOL    C5545135   5.310   4.109   6.532 -0.0343 -0.0399 -1.0637
  141MOL    H5645136   5.105   4.061   6.465  1.0438  1.9318 -3.0516
  141MOL    H5745137   5.205   4.242   6.277 -0.9866 -0.9796  0.0106
  141MOL    H5845138   5.041   4.193   6.310  0.2001 -0.0878 -0.7017
  141MOL    H5945139   4.963   4.429   6.326 -1.2307 -2.1729 -1.0227
  141MOL    H6045140   5.045   4.416   6.184  0.1142  0.3751  0.4577
  141MOL    H6145141   5.119   4.622   6.301  0.1773 -0.5756 -1.0271
  141MOL    H6245142   5.250   4.522   6.299 -0.9428 -2.4725 -1.1375
  141MOL    H6345143   5.166   4.524   6.450 -1.4712  0.9542  0.8212
  141MOL    H6445144   5.343   4.110   6.428 -1.2158  0.6286 -1.4352
  141MOL    H6545145   5.352   4.195   6.584 -0.4457 -1.3368  1.4762
  141MOL    C6645146   5.357   3.977   6.601 -0.4321  0.1825  0.2667
  141MOL    O6745147   5.290   3.875   6.531 -0.5219  0.4620 -0.0159
  141MOL    C6845148   5.299   3.750   6.600 -0.2372 -0.2896  0.2264
  141MOL    C6945149   5.177   3.655   6.597 -0.2366  0.2326  0.1016
  141MOL    C7045150   5.055   3.724   6.653  0.2470 -0.3887  0.1582
  141MOL    C7145151   5.507   3.955   6.593 -0.1007 -0.8420 -0.3395
  141MOL    H7245152   5.308   3.977   6.698 -0.4571  0.4788  0.2551
  141MOL    H7345153   5.381   3.690   6.561  0.2969 -0.1187  1.0660
  141MOL    H7445154   5.324   3.765   6.705  0.4543  3.0877 -0.3811
  141MOL    H7545155   5.195   3.563   6.654 -2.6460  0.5512  1.4623
  141MOL    H7645156   5.161   3.629   6.492  1.4083 -0.5797  0.0379
  141MOL    H7745157   5.042   3.811   6.589  0.7242 -0.9207 -0.6680
  141MOL    H7845158   5.065   3.762   6.755 -2.3894 -1.8699  1.0250
  141MOL    H7945159   4.967   3.660   6.643  0.9246 -1.1498 -1.0801
  141MOL    H8045160   5.528   3.851   6.616 -0.9602 -1.4986 -2.3948
  141MOL    H8145161   5.530   3.963   6.487  1.4053  2.0858  0.1424
  141MOL    C8245162   5.601   4.060   6.668 -0.8174  0.4691 -0.1514
  141MOL    O8345163   5.584   4.029   6.805  0.0227  0.3563 -0.2978
  141MOL    C8445164   5.611   4.136   6.898  1.3608 -0.3307 -0.7520
  141MOL    C8545165   5.496   4.239   6.916  0.3377  0.2689 -0.6199
  141MOL    C8645166   5.370   4.182   6.983 -0.0317 -0.5035  0.0086
  141MOL    C8745167   5.752   4.050   6.636  0.2039 -0.6493  0.3083
  141MOL    H8845168   5.565   4.160   6.645 -0.9657  0.1451 -1.3805
  141MOL    H8945169   5.635   4.097   6.997  0.4340  0.5647 -0.1646
  141MOL    H9045170   5.705   4.185   6.874  1.4290  0.8893  1.7802
  141MOL    H9145171   5.466   4.272   6.816  1.4742 -0.5536 -1.2455
  141MOL    H9245172   5.523   4.323   6.981  1.5347 -0.4786 -0.1291
  141MOL    H9345173   5.316   4.268   7.022 -0.0126  0.1491 -1.4061
  141MOL    H9445174   5.388   4.115   7.068 -0.2310  0.5616  0.9011
  141MOL    H9545175   5.310   4.131   6.908 -1.6127  2.8029 -1.0476
  141MOL    H9645176   5.767   4.058   6.528 -1.2408 -0.5141  0.1063
  141MOL    H9745177   5.808   4.140   6.663 -0.6837  0.2699 -0.8713
  141MOL    C9845178   5.820   3.917   6.687 -0.1005 -0.0915  0.0067
  141MOL    O9945179   5.828   3.819   6.583  0.6882  0.0000  0.1301
  141MOL   C10045180   5.919   3.848   6.475  0.1136 -0.6542 -0.3284
  141MOL   C10145181   5.938   3.727   6.380 -0.7125 -0.5595  0.2068
  141MOL   C10245182   6.013   3.618   6.461  0.3484 -0.8596  0.1488
  141MOL   C10345183   5.958   3.938   6.760  0.7084  0.3101 -0.3866
  141MOL   H10445184   5.746   3.868   6.750  0.0059  1.2761  1.2013
  141MOL   H10545185   5.892   3.938   6.419 -2.3605 -0.0796  1.6727
  141MOL   H10645186   6.010   3.878   6.526 -1.7000  0.3826  2.4474
  141MOL   H10745187   6.003   3.752   6.297 -0.8919  1.4927  0.6587
  141MOL   H10845188   5.849   3.672   6.348 -0.7243 -0.9163  0.8355
  141MOL   H10945189   6.115   3.655   6.458 -0.2482  0.7259 -1.0017
  141MOL   H11045190   6.004   3.523   6.407 -0.3018 -0.8201  0.1781
  141MOL   H11145191   5.974   3.595   6.560 -1.2373  1.4942  0.1023
  141MOL   H11245192   6.036   3.982   6.698  1.6441 -1.4476 -0.5023
  141MOL   H11345193   5.943   4.013   6.837  0.9374 -0.9262  0.8813
  141MOL   C11445194   6.016   3.816   6.834  0.4957  0.3489  0.1404
  141MOL   O11545195   6.144   3.867   6.871  0.2323 -0.4727  0.0922
  141MOL   C11645196   6.247   3.781   6.919 -0.1094  0.0494 -0.5288
  141MOL   C11745197   6.329   3.725   6.801 -0.0147  0.5404 -0.2269
  141MOL   C11845198   6.372   3.849   6.711  0.4696 -0.6151 -0.3103
  141MOL   C11945199   5.940   3.764   6.956  0.0264  0.2139  0.1929
  141MOL   H12045200   6.036   3.732   6.767  0.2921  1.4182 -1.2810
  141MOL   H12145201   6.306   3.838   6.991 -0.3202 -0.2434 -0.1271
  141MOL   H12245202   6.211   3.694   6.974 -1.0599  1.0568  0.4664
  141MOL   H12345203   6.264   3.653   6.750  1.8275 -1.0561 -0.3759
  141MOL   H12445204   6.415   3.664   6.829  0.1825 -0.6794 -3.2870
  141MOL   H12545205   6.427   3.807   6.626  4.2698  0.7962  1.3527
  141MOL   H12645206   6.437   3.923   6.757 -0.1629 -0.7282  0.7848
  141MOL   H12745207   6.298   3.911   6.661  1.6268  0.5042 -0.6379
  141MOL   H12845208   6.012   3.737   7.034  3.3228 -0.4379 -2.8888
  141MOL   H12945209   5.888   3.845   7.005 -1.1586 -0.8229  0.6817
  141MOL   C13045210   5.839   3.646   6.940 -0.6241  0.3301 -0.2363
  141MOL   O13145211   5.918   3.526   6.923 -0.3130 -0.0649  0.2316
  141MOL   C13245212   5.942   3.484   6.791  0.7094  0.1440  0.1686
  141MOL   C13345213   5.981   3.332   6.811 -0.0062  0.8972  0.5587
  141MOL   C13445214   5.863   3.240   6.851 -0.5550 -0.6081  0.1028
  141MOL   C13545215   5.752   3.622   7.064  0.3707  0.1219 -0.3612
  141MOL   H13645216   5.763   3.662   6.864 -1.5436 -0.6771  0.4545
  141MOL   H13745217   5.848   3.502   6.737  0.9771 -0.5465 -0.5528
  141MOL   H13845218   6.030   3.534   6.751  1.9146 -1.1689  1.1490
  141MOL   H13945219   6.075   3.323   6.865  0.8729 -1.3965 -1.2883
  141MOL   H14045220   6.013   3.305   6.710 -1.8871 -2.2608  0.7488
  141MOL   H14145221   5.837   3.259   6.954  0.1892 -2.6813  0.7077
  141MOL   H14245222   5.893   3.135   6.842 -0.5267 -0.4586 -1.9086
  141MOL   H14345223   5.781   3.275   6.788  0.0173  0.4270 -0.0844
  141MOL   H14445224   5.826   3.594   7.140  0.4968 -1.4899 -1.0632
  141MOL   H14545225   5.708   3.718   7.091 -1.6719 -0.4652 -1.5272
  141MOL   C14645226   5.642   3.509   7.044 -0.9479  0.9463  0.1534
  141MOL   O14745227   5.612   3.457   7.172  0.4638  0.1959 -0.3721
  141MOL   C14845228   5.695   3.358   7.228 -0.3459  0.0410 -0.3173
  141MOL   C14945229   5.609   3.235   7.260 -0.5734  0.9039  0.3709
  141MOL   C15045230   5.552   3.161   7.142  0.0520 -0.0900 -0.4998
  141MOL   C15145231   5.526   3.583   6.980  0.1801  0.0074  0.0436
  141MOL   H15245232   5.684   3.433   6.978 -0.3343  0.7357  0.7719
  141MOL   H15345233   5.778   3.347   7.158 -1.4303 -0.9566 -1.4584
  141MOL   H15445234   5.735   3.397   7.322  0.1301  1.3253 -1.0430
  141MOL   H15545235   5.525   3.262   7.325 -0.4362  0.7234  0.6245
  141MOL   H15645236   5.673   3.160   7.306 -2.6592 -1.0989  0.1233
  141MOL   H15745237   5.636   3.126   7.082 -0.9901  1.6584 -3.0627
  141MOL   H15845238   5.486   3.226   7.085 -0.8154 -0.7122 -0.2117
  141MOL   H15945239   5.491   3.081   7.183  0.9685 -1.0717 -1.0110
  141MOL   H16045240   5.504   3.661   7.054  0.4115 -2.1837  2.4961
  141MOL   H16145241   5.551   3.635   6.888  0.8204 -1.2167 -0.4837
  141MOL   C16245242   5.411   3.489   6.966 -0.2151  0.4329  0.4310
  141MOL   O16345243   5.301   3.583   6.957 -0.7958  0.1682  0.1345
  141MOL   C16445244   5.246   3.599   7.080 -0.7090  0.1175 -1.0025
  141MOL   C16545245   5.131   3.694   7.063 -0.3334 -0.2765 -0.4518
  141MOL   C16645246   5.164   3.842   7.044  0.1973 -0.0643  0.0155
  141MOL   C16745247   5.402   3.420   6.825  0.3061  0.3633 -0.0456
  141MOL   H16845248   5.410   3.416   7.046 -1.5836 -0.9074 -0.7829
  141MOL   H16945249   5.214   3.499   7.110  2.2125 -0.6868 -0.3750
  141MOL   H17045250   5.313   3.639   7.156  0.8369 -2.0884 -1.1490
  141MOL   H17145251   5.082   3.672   7.158 -0.0068  0.6297 -0.0637
  141MOL   H17245252   5.057   3.662   6.991  0.6539 -1.3684 -0.9940
  141MOL   H17345253   5.220   3.859   6.952  1.5781 -0.0779  0.8489
  141MOL   H17445254   5.228   3.886   7.121  2.3478 -1.4798 -0.9338
  141MOL   H17545255   5.077   3.908   7.047  0.7648  0.6594  0.8917
  141MOL   H17645256   5.398   3.499   6.751  0.0524  0.9585  0.5986
  141MOL   H17745257   5.498   3.373   6.807 -0.2267  1.0887 -5.5121
  141MOL   C17845258   5.282   3.326   6.804 -0.3112  0.3805  0.6928
  141MOL   O17945259   5.306   3.257   6.682 -0.0866 -0.7141  0.0422
  141MOL   C18045260   5.292   3.328   6.555  0.9428  0.0127  0.4761
  141MOL   C18145261   5.320   3.228   6.444 -0.8626  0.4427  0.7133
  141MOL   C18245262   5.218   3.110   6.425 -0.1696  0.5340 -0.0363
  141MOL   C18345263   5.266   3.216   6.912  0.1279  0.4418 -0.2616
  141MOL   H18445264   5.187   3.380   6.806  0.2112  1.3296  0.3157
  141MOL   H18545265   5.194   3.374   6.544 -0.1456 -2.4486 -0.6071
  141MOL   H18645266   5.368   3.402   6.531 -1.5648  2.0428 -1.3786
  141MOL   H18745267   5.420   3.185   6.451 -1.7698 -1.8605  0.1519
  141MOL   H18845268   5.324   3.275   6.346 -0.4992  1.4457  1.2116
  141MOL   H18945269   5.222   3.044   6.512 -0.6868  0.8196  0.2064
  141MOL   H19045270   5.236   3.051   6.335 -0.0738  1.8896 -0.9195
  141MOL   H19145271   5.116   3.148   6.424 -0.3032  0.3465  2.6455
  141MOL   H19245272   5.350   3.147   6.908 -0.6911 -0.5635 -0.4742
  141MOL   H19345273   5.273   3.263   7.010 -2.5281  1.4817 -0.5346
  141MOL   C19445274   5.138   3.127   6.891  0.0727 -0.8045  0.4509
  141MOL   O19545275   5.145   3.015   6.971 -0.2890 -0.6454 -0.7949
  141MOL   C19645276   5.204   2.895   6.929 -0.9348 -0.2695 -0.0665
  141MOL   C19745277   5.117   2.783   6.868 -0.2794 -0.4338  0.4350
  141MOL   C19845278   5.204   2.668   6.815  0.1157 -0.2949 -0.5876
  141MOL   C19945279   5.008   3.197   6.941 -0.2985  0.4537  0.6919
  141MOL   H20045280   5.140   3.087   6.790  0.3072 -1.0463  0.5478
  141MOL   H20145281   5.279   2.903   6.851 -0.5267  0.6441  0.4088
  141MOL   H20245282   5.260   2.864   7.017 -0.6980  2.4133  0.7777
  141MOL   H20345283   5.064   2.834   6.788  3.6988  1.1716 -1.3164
  141MOL   H20445284   5.051   2.749   6.948  0.2097  0.8581  1.4271
  141MOL   H20545285   5.260   2.621   6.896  0.4298 -1.7760 -1.6485
  141MOL   H20645286   5.286   2.697   6.750 -0.0840 -1.1483 -1.2222
  141MOL   H20745287   5.149   2.590   6.763 -2.3174  1.6571 -1.0432
  141MOL   H20845288   5.017   3.191   7.050  1.2604 -1.3740  0.5007
  141MOL   H20945289   5.007   3.302   6.912  0.1463  0.1943 -0.2834
  141MOL   C21045290   4.876   3.129   6.891 -0.1447 -0.2530  0.7964
  141MOL   O21145291   4.763   3.211   6.944  0.5395 -0.5479  0.4462
  141MOL   C21245292   4.714   3.180   7.073  0.2029 -0.5247 -0.0950
  141MOL   C21345293   4.689   3.306   7.153  0.6429 -0.2741  0.2149
  141MOL   C21445294   4.818   3.391   7.164  0.5991 -0.4517  0.2556
  141MOL   C21545295   4.869   3.132   6.739 -0.2352  0.3293 -0.1545
  141MOL   H21645296   4.881   3.024   6.922  0.5623 -1.0088 -1.7301
  141MOL   H21745297   4.623   3.122   7.066 -1.1821  1.6277 -0.5290
  141MOL   H21845298   4.792   3.126   7.127  1.5553  0.0015 -1.4802
  141MOL   H21945299   4.643   3.282   7.249  1.7718  1.8368  1.3019
  141MOL   H22045300   4.613   3.363   7.099  0.5693  0.2196  0.8274
  141MOL   H22145301   4.901   3.340   7.213  2.8021  2.1645 -0.6155
  141MOL   H22245302   4.791   3.467   7.236  2.0289  0.0463  0.2826
  141MOL   H22345303   4.856   3.435   7.072  0.9105 -0.4693  0.3741
  141MOL   H22445304   4.887   3.233   6.702  1.8240 -0.7872 -2.3279
  141MOL   H22545305   4.944   3.063   6.700  0.4567  1.1669 -0.3338
  141MOL   C22645306   4.725   3.085   6.691 -0.2342 -0.3203  0.1884
  141MOL   O22745307   4.729   3.069   6.550 -0.6073 -0.5315  0.1169
  141MOL   C22845308   4.691   3.175   6.464  0.8314 -0.5360 -0.7836
  141MOL   C22945309   4.699   3.132   6.316  0.1233  0.4274  0.1376
  141MOL   C23045310   4.605   3.021   6.280  0.1489  0.5106 -0.2157
  141MOL   C23145311   4.685   2.951   6.749 -0.4438  0.2209  0.0475
  141MOL   H23245312   4.647   3.154   6.725  1.1564  0.7164  1.3094
  141MOL   H23345313   4.588   3.208   6.475  0.4163 -1.2151 -2.5667
  141MOL   H23445314   4.756   3.262   6.477  1.7202 -1.2452 -0.4337
  141MOL   H23545315   4.803   3.100   6.307 -0.2217 -0.6291 -0.1997
  141MOL   H23645316   4.678   3.216   6.250 -0.9815  2.1411  2.5807
  141MOL   H23745317   4.624   2.989   6.177  0.3796  1.2603 -0.4088
  141MOL   H23845318   4.500   3.052   6.277 -0.4925 -1.3637  1.5722
  141MOL   H23945319   4.635   2.930   6.332 -1.6160  0.2744  0.4384
  141MOL   H24045320   4.763   2.875   6.740 -1.4050 -0.5986 -1.4539
  141MOL   H24145321   4.655   2.954   6.853  1.0438  0.7373  0.4771
  141MOL   C24245322   4.554   2.902   6.681 -0.6140 -0.6875 -0.3114
  141MOL   O24345323   4.512   2.775   6.718 -0.4004 -0.5941  0.4905
  141MOL   C24445324   4.584   2.671   6.662 -1.0575  0.1535  0.3944
  141MOL   C24545325   4.528   2.530   6.695 -0.5161 -0.8219  0.6677
  141MOL   C24645326   4.387   2.514   6.630 -0.3072  0.6543 -0.3663
  141MOL   C24745327   4.431   2.995   6.711 -0.5138 -0.0038 -0.8302
  141MOL   H24845328   4.567   2.903   6.572 -0.1620 -1.3034 -0.2630
  141MOL   H24945329   4.592   2.688   6.554  2.1994  0.0824  0.5802
  141MOL   H25045330   4.686   2.675   6.700 -1.6705  0.3847  2.0376
  141MOL   H25145331   4.524   2.535   6.804  0.1389 -1.3459  0.7175
  141MOL   H25245332   4.593   2.453   6.655 -0.8471 -2.1056  2.5521
  141MOL   H25345333   4.341   2.415   6.630 -1.0317  0.9956 -0.0726
  141MOL   H25445334   4.388   2.534   6.523  0.0013  2.1310 -0.0987
  141MOL   H25545335   4.316   2.583   6.676 -1.3733 -1.4698  1.2824
  141MOL   H25645336   4.420   3.003   6.819 -0.5339 -0.1203 -0.8244
  141MOL   H25745337   4.457   3.099   6.689  1.7570 -0.4667 -0.5306
  141MOL   C25845338   4.301   2.952   6.642  0.1704 -0.0128 -0.2650
  141MOL   O25945339   4.191   2.973   6.730  0.1091 -0.3756  0.1432
  141MOL   C26045340   4.151   2.870   6.819 -0.5266  0.6305  0.1627
  141MOL   C26145341   4.015   2.907   6.878 -0.4270  0.2284 -0.9681
  141MOL   C26245342   3.912   2.913   6.765 -0.5139 -0.1031 -0.0758
  141MOL   C26345343   4.280   3.025   6.512 -0.3822 -0.5307 -0.2655
  141MOL   H26445344   4.303   2.845   6.625  2.1616 -0.1642  0.7516
  141MOL   H26545345   4.148   2.774   6.768  0.9674  1.4895 -1.5810
  141MOL   H26645346   4.218   2.861   6.904  0.2280 -0.1162 -0.5143
  141MOL   H26745347   4.013   3.001   6.933 -1.4553 -2.1438  3.3579
  141MOL   H26845348   3.981   2.831   6.950 -0.1907  0.5053 -0.5600
  141MOL   H26945349   3.807   2.901   6.793 -0.9558  0.1056 -1.5821
  141MOL   H27045350   3.943   2.837   6.694  0.0495 -0.0397  0.0994
  141MOL   H27145351   3.924   3.001   6.701 -0.8943 -0.4357 -0.6171
  141MOL   H27245352   4.241   3.124   6.540  1.3501 -0.1013  0.7154
  141MOL   H27345353   4.369   3.038   6.450 -0.5312 -1.4376 -0.6756
  141MOL   C27445354   4.178   2.952   6.419  0.3443  0.6914 -0.7590
  141MOL   O27545355   4.123   3.036   6.316  0.2948 -0.3259  0.2231
  141MOL   C27645356   4.059   3.155   6.357  0.0923  0.5866  0.7410
  141MOL   C27745357   3.949   3.178   6.253  0.0494 -0.4068  0.2302
  141MOL   C27845358   3.844   3.282   6.307 -0.2524  0.5950 -0.0849
  141MOL   C27945359   4.249   2.838   6.339 -0.6902 -0.8646  0.0897
  141MOL   H28045360   4.096   2.904   6.473  0.6566  0.6188 -0.3449
  141MOL   H28145361   4.016   3.130   6.454 -1.1776  0.7247  0.2174
  141MOL   H28245362   4.126   3.241   6.359  1.3857 -0.4015  0.8406
  141MOL   H28345363   3.894   3.085   6.234 -0.3567  0.2548 -1.8825
  141MOL   H28445364   4.000   3.211   6.163 -0.3129 -3.6989 -1.2634
  141MOL   H28545365   3.902   3.373   6.319  0.7878 -0.3799  2.5673
  141MOL   H28645366   3.802   3.264   6.406  1.2258 -0.0879  0.4374
  141MOL   H28745367   3.760   3.303   6.240 -1.0766  1.1913  1.1325
  141MOL   H28845368   4.339   2.866   6.285 -1.7024 -1.0495 -1.7224
  141MOL   H28945369   4.279   2.753   6.402 -2.9428 -2.2984 -0.7215
  141MOL   C29045370   4.168   2.770   6.223 -0.3655 -0.8735  0.2106
  141MOL   O29145371   4.254   2.689   6.144  0.2213 -0.1989 -0.1963
  141MOL   C29245372   4.326   2.756   6.041  0.2187  0.2484 -0.6818
  141MOL   C29345373   4.423   2.658   5.974  0.7125 -0.7541  0.8907
  141MOL   C29445374   4.520   2.605   6.072 -0.1758 -0.2245  0.0847
  141MOL   C29545375   4.068   2.665   6.286 -0.9000 -0.8413 -0.2181
  141MOL   H29645376   4.125   2.835   6.148 -0.2185  0.7703  1.5318
  141MOL   H29745377   4.265   2.787   5.956  1.2825 -0.8428 -1.8682
  141MOL   H29845378   4.382   2.839   6.086 -2.6874  1.5935  0.5906
  141MOL   H29945379   4.485   2.705   5.897 -0.4605 -1.9045 -0.8124
  141MOL   H30045380   4.361   2.582   5.926  1.5990  0.5230 -2.4352
  141MOL   H30145381   4.476   2.548   6.154  0.9951 -2.9900 -1.1569
  141MOL   H30245382   4.575   2.691   6.109 -1.2332 -0.5219  2.4481
  141MOL   H30345383   4.586   2.528   6.032 -0.6368 -0.6578  0.1585
  141MOL   H30445384   4.108   2.577   6.337  0.7081 -0.8829 -1.5105
  141MOL   H30545385   4.009   2.712   6.365  0.7540 -1.0164  1.1653
  141MOL   C30645386   3.973   2.607   6.186  0.8594  0.7611  0.1880
  141MOL   O30745387   3.883   2.522   6.257  0.2163  0.1501 -0.2359
  141MOL   C30845388   3.885   2.382   6.221 -0.2944  0.0202 -0.0836
  141MOL   C30945389   3.785   2.306   6.304  0.3236 -0.0805 -0.6434
  141MOL   C31045390   3.644   2.314   6.252 -0.2448  0.3228  0.1048
  141MOL   C31145391   3.882   2.704   6.112 -0.0435 -0.1371 -0.6110
  141MOL   H31245392   4.034   2.549   6.116  1.8664  0.8147  1.0101
  141MOL   H31345393   3.867   2.381   6.114  2.3491  1.0295 -0.5672
  141MOL   H31445394   3.982   2.340   6.245 -1.0996 -0.9578  1.5695
  141MOL   H31545395   3.799   2.331   6.409  0.4155 -0.2382 -0.6181
  141MOL   H31645396   3.803   2.198   6.307 -0.9901 -0.3049 -0.2436
  141MOL   H31745397   3.627   2.247   6.167  1.6649 -0.1853  0.1053
  141MOL   H31845398   3.623   2.414   6.213 -1.8285 -0.3689 -0.8668
  141MOL   H31945399   3.571   2.294   6.330 -1.3965 -0.2844 -1.1181
  141MOL   H32045400   3.933   2.776   6.049  1.7265 -0.0107  0.9185
  141MOL   H32145401   3.815   2.668   6.034 -1.1751 -0.6844  0.5733
  141MOL   H32245402   3.821   2.763   6.181  1.9864  0.3220  0.8246
  142MOL     C145403   6.233   2.737   2.220  0.2627 -0.4225  0.3239
  142MOL     O245404   6.120   2.714   2.144 -0.2782 -0.0242  0.0558
  142MOL     C345405   6.116   2.777   2.017 -0.7658  0.0436 -0.5293
  142MOL     C445406   5.986   2.766   1.946 -0.1017  0.0393 -0.6199
  142MOL     C545407   5.980   2.643   1.856 -0.2389 -0.2774 -0.1358
  142MOL     C645408   6.227   2.654   2.346 -0.2995  0.1196 -1.3010
  142MOL     H745409   6.236   2.842   2.248 -1.6850 -0.2851  0.0699
  142MOL     H845410   6.125   2.884   2.036 -5.2489  0.2514  1.0901
  142MOL     H945411   6.202   2.738   1.963  1.2851  2.0072  1.1867
  142MOL    H1045412   5.973   2.859   1.890 -0.3806  1.8054  2.2823
  142MOL    H1145413   5.903   2.751   2.016  1.3904  0.2936  1.2497
  142MOL    H1245414   5.878   2.605   1.847 -0.4902 -0.1095  1.7880
  142MOL    H1345415   6.030   2.555   1.896 -0.8761 -0.3723  0.4655
  142MOL    H1445416   6.019   2.656   1.755 -1.9705  2.0511 -0.5473
  142MOL    H1545417   6.152   2.691   2.415  1.3641  2.7441 -0.8100
  142MOL    H1645418   6.180   2.559   2.323  0.0254 -1.2160  3.1629
  142MOL    H1745419   6.316   2.704   2.157 -0.7858  0.2541 -1.4331
  142MOL    C1845420   6.370   2.640   2.401  0.2315 -0.2205  0.7405
  142MOL    O1945421   6.402   2.765   2.460 -0.0178  0.0782 -0.2508
  142MOL    C2045422   6.536   2.802   2.465 -0.3383 -0.2653 -0.0875
  142MOL    C2145423   6.548   2.903   2.582 -0.1025 -0.3213  0.2668
  142MOL    C2245424   6.476   2.852   2.712 -0.1437 -0.1509  0.3764
  142MOL    C2345425   6.370   2.525   2.506 -0.0897 -0.2033 -0.5972
  142MOL    H2445426   6.434   2.613   2.317 -0.3791  1.9051 -0.4338
  142MOL    H2545427   6.597   2.712   2.474 -0.4136 -0.6113 -2.5481
  142MOL    H2645428   6.568   2.842   2.369 -2.1756  2.8933  0.5334
  142MOL    H2745429   6.492   2.987   2.542 -1.9779 -1.7452 -0.1659
  142MOL    H2845430   6.655   2.919   2.597 -0.1354  0.5611 -0.3633
  142MOL    H2945431   6.368   2.851   2.698 -0.1320  0.2339  0.2495
  142MOL    H3045432   6.479   2.932   2.787  1.0320  2.4927 -2.3660
  142MOL    H3145433   6.508   2.765   2.769 -1.5639 -1.5400 -0.9077
  142MOL    H3245434   6.444   2.536   2.585  1.6509 -0.4475 -2.1728
  142MOL    H3345435   6.276   2.524   2.562  0.2732 -1.1057  0.0195
  142MOL    C3445436   6.387   2.379   2.454  0.5507 -0.3104  0.0633
  142MOL    O3545437   6.513   2.369   2.396  0.1253  0.1031  0.3305
  142MOL    C3645438   6.503   2.332   2.256 -0.3502 -0.2901 -0.8159
  142MOL    C3745439   6.645   2.287   2.207  0.0193 -0.0237  0.0371
  142MOL    C3845440   6.666   2.146   2.249  0.2232  0.1901  0.1103
  142MOL    C3945441   6.369   2.271   2.559  0.2339 -0.5550 -0.1046
  142MOL    H4045442   6.314   2.361   2.376 -0.7518 -0.9880  1.4173
  142MOL    H4145443   6.429   2.255   2.237 -0.7274  0.0566 -0.7416
  142MOL    H4245444   6.474   2.426   2.209 -0.4752  1.9695  3.6077
  142MOL    H4345445   6.720   2.351   2.252 -1.2496  0.9575  0.8038
  142MOL    H4445446   6.635   2.302   2.099  1.0667  1.3355  0.1193
  142MOL    H4545447   6.592   2.081   2.202 -1.1372  1.5660  0.2764
  142MOL    H4645448   6.656   2.144   2.358  0.8691  0.0736  0.1694
  142MOL    H4745449   6.758   2.094   2.224 -1.5222 -3.4811  0.8979
  142MOL    H4845450   6.456   2.274   2.625  0.2289  0.2829 -0.1425
  142MOL    H4945451   6.293   2.292   2.634 -1.1335 -2.6903 -0.8415
  142MOL    C5045452   6.359   2.129   2.516  0.0505  0.0150 -0.0971
  142MOL    O5145453   6.387   2.030   2.619  0.9205  0.1291 -0.1654
  142MOL    C5245454   6.519   2.026   2.651 -0.0275  0.5443  0.3379
  142MOL    C5345455   6.545   1.892   2.716 -0.6377  0.4673  0.3894
  142MOL    C5445456   6.515   1.776   2.621 -0.0154 -0.2630  0.4228
  142MOL    C5545457   6.212   2.103   2.476  0.3520 -0.2201 -0.0613
  142MOL    H5645458   6.411   2.096   2.426  0.4152 -1.8473  0.7655
  142MOL    H5745459   6.582   2.028   2.562 -0.6218 -0.7403 -0.1269
  142MOL    H5845460   6.546   2.108   2.717  4.9844 -1.0166  0.4185
  142MOL    H5945461   6.483   1.880   2.805 -0.5024  0.4331  0.4794
  142MOL    H6045462   6.649   1.880   2.746 -0.7892 -0.4602  0.5529
  142MOL    H6145463   6.531   1.805   2.517 -2.2908 -0.6898 -0.0765
  142MOL    H6245464   6.410   1.748   2.628  0.0914 -1.4252 -2.1807
  142MOL    H6345465   6.590   1.700   2.639  0.7010  0.4903  0.6469
  142MOL    H6445466   6.150   2.145   2.555 -0.0569  1.9136 -1.4958
  142MOL    H6545467   6.183   2.163   2.390 -1.1019 -2.4823 -1.2073
  142MOL    C6645468   6.181   1.953   2.458  1.1526 -0.0101 -0.1084
  142MOL    O6745469   6.039   1.960   2.431  0.0538  0.7165 -0.3874
  142MOL    C6845470   5.959   1.845   2.456  0.1088 -0.1763  0.5539
  142MOL    C6945471   5.834   1.858   2.382  0.3688  0.2936  0.1441
  142MOL    C7045472   5.740   1.938   2.467  0.0871  0.7720  0.0695
  142MOL    C7145473   6.262   1.872   2.350  0.5278 -0.7440 -0.2624
  142MOL    H7245474   6.193   1.907   2.556 -2.7304 -0.5188  0.2304
  142MOL    H7345475   6.014   1.759   2.418 -0.3811  0.3296 -1.3126
  142MOL    H7445476   5.963   1.840   2.565 -0.4265 -4.2827  0.4758
  142MOL    H7545477   5.791   1.759   2.372 -0.8023  0.8749 -0.6811
  142MOL    H7645478   5.845   1.895   2.280 -2.3383  0.2054 -0.2118
  142MOL    H7745479   5.745   1.907   2.572 -1.1995 -2.2733 -0.7129
  142MOL    H7845480   5.637   1.923   2.436 -0.1528  1.5066  0.4916
  142MOL    H7945481   5.765   2.044   2.472  0.4017  0.7360 -0.7290
  142MOL    H8045482   6.367   1.876   2.379  0.0799  0.4850  1.2349
  142MOL    H8145483   6.244   1.765   2.355 -2.9561 -0.1905  0.1387
  142MOL    C8245484   6.257   1.909   2.197  0.0787 -0.1365 -0.0944
  142MOL    O8345485   6.264   2.049   2.184 -0.0575  0.3014 -0.4465
  142MOL    C8445486   6.246   2.108   2.057  1.3474  0.0908  0.4183
  142MOL    C8545487   6.203   2.257   2.064 -0.1794  0.3455  0.4789
  142MOL    C8645488   6.267   2.346   1.951  0.5096 -0.1312  0.0953
  142MOL    C8745489   6.371   1.850   2.111  0.3349  0.2155  0.2927
  142MOL    H8845490   6.158   1.884   2.158 -0.2503  0.4732  0.3302
  142MOL    H8945491   6.343   2.094   2.009  0.6376 -0.0012 -1.0023
  142MOL    H9045492   6.175   2.041   2.009 -0.6344  1.1025  1.8716
  142MOL    H9145493   6.234   2.294   2.161  1.8829  0.0011 -0.0392
  142MOL    H9245494   6.094   2.259   2.069 -0.2190  0.6890 -0.4683
  142MOL    H9345495   6.374   2.339   1.934  0.6691  0.1177  0.9389
  142MOL    H9445496   6.250   2.451   1.977 -0.0236 -0.2925  0.4031
  142MOL    H9545497   6.211   2.333   1.858  0.7638  1.8239 -0.3614
  142MOL    H9645498   6.342   1.866   2.007 -3.6217 -2.2040  0.9007
  142MOL    H9745499   6.457   1.913   2.132 -0.4718  1.3296  0.3091
  142MOL    C9845500   6.398   1.705   2.128  0.5083 -0.7057 -0.4594
  142MOL    O9945501   6.283   1.634   2.073 -0.3786 -0.2347 -0.4660
  142MOL   C10045502   6.256   1.502   2.124  0.3860 -0.0545  0.1131
  142MOL   C10145503   6.113   1.464   2.090 -0.3342  0.9694 -0.6693
  142MOL   C10245504   6.011   1.549   2.171  0.6501  1.0847  0.1293
  142MOL   C10345505   6.507   1.660   2.035 -0.2370 -0.2003 -0.6774
  142MOL   H10445506   6.408   1.678   2.233  0.1984  1.6882  0.2307
  142MOL   H10545507   6.331   1.433   2.086 -1.5204 -1.2618 -1.5877
  142MOL   H10645508   6.241   1.499   2.232 -0.7225 -0.3314 -0.0384
  142MOL   H10745509   6.087   1.359   2.102  0.9256  0.6227 -0.9518
  142MOL   H10845510   6.109   1.476   1.981  0.7951 -1.9146 -1.0718
  142MOL   H10945511   5.995   1.515   2.274 -1.1652 -0.4605 -0.6452
  142MOL   H11045512   5.913   1.546   2.124  1.4130 -1.2672 -1.3916
  142MOL   H11145513   6.049   1.651   2.172 -0.2522  1.4284 -0.9508
  142MOL   H11245514   6.509   1.553   2.055 -1.2312  0.0290  0.7632
  142MOL   H11345515   6.476   1.683   1.933 -1.2162  2.8178  0.2557
  142MOL   C11445516   6.654   1.710   2.053  0.0225  0.8560  0.1003
  142MOL   O11545517   6.701   1.656   2.178  0.2950 -0.1349 -0.1743
  142MOL   C11645518   6.755   1.756   2.270  0.2365 -0.1766 -0.0235
  142MOL   C11745519   6.803   1.684   2.399  0.8810 -1.1303  0.0805
  142MOL   C11845520   6.899   1.566   2.389  0.4739 -0.3686 -0.3481
  142MOL   C11945521   6.756   1.660   1.946 -0.4678  0.1181  0.5512
  142MOL   H12045522   6.653   1.819   2.053  3.0571  0.9218  0.4488
  142MOL   H12145523   6.840   1.812   2.230  0.5638 -0.2205  0.6099
  142MOL   H12245524   6.679   1.830   2.295 -1.2509 -2.1893  1.6149
  142MOL   H12345525   6.713   1.651   2.451  0.5650 -0.6012 -0.1285
  142MOL   H12445526   6.841   1.757   2.470 -1.1987 -1.8943  2.0333
  142MOL   H12545527   6.870   1.493   2.313 -0.9503 -1.5825  1.3038
  142MOL   H12645528   6.916   1.517   2.485  0.3429  0.7662  0.2708
  142MOL   H12745529   7.000   1.593   2.360 -0.3150  1.2283 -1.7013
  142MOL   H12845530   6.852   1.646   1.995  0.3934  1.2675 -0.7585
  142MOL   H12945531   6.727   1.570   1.891  2.4402 -2.1785  2.6054
  142MOL   C13045532   6.797   1.767   1.837 -0.9714 -0.1253 -0.2230
  142MOL   O13145533   6.836   1.882   1.905  0.0068  0.1467 -0.0398
  142MOL   C13245534   6.786   2.000   1.836  0.1691  0.0021 -0.4132
  142MOL   C13345535   6.868   2.125   1.881  0.3661  0.0223  0.1149
  142MOL   C13445536   7.003   2.133   1.808  0.1918 -0.1737  0.1970
  142MOL   C13545537   6.907   1.722   1.739  0.4734  0.7477  0.2492
  142MOL   H13645538   6.706   1.783   1.780 -1.1452 -1.2883 -0.2874
  142MOL   H13745539   6.787   1.988   1.727  0.7544 -0.4902 -0.3582
  142MOL   H13845540   6.684   2.009   1.872  0.6691 -0.7654  1.2298
  142MOL   H13945541   6.881   2.130   1.990 -0.1606 -2.2307  0.3116
  142MOL   H14045542   6.814   2.216   1.857 -1.0034 -1.0337 -0.9254
  142MOL   H14145543   7.067   2.217   1.837  1.6520 -1.7704  1.7156
  142MOL   H14245544   6.987   2.143   1.701 -1.0272 -0.9223  0.3044
  142MOL   H14345545   7.065   2.043   1.816 -1.3346 -1.4563 -1.9782
  142MOL   H14445546   6.943   1.805   1.677  2.6199 -1.3659 -1.4050
  142MOL   H14545547   6.988   1.671   1.791  1.2210 -0.2805 -1.8660
  142MOL   C14645548   6.861   1.615   1.641 -0.3277  0.5174 -0.3012
  142MOL   O14745549   6.761   1.678   1.555  0.2641 -0.3223  0.0233
  142MOL   C14845550   6.654   1.595   1.518 -0.1856  0.0127  0.1197
  142MOL   C14945551   6.575   1.678   1.411  0.3964 -0.0221  0.4584
  142MOL   C15045552   6.507   1.797   1.487  0.1419  0.4777 -0.2599
  142MOL   C15145553   6.981   1.564   1.560 -0.8322 -0.1312  0.5616
  142MOL   H15245554   6.819   1.538   1.706  1.4660  0.9960  1.4716
  142MOL   H15345555   6.695   1.499   1.485  0.6006  0.2543  0.3942
  142MOL   H15445556   6.604   1.586   1.615  0.0745  1.5914  0.4160
  142MOL   H15545557   6.498   1.610   1.374  0.0990  0.1266  0.7997
  142MOL   H15645558   6.643   1.692   1.327  0.6212 -2.8159  0.1260
  142MOL   H15745559   6.440   1.846   1.417 -0.5617 -1.7568 -1.2029
  142MOL   H15845560   6.582   1.864   1.528  3.2228 -0.2309 -4.3950
  142MOL   H15945561   6.449   1.756   1.569  2.5054  0.6390  1.5514
  142MOL   H16045562   6.937   1.487   1.498 -4.0372  2.0554 -0.0005
  142MOL   H16145563   7.007   1.637   1.484 -4.0299  0.2869 -0.1804
  142MOL   C16245564   7.111   1.512   1.637  0.5175  0.3885 -0.2251
  142MOL   O16345565   7.052   1.401   1.716 -0.5506 -0.0709  0.3273
  142MOL   C16445566   7.099   1.387   1.850  0.5429  0.1668  0.3174
  142MOL   C16545567   7.030   1.274   1.921  0.3058  0.0171  0.8700
  142MOL   C16645568   6.881   1.303   1.929 -0.5198  0.7968 -0.4693
  142MOL   C16745569   7.225   1.454   1.549  0.3370 -0.3655  0.5804
  142MOL   H16845570   7.154   1.582   1.709  2.0548  0.0370 -0.7798
  142MOL   H16945571   7.207   1.394   1.867  0.5317 -0.5713  0.6837
  142MOL   H17045572   7.059   1.481   1.888  1.9003  0.7471  0.3312
  142MOL   H17145573   7.074   1.264   2.020 -1.1281  1.6670  1.7024
  142MOL   H17245574   7.059   1.178   1.877  2.7790  0.8262  0.6646
  142MOL   H17345575   6.842   1.349   1.838  0.1657  1.1233 -0.6017
  142MOL   H17445576   6.852   1.370   2.010  0.5190  2.0577 -1.1243
  142MOL   H17545577   6.822   1.215   1.953  0.1180  0.1043 -1.4350
  142MOL   H17645578   7.300   1.411   1.615 -0.0216 -0.8159  0.6994
  142MOL   H17745579   7.198   1.375   1.478  1.0966 -0.6197  0.5763
  142MOL   C17845580   7.298   1.562   1.466 -0.0123  0.2187  1.0254
  142MOL   O17945581   7.325   1.666   1.561  0.3817 -0.1567 -0.0146
  142MOL   C18045582   7.362   1.789   1.511 -0.2632 -0.1553 -0.5612
  142MOL   C18145583   7.421   1.889   1.619 -0.7465  0.3987 -0.0129
  142MOL   C18245584   7.308   1.957   1.700 -0.1248 -0.2242 -0.1242
  142MOL   C18345585   7.431   1.514   1.403  0.6200 -0.0395  0.0677
  142MOL   H18445586   7.233   1.592   1.383 -1.5952 -1.4857  1.6131
  142MOL   H18545587   7.444   1.769   1.442  0.5184 -0.6847  0.5096
  142MOL   H18645588   7.285   1.830   1.445  0.1233 -0.7595 -1.4033
  142MOL   H18745589   7.471   1.970   1.567  1.5921 -1.5046 -0.8246
  142MOL   H18845590   7.491   1.831   1.679 -0.8036  1.0474  0.6848
  142MOL   H18945591   7.326   2.032   1.777 -1.6527 -0.1450  0.1811
  142MOL   H19045592   7.250   1.881   1.752 -0.9164 -0.1702 -0.8993
  142MOL   H19145593   7.237   1.995   1.626  1.4544  0.3615 -1.3737
  142MOL   H19245594   7.474   1.597   1.347 -3.3792  1.1764 -1.3685
  142MOL   H19345595   7.491   1.490   1.490 -0.8183 -0.2945  1.0022
  142MOL   C19445596   7.423   1.396   1.300  0.1689 -0.3718  0.2531
  142MOL   O19545597   7.316   1.443   1.217  0.3394 -0.1698 -0.9625
  142MOL   C19645598   7.236   1.354   1.149 -0.1827  0.0358  1.0098
  142MOL   C19745599   7.089   1.359   1.184  0.7093 -0.1002 -0.2137
  142MOL   C19845600   7.020   1.491   1.160  0.3795 -0.4067  0.5784
  142MOL   C19945601   7.547   1.385   1.214 -0.7304 -0.9105  0.0428
  142MOL   H20045602   7.397   1.301   1.348  0.6883  1.2537  3.8561
  142MOL   H20145603   7.239   1.386   1.044 -0.1254 -0.7256  0.7725
  142MOL   H20245604   7.274   1.253   1.130 -1.7312 -0.2221 -0.9121
  142MOL   H20345605   7.071   1.332   1.289 -0.4141  0.8434 -0.1581
  142MOL   H20445606   7.040   1.280   1.126  1.0670 -2.6069  2.7302
  142MOL   H20545607   6.912   1.479   1.165  0.4960 -1.3406  0.9047
  142MOL   H20645608   7.042   1.525   1.058  1.2299 -0.7182  0.6474
  142MOL   H20745609   7.040   1.571   1.231 -0.3747  1.3716 -1.1589
  142MOL   H20845610   7.522   1.331   1.123 -1.6839 -2.8099  1.4026
  142MOL   H20945611   7.583   1.485   1.190 -0.4739 -0.6880  1.3476
  142MOL   C21045612   7.658   1.319   1.285 -0.0435 -0.1168 -0.5638
  142MOL   O21145613   7.623   1.179   1.284  0.1796  0.0721 -0.3936
  142MOL   C21245614   7.651   1.123   1.409 -0.2295 -0.4854  0.1880
  142MOL   C21345615   7.594   0.977   1.402  0.4598 -0.3296  0.1088
  142MOL   C21445616   7.691   0.875   1.350  0.4843 -0.1764 -0.9446
  142MOL   C21545617   7.789   1.328   1.203  1.0031 -0.5264  0.0656
  142MOL   H21645618   7.672   1.363   1.384  2.3275  0.3167 -1.0605
  142MOL   H21745619   7.758   1.105   1.417 -0.1796 -1.0056 -1.4657
  142MOL   H21845620   7.617   1.182   1.494  1.5362  0.9369 -0.0639
  142MOL   H21945621   7.505   0.975   1.339  0.5896  1.8132 -0.1914
  142MOL   H22045622   7.553   0.945   1.498 -0.5093 -1.7169 -0.7642
  142MOL   H22145623   7.777   0.863   1.415  1.4372  2.3081 -1.6926
  142MOL   H22245624   7.720   0.920   1.255  1.0025  1.3218 -0.0941
  142MOL   H22345625   7.647   0.776   1.337 -2.3605  0.4670  2.7160
  142MOL   H22445626   0.038   1.279   1.263  3.7189  1.0340 -2.0263
  142MOL   H22545627   7.778   1.264   1.116  1.2945 -0.3219 -0.1219
  142MOL   C22645628   0.015   1.472   1.166 -0.3938  0.8066  0.2684
  142MOL   O22745629   7.809   1.555   1.273  0.2005  0.2602 -0.0406
  142MOL   C22845630   7.806   1.698   1.243 -0.0682 -0.2766  0.6945
  142MOL   C22945631   7.793   1.775   1.376  0.2803  0.0119 -0.3074
  142MOL   C23045632   7.767   1.933   1.362  0.6063 -1.1814 -0.1161
  142MOL   C23145633   0.166   1.463   1.137 -0.2155  0.0702 -0.3934
  142MOL   H23245634   7.787   1.505   1.078  0.7504  1.9192 -0.0567
  142MOL   H23345635   0.073   1.731   1.202 -0.5838 -0.9289 -1.1231
  142MOL   H23445636   7.731   1.727   1.169  1.5211 -0.8516 -1.1999
  142MOL   H23545637   0.068   1.778   1.413 -0.2728  0.4366  1.2242
  142MOL   H23645638   7.730   1.731   1.454 -1.9619  1.5314 -1.2051
  142MOL   H23745639   7.782   1.981   1.459  0.3937 -3.7624  1.2423
  142MOL   H23845640   7.663   1.945   1.332 -0.4874  1.2359  4.1823
  142MOL   H23945641   7.821   1.997   1.292 -2.1535  1.9963  0.4871
  142MOL   H24045642   0.198   1.566   1.122  0.5144 -0.2074 -0.7563
  142MOL   H24145643   0.212   1.421   1.226  3.5905 -0.6183 -2.6088
  142MOL   C24245644   0.209   1.387   1.003  0.7612 -1.2252 -0.9123
  142MOL   O24345645   0.235   1.480   0.904  0.1917  0.7753 -0.0718
  142MOL   C24445646   0.125   1.550   0.852  1.0292 -0.4604  0.3728
  142MOL   C24545647   0.158   1.599   0.715 -0.2991 -0.2333 -0.3342
  142MOL   C24645648   0.167   1.488   0.608  0.0108 -0.2994 -0.6682
  142MOL   C24745649   0.335   1.306   1.021  0.3255  0.4269  0.3319
  142MOL   H24845650   0.131   1.316   0.973 -0.7339  0.6402 -1.5601
  142MOL   H24945651   0.032   1.492   0.848  1.2413 -0.7344 -1.1880
  142MOL   H25045652   0.116   1.633   0.921 -1.5469  1.2822 -1.9319
  142MOL   H25145653   0.252   1.654   0.716 -1.1409  1.2587  1.9666
  142MOL   H25245654   0.088   1.680   0.697  0.2786  0.4582  0.4777
  142MOL   H25345655   0.204   1.521   0.511 -0.8305 -0.3765 -1.0210
  142MOL   H25445656   0.066   1.451   0.590  0.0029 -1.1226  0.9247
  142MOL   H25545657   0.231   1.407   0.645 -0.1907 -0.0239  0.3066
  142MOL   H25645658   0.359   1.273   0.919 -2.7546  1.7248 -0.8584
  142MOL   H25745659   0.409   1.377   1.057 -0.3335  0.0763  2.4421
  142MOL   C25845660   0.318   1.182   1.108  1.0016 -0.2661  0.3639
  142MOL   O25945661   0.253   1.097   1.017 -0.3893 -0.7198 -0.0152
  142MOL   C26045662   0.171   0.988   1.069  0.3926 -0.3875 -0.7659
  142MOL   C26145663   0.125   0.897   0.948  0.2859 -0.1144 -0.4098
  142MOL   C26245664   7.822   0.807   0.970  0.1354 -0.0174  0.0585
  142MOL   C26345665   0.452   1.118   1.149 -0.1160 -0.3316 -0.4603
  142MOL   H26445666   0.253   1.198   1.195 -0.1901 -0.2964 -0.5128
  142MOL   H26545667   0.233   0.930   1.137  1.8824  1.3785 -0.6107
  142MOL   H26645668   0.080   1.030   1.112 -0.2503 -2.4553 -0.0323
  142MOL   H26745669   0.210   0.835   0.919  0.0842 -0.9650  0.8023
  142MOL   H26845670   0.108   0.965   0.864 -0.5021 -1.5787 -1.4666
  142MOL   H26945671   7.812   0.730   0.894 -1.3645  0.0626  0.1702
  142MOL   H27045672   7.732   0.868   0.980 -0.3119  0.0130 -3.5516
  142MOL   H27145673   7.825   0.767   1.071  1.4013  0.0505  0.0604
  142MOL   H27245674   0.441   1.018   1.107 -2.4711  0.6417 -2.3213
  142MOL   H27345675   0.540   1.159   1.099  1.5778 -0.8092  2.0815
  142MOL   C27445676   0.486   1.106   1.302  1.1367 -0.2152 -0.2448
  142MOL   O27545677   0.376   1.036   1.366 -0.3090 -0.2248 -0.1726
  142MOL   C27645678   0.331   1.089   1.485 -0.1607 -0.0659 -0.0337
  142MOL   C27745679   0.234   0.992   1.545 -0.4795 -0.8645 -0.4144
  142MOL   C27845680   0.153   1.043   1.667 -0.2235  0.0337 -0.1254
  142MOL   C27945681   0.617   1.045   1.333  0.1844 -0.1456  0.4956
  142MOL   H28045682   0.499   1.197   1.360 -1.3325 -1.4415  2.3609
  142MOL   H28145683   0.412   1.110   1.555  1.2839  1.2228 -2.0299
  142MOL   H28245684   0.273   1.179   1.465 -0.6449 -0.5380 -0.7736
  142MOL   H28345685   0.281   0.901   1.583  2.3148 -0.5451 -2.9381
  142MOL   H28445686   0.170   0.952   1.466  0.7975 -2.5566 -0.6221
  142MOL   H28545687   0.099   0.957   1.706 -1.3129  1.4923  1.6581
  142MOL   H28645688   0.082   1.119   1.635  0.7227  1.4364  1.1063
  142MOL   H28745689   0.225   1.083   1.739 -1.0422  1.6725 -0.1990
  142MOL   H28845690   0.640   1.035   1.439  1.9749 -0.7923  0.0618
  142MOL   H28945691   0.603   0.940   1.303  0.4691  0.4884 -2.0027
  142MOL   C29045692   0.750   1.105   1.263 -0.6791 -0.0223  0.0564
  142MOL   O29145693   0.777   1.226   1.335  0.0871  0.9133 -0.5487
  142MOL   C29245694   0.817   1.335   1.253 -0.6395 -0.1813  0.1548
  142MOL   C29345695   0.825   1.462   1.341 -0.2113 -0.0584 -0.0646
  142MOL   C29445696   0.683   1.513   1.371  0.8671  0.5210 -0.4626
  142MOL   C29545697   0.869   1.007   1.248  0.2609 -0.0087  0.6405
  142MOL   H29645698   0.731   1.118   1.157  0.6771 -1.5732 -0.4002
  142MOL   H29745699   0.909   1.323   1.196 -0.8009  0.3563 -0.2185
  142MOL   H29845700   0.743   1.343   1.173  0.6487  2.9477 -0.8182
  142MOL   H29945701   0.889   1.543   1.304  0.5648  0.4503  2.3279
  142MOL   H30045702   0.867   1.426   1.434  0.0219  1.2358  0.3413
  142MOL   H30145703   0.626   1.446   1.435 -1.2286  0.3609 -2.4095
  142MOL   H30245704   0.628   1.514   1.277 -0.1773  0.1383  0.1427
  142MOL   H30345705   0.686   1.602   1.434  0.5969  0.5889 -0.5434
  142MOL   H30445706   0.848   0.922   1.183 -0.8276  1.2639 -0.7033
  142MOL   H30545707   0.948   1.067   1.202  1.0888  1.1153  3.4077
  142MOL   C30645708   0.934   0.949   1.375  0.2301  0.1382 -0.7465
  142MOL   O30745709   0.842   0.849   1.409 -0.1508  0.1540  0.2808
  142MOL   C30845710   0.840   0.821   1.553 -0.2537 -0.8288 -0.2526
  142MOL   C30945711   0.722   0.730   1.578  0.3415  0.4728  0.5634
  142MOL   C31045712   0.723   0.592   1.517  0.1533  0.6857  1.0441
  142MOL   C31145713   1.065   0.880   1.349  0.4585 -0.7921 -0.2109
  142MOL   H31245714   0.945   1.030   1.447  1.6612 -0.6373 -0.0759
  142MOL   H31345715   0.936   0.778   1.583  0.8623  1.4454 -0.3885
  142MOL   H31445716   0.830   0.919   1.601  0.7123 -1.8228  2.0764
  142MOL   H31545717   0.637   0.788   1.543 -0.5000 -1.3154 -0.4222
  142MOL   H31645718   0.700   0.713   1.684  0.0726 -1.2315  0.2475
  142MOL   H31745719   0.752   0.599   1.412 -2.0378  1.5083  0.4763
  142MOL   H31845720   0.624   0.548   1.520 -0.4647  2.0898  1.4907
  142MOL   H31945721   0.786   0.518   1.566  0.3785  0.9947  1.2225
  142MOL   H32045722   1.131   0.961   1.317  2.4156 -2.0215  0.6031
  142MOL   H32145723   1.102   0.830   1.438  0.4245  1.1771  0.9492
  142MOL   H32245724   1.051   0.806   1.271  1.0820 -0.4360 -0.6714
  143MOL     C145725   6.401   5.217   0.765 -0.1516  0.3378  1.1613
  143MOL     O245726   6.310   5.105   0.769 -0.3808  0.1309  0.0869
  143MOL     C345727   6.190   5.127   0.833  0.3560 -0.2457 -0.2976
  143MOL     C445728   6.107   5.005   0.843  0.3208 -0.7624  0.0218
  143MOL     C545729   5.969   5.040   0.898  0.2771  0.3934 -0.0394
  143MOL     C645730   6.437   5.284   0.895 -0.1648  0.1048 -0.2608
  143MOL     H745731   6.357   5.292   0.698 -0.9123 -0.7825  0.3815
  143MOL     H845732   6.197   5.151   0.939 -4.1142  2.4452 -0.4941
  143MOL     H945733   6.140   5.211   0.784 -1.1792 -0.4124  0.9465
  143MOL    H1045734   6.163   4.937   0.907  2.7937 -0.2706 -1.5244
  143MOL    H1145735   6.102   4.950   0.749  2.2182 -2.2433  0.7507
  143MOL    H1245736   5.905   5.087   0.824  0.2393  0.5594  0.0973
  143MOL    H1345737   5.969   5.109   0.983  2.1421  1.1951 -0.6558
  143MOL    H1445738   5.920   4.947   0.925  1.7163 -0.6356 -0.8993
  143MOL    H1545739   6.469   5.382   0.862  1.4409  0.1188  1.2794
  143MOL    H1645740   6.345   5.303   0.951 -0.7842 -1.5110 -0.6980
  143MOL    H1745741   6.494   5.184   0.719 -1.6964 -0.9126 -1.1455
  143MOL    C1845742   6.551   5.221   0.981 -0.1803 -0.0224 -0.3739
  143MOL    O1945743   6.564   5.315   1.091  0.6140 -0.4677  0.3781
  143MOL    C2045744   6.643   5.430   1.070 -0.0702 -0.5503 -0.1518
  143MOL    C2145745   6.711   5.449   1.207 -0.2440 -0.2884  0.2364
  143MOL    C2245746   6.615   5.478   1.328  0.0692  0.4266 -0.3972
  143MOL    C2345747   6.511   5.084   1.041 -0.7396  0.2536  0.1153
  143MOL    H2445748   6.643   5.210   0.923  0.4952  1.7161  0.3397
  143MOL    H2545749   6.733   5.411   1.011  0.5996  1.1332  0.2977
  143MOL    H2645750   6.598   5.526   1.042 -0.5479 -0.6654  0.2194
  143MOL    H2745751   6.782   5.531   1.192 -0.7914  0.0378 -0.6148
  143MOL    H2845752   6.758   5.357   1.240  2.1035  0.3836 -1.0949
  143MOL    H2945753   6.573   5.579   1.327 -0.0975  0.3560 -0.5863
  143MOL    H3045754   6.663   5.457   1.424  1.3103  1.2487 -0.8296
  143MOL    H3145755   6.533   5.406   1.318 -0.2581  0.9183 -1.3042
  143MOL    H3245756   6.419   5.094   1.099  0.6676 -0.9395  2.6516
  143MOL    H3345757   6.501   5.020   0.954  0.3599  1.8113 -1.1787
  143MOL    C3445758   6.612   5.017   1.146  0.1511  0.1667  0.0404
  143MOL    O3545759   6.566   4.884   1.179 -0.0713  0.2383 -0.4010
  143MOL    C3645760   6.475   4.899   1.287 -0.0657 -0.2398  0.0752
  143MOL    C3745761   6.362   4.787   1.286 -0.8775 -0.0671 -0.2937
  143MOL    C3845762   6.238   4.836   1.364  0.1180 -0.3056  1.0462
  143MOL    C3945763   6.759   5.029   1.106  0.3293 -0.2461 -0.1328
  143MOL    H4045764   6.617   5.083   1.232  2.6282  0.9517 -0.6678
  143MOL    H4145765   6.536   4.897   1.378 -2.6481 -1.5547  1.8283
  143MOL    H4245766   6.424   4.995   1.294 -2.6950 -1.7310  2.3901
  143MOL    H4345767   6.397   4.692   1.327  0.9507  0.3288 -0.9173
  143MOL    H4445768   6.333   4.767   1.183  1.3528  0.5169 -1.0644
  143MOL    H4545769   6.254   4.826   1.472 -3.7719  0.9561  1.8259
  143MOL    H4645770   6.155   4.770   1.342 -0.6129  0.0558  2.5917
  143MOL    H4745771   6.208   4.936   1.330 -1.0666 -0.8940  0.3285
  143MOL    H4845772   6.770   4.973   1.013 -0.4688  0.3131 -0.5706
  143MOL    H4945773   6.781   5.135   1.092  3.3799 -0.6915  0.8590
  143MOL    C5045774   6.866   4.979   1.212  0.0606  0.4520 -0.0649
  143MOL    O5145775   6.995   4.975   1.164 -0.3337 -0.2713  0.1248
  143MOL    C5245776   7.050   4.862   1.118 -0.5658  0.4783 -0.4043
  143MOL    C5345777   7.182   4.908   1.059  0.0060  0.0045 -0.4656
  143MOL    C5445778   7.280   4.959   1.170 -0.0636  0.2655  0.1456
  143MOL    C5545779   6.867   5.069   1.341 -0.3991  0.1012  0.5272
  143MOL    H5645780   6.841   4.877   1.243  1.3608 -0.4738 -1.9918
  143MOL    H5745781   7.063   4.794   1.203 -1.9058 -2.6315 -2.5814
  143MOL    H5845782   6.984   4.809   1.050  2.0274 -1.9779 -1.1002
  143MOL    H5945783   7.169   4.990   0.989 -0.5438 -1.5470 -2.2153
  143MOL    H6045784   7.243   4.838   1.003 -0.0097  0.9200 -1.6434
  143MOL    H6145785   7.311   4.863   1.213  1.3530  0.9209  0.6343
  143MOL    H6245786   7.240   5.019   1.252 -0.9958  0.6921 -0.6254
  143MOL    H6345787   7.367   5.008   1.127 -0.3968  1.5929  0.9511
  143MOL    H6445788   6.874   5.169   1.297  2.4308  0.1732  1.0568
  143MOL    H6545789   6.768   5.058   1.386 -0.3848 -0.7804  0.3529
  143MOL    C6645790   6.973   5.066   1.447  0.0583 -0.3032 -0.4063
  143MOL    O6745791   6.945   5.172   1.543  0.1917 -0.5180 -0.2009
  143MOL    C6845792   6.979   5.300   1.508  0.2242  0.3711 -0.1547
  143MOL    C6945793   6.957   5.381   1.630 -0.1903  0.1800 -0.0784
  143MOL    C7045794   7.064   5.351   1.738 -0.7903 -0.1486 -0.2647
  143MOL    C7145795   6.985   4.926   1.521 -0.1250  0.0694  0.2507
  143MOL    H7245796   7.074   5.085   1.409  0.5787  0.1052  1.1401
  143MOL    H7345797   7.082   5.316   1.477  0.0736 -1.2696 -1.6164
  143MOL    H7445798   6.914   5.341   1.431 -0.3787 -2.3578 -1.1685
  143MOL    H7545799   6.853   5.369   1.662 -0.0719 -0.7399 -0.0428
  143MOL    H7645800   6.974   5.483   1.596  1.8672 -0.8971 -2.4142
  143MOL    H7745801   7.048   5.414   1.826 -1.9198 -1.9175  0.8075
  143MOL    H7845802   7.167   5.372   1.708 -1.0299  0.0991 -0.9343
  143MOL    H7945803   7.058   5.248   1.772  3.8484 -0.6065 -0.4368
  143MOL    H8045804   6.889   4.896   1.563 -0.7487  1.8961  0.1700
  143MOL    H8145805   7.019   4.855   1.446  0.7247 -0.8654  1.5021
  143MOL    C8245806   7.093   4.913   1.623  0.7984 -1.1845 -0.6553
  143MOL    O8345807   7.080   4.798   1.700  0.6892 -0.4352  0.3144
  143MOL    C8445808   6.990   4.818   1.808  0.5683  0.1694 -0.3557
  143MOL    C8545809   6.958   4.685   1.869  0.3546  0.2942 -0.1195
  143MOL    C8645810   7.072   4.619   1.938  0.4129  0.5834  0.4276
  143MOL    C8745811   7.230   4.904   1.562 -0.1570  0.4750  0.0646
  143MOL    H8845812   7.087   4.997   1.693 -0.9285 -1.0675 -0.9198
  143MOL    H8945813   7.032   4.885   1.883 -2.7057  1.3677  0.4651
  143MOL    H9045814   6.896   4.864   1.777  1.2726 -0.6689 -4.0008
  143MOL    H9145815   6.919   4.606   1.805 -0.8124  0.4564  0.3812
  143MOL    H9245816   6.883   4.708   1.945  1.2399  0.5008  0.7152
  143MOL    H9345817   7.051   4.514   1.960  0.0372  0.5563 -0.0430
  143MOL    H9445818   7.102   4.666   2.031  3.6806  0.3098 -0.4150
  143MOL    H9545819   7.163   4.623   1.879 -0.4379 -1.2618 -1.0729
  143MOL    H9645820   7.225   4.826   1.487 -1.5473 -0.8473  1.4906
  143MOL    H9745821   7.257   4.984   1.493  0.8377  0.4323  0.3923
  143MOL    C9845822   7.352   4.872   1.657 -0.5433 -0.3695  0.4545
  143MOL    O9945823   7.467   4.873   1.566  0.3046  0.0550  0.9058
  143MOL   C10045824   7.502   4.752   1.511 -0.0868  0.0247  0.4395
  143MOL   C10145825   7.657   4.749   1.471  0.1646  0.7401 -0.4140
  143MOL   C10245826   7.758   4.771   1.587  0.2784  0.6944  0.1798
  143MOL   C10345827   7.381   4.979   1.775 -0.7081 -0.5816  0.4058
  143MOL   H10445828   7.338   4.775   1.707  0.0696  0.5294  2.4337
  143MOL   H10545829   7.483   4.665   1.574  1.0641 -1.0173 -0.6407
  143MOL   H10645830   7.446   4.742   1.418 -0.8109  0.4139  0.8271
  143MOL   H10745831   7.691   4.812   1.388  1.9681 -0.3427 -0.5249
  143MOL   H10845832   7.677   4.647   1.439  1.2000 -0.5188  4.0059
  143MOL   H10945833   7.732   4.856   1.649  0.4621  1.8109 -1.2534
  143MOL   H11045834   0.029   4.794   1.546  0.6314 -0.1840  0.5064
  143MOL   H11145835   7.754   4.695   1.666  1.2578 -1.0781 -1.4334
  143MOL   H11245836   7.439   5.057   1.727 -1.5091  0.6993  1.5074
  143MOL   H11345837   7.291   5.025   1.815  0.8515  0.0109  3.3666
  143MOL   C11445838   7.467   4.914   1.891 -0.6246  0.0068 -0.1496
  143MOL   O11545839   7.540   5.019   1.959 -0.6746 -0.7702  0.2707
  143MOL   C11645840   7.658   5.068   1.895  0.7110  0.2158  0.7025
  143MOL   C11745841   7.784   4.981   1.920  0.6571 -0.1865  0.1548
  143MOL   C11845842   0.073   5.027   1.836 -0.1681 -0.0219 -0.6010
  143MOL   C11945843   7.388   4.838   1.995  0.1608  0.2907 -0.2926
  143MOL   H12045844   7.540   4.855   1.837 -0.0574  0.1915  0.4084
  143MOL   H12145845   7.642   5.096   1.791  0.3438 -1.8616  0.1749
  143MOL   H12245846   7.665   5.168   1.938  0.7869  0.2713  0.5595
  143MOL   H12345847   7.758   4.882   1.884  0.2791  0.0575 -0.2508
  143MOL   H12445848   7.805   4.965   2.026 -1.5646  1.9931  0.9791
  143MOL   H12545849   0.163   4.967   1.850 -0.1321  0.1429 -0.1296
  143MOL   H12645850   0.115   5.125   1.860  0.3599 -0.4790  0.4116
  143MOL   H12745851   0.039   5.029   1.733 -0.7412 -1.3462 -0.4552
  143MOL   H12845852   7.347   4.908   2.067  0.1845  1.1237 -1.0784
  143MOL   H12945853   7.307   4.791   1.941  1.1496 -2.4624  0.5338
  143MOL   C13045854   7.446   4.717   2.063 -0.3342 -0.2041  0.6249
  143MOL   O13145855   7.470   4.628   1.954 -0.0147  0.1355 -0.2845
  143MOL   C13245856   7.464   4.489   1.978  0.3217  0.3547 -0.0124
  143MOL   C13345857   7.498   4.415   1.851 -0.0129  0.3377  0.3249
  143MOL   C13445858   7.482   4.263   1.853 -0.5032  0.0080  0.2382
  143MOL   C13545859   7.573   4.749   2.148  0.0788 -0.1043 -0.1551
  143MOL   H13645860   7.375   4.674   2.133  0.5226 -1.1701  0.9145
  143MOL   H13745861   7.534   4.460   2.056  0.7029  1.5205  0.0817
  143MOL   H13845862   7.363   4.460   2.008 -0.1732  0.0090 -1.9559
  143MOL   H13945863   7.604   4.430   1.831 -0.1424  0.9125  0.0511
  143MOL   H14045864   7.442   4.450   1.764  0.9337 -1.8242 -1.2026
  143MOL   H14145865   7.538   4.230   1.940  0.6198 -1.9427 -1.1557
  143MOL   H14245866   7.529   4.216   1.766 -0.3668  0.1777  0.2197
  143MOL   H14345867   7.382   4.222   1.868 -1.5324  2.8235  1.3141
  143MOL   H14445868   7.593   4.654   2.198  5.6734  0.5199 -0.9194
  143MOL   H14545869   7.655   4.762   2.077  0.8181  0.7924  0.8375
  143MOL   C14645870   7.561   4.855   2.260  0.7602 -0.0503 -0.1381
  143MOL   O14745871   7.476   4.810   2.365 -0.1492  0.5196  0.0152
  143MOL   C14845872   7.376   4.891   2.390 -0.1394 -0.2019  0.9549
  143MOL   C14945873   7.315   4.855   2.523 -0.6379 -0.2462  0.3852
  143MOL   C15045874   7.407   4.879   2.645  0.1741  0.6366 -0.1917
  143MOL   C15145875   7.695   4.895   2.315 -0.4222  0.7743  0.2822
  143MOL   H15245876   7.527   4.946   2.209 -0.3928 -0.2146  0.3226
  143MOL   H15345877   7.408   4.996   2.392 -1.3946  0.2580 -1.3912
  143MOL   H15445878   7.312   4.895   2.302  0.2058  0.3198  0.7236
  143MOL   H15545879   7.292   4.749   2.518 -0.8531 -0.2265  0.9727
  143MOL   H15645880   7.221   4.908   2.539  1.0490  2.2752  2.4501
  143MOL   H15745881   7.464   4.971   2.653  0.1821  0.4354  2.4500
  143MOL   H15845882   7.479   4.798   2.657 -0.5371  0.0345  0.0962
  143MOL   H15945883   7.355   4.862   2.739  0.0777 -2.0270 -0.6764
  143MOL   H16045884   7.741   4.808   2.362  0.2328 -0.1203 -1.9465
  143MOL   H16145885   7.763   4.922   2.234  1.2573 -1.7291  0.7884
  143MOL   C16245886   7.696   5.021   2.404 -0.3035  0.8148 -0.1347
  143MOL   O16345887   7.825   5.019   2.461 -0.1279  0.1530 -0.1652
  143MOL   C16445888   7.825   4.948   2.592  0.0696 -0.6165 -0.5255
  143MOL   C16545889   0.144   4.931   2.618  0.1649 -0.3676 -0.5243
  143MOL   C16645890   0.230   5.054   2.659 -0.0604  0.0199  0.0178
  143MOL   C16745891   7.697   5.140   2.310 -0.1376 -0.1402 -0.5013
  143MOL   H16845892   7.609   5.019   2.470  0.9179  1.8231  1.5467
  143MOL   H16945893   7.766   5.000   2.668  1.0618 -1.2086  0.6497
  143MOL   H17045894   7.789   4.846   2.583 -3.1713  0.4765 -0.8548
  143MOL   H17145895   0.185   4.883   2.530  2.9449 -1.6000  1.3788
  143MOL   H17245896   0.173   4.860   2.695 -0.6369  0.4870  0.5899
  143MOL   H17345897   0.336   5.046   2.637  0.0410 -0.9387  0.8421
  143MOL   H17445898   0.235   5.073   2.766  0.1121 -3.8342  0.7512
  143MOL   H17545899   0.185   5.146   2.620  2.7157  2.8121  3.1072
  143MOL   H17645900   7.783   5.131   2.244 -0.7464 -1.4343 -1.1417
  143MOL   H17745901   7.610   5.141   2.243  0.2364 -0.4291 -0.9905
  143MOL   C17845902   7.692   5.279   2.388 -0.4934 -0.2001  0.8455
  143MOL   O17945903   7.717   5.385   2.286  0.3169 -0.6099 -0.2063
  143MOL   C18045904   0.017   5.433   2.269  0.1375 -0.0344  0.7580
  143MOL   C18145905   0.039   5.484   2.120 -0.4769  0.2283 -0.4771
  143MOL   C18245906   0.003   5.378   2.014  0.2659  0.2932  0.8628
  143MOL   C18345907   7.540   5.297   2.430 -1.2090 -0.1108  0.0651
  143MOL   H18445908   7.765   5.290   2.468  2.2688 -2.7529 -1.2296
  143MOL   H18545909   0.049   5.519   2.328  0.9092 -1.0377  1.8300
  143MOL   H18645910   0.084   5.351   2.296  1.6565  0.4950 -1.2892
  143MOL   H18745911   0.145   5.509   2.116 -0.5949  0.7649 -0.3180
  143MOL   H18845912   7.808   5.574   2.103  0.7771  1.0373 -0.5817
  143MOL   H18945913   0.060   5.286   2.023  2.1988  1.5015  1.3827
  143MOL   H19045914   0.024   5.415   1.914 -0.0510 -1.6863  0.0408
  143MOL   H19145915   7.724   5.357   2.019  0.1196  0.9760  0.6913
  143MOL   H19245916   7.472   5.311   2.346 -0.9108 -1.9343 -0.4842
  143MOL   H19345917   7.519   5.214   2.497  1.9236 -1.2704 -0.3221
  143MOL   C19445918   7.500   5.421   2.514 -0.3391 -0.1062 -0.0756
  143MOL   O19545919   7.361   5.401   2.543 -0.6124 -0.0126  0.4077
  143MOL   C19645920   7.269   5.505   2.514 -0.2926  0.2889  0.2906
  143MOL   C19745921   7.126   5.465   2.552  0.2610 -0.1137 -0.1075
  143MOL   C19845922   7.110   5.452   2.703  0.1576 -0.1715 -0.3639
  143MOL   C19945923   7.554   5.431   2.655 -0.3798  0.4913  0.3447
  143MOL   H20045924   7.521   5.513   2.459  2.5837  0.0920  1.2619
  143MOL   H20145925   7.301   5.592   2.572 -0.8811  0.7527 -0.0725
  143MOL   H20245926   7.259   5.522   2.407 -1.4138  3.6128  0.8400
  143MOL   H20345927   7.098   5.371   2.504  0.5869 -0.6045  0.6458
  143MOL   H20445928   7.054   5.538   2.515  0.5848 -1.0007 -2.5577
  143MOL   H20545929   7.088   5.547   2.752 -1.3096  0.5260 -2.3007
  143MOL   H20645930   7.202   5.410   2.744  1.0776  2.0994 -0.0368
  143MOL   H20745931   7.029   5.382   2.724 -0.2736  0.3877 -0.1592
  143MOL   H20845932   7.473   5.465   2.719 -1.4757 -1.1656 -0.1154
  143MOL   H20945933   7.577   5.331   2.689  0.9314  0.6348 -0.0667
  143MOL   C21045934   7.681   5.518   2.673 -0.2154 -0.3912  0.0685
  143MOL   O21145935   7.645   5.640   2.743  0.2823 -0.1729 -0.8644
  143MOL   C21245936   7.599   5.747   2.657 -0.0724  0.1726 -0.2455
  143MOL   C21345937   7.562   5.863   2.756  0.0195  1.2833 -0.3568
  143MOL   C21445938   7.654   5.867   2.877 -0.0739  0.1029 -0.1371
  143MOL   C21545939   7.780   5.444   2.774 -0.1122 -0.4734  0.3571
  143MOL   H21645940   7.726   5.535   2.575 -1.3638 -0.4367 -0.4746
  143MOL   H21745941   7.687   5.755   2.594 -0.1797 -2.5816 -0.8191
  143MOL   H21845942   7.517   5.712   2.595 -1.3846  0.2757  1.4051
  143MOL   H21945943   7.456   5.865   2.782 -1.0308 -1.2761 -3.9859
  143MOL   H22045944   7.572   5.952   2.694  0.3437  1.4727 -0.0287
  143MOL   H22145945   7.619   5.788   2.943 -0.1053  1.2812  1.3040
  143MOL   H22245946   7.659   5.966   2.924  0.1795  1.2514 -2.5015
  143MOL   H22345947   7.756   5.844   2.849  0.4895  1.0864  1.0604
  143MOL   H22445948   7.734   5.430   2.872 -0.8724  0.1104  0.0868
  143MOL   H22545949   7.803   5.345   2.736 -0.3625 -0.9347  1.3971
  143MOL   C22645950   0.089   5.527   2.787 -0.0483 -0.2077  0.9147
  143MOL   O22745951   0.129   5.504   2.924 -0.4172 -0.4969 -0.5877
  143MOL   C22845952   0.097   5.615   3.008  0.0091 -0.6826 -0.8444
  143MOL   C22945953   0.127   5.571   3.157  0.8369 -0.0247 -0.1841
  143MOL   C23045954   0.082   5.676   3.254  0.3660 -0.0748  0.3227
  143MOL   C23145955   0.196   5.471   2.686  0.1285 -0.0589 -0.1502
  143MOL   H23245956   0.069   5.633   2.774 -2.2933 -0.5648  1.2006
  143MOL   H23345957   0.168   5.696   2.992 -0.3390 -0.1735  0.1353
  143MOL   H23445958   7.822   5.650   3.010  1.3583  3.6205 -1.5526
  143MOL   H23545959   0.232   5.545   3.172  0.1235 -1.8103  1.9586
  143MOL   H23645960   0.076   5.474   3.165  2.6802 -0.9631  0.4330
  143MOL   H23745961   0.136   5.770   3.248 -0.2136  0.3437  1.5586
  143MOL   H23845962   0.080   5.628   3.352 -0.0009 -0.2867  0.2130
  143MOL   H23945963   7.807   5.702   3.232  0.4858 -0.3426 -0.6118
  143MOL   H24045964   0.235   5.373   2.714  1.0857 -0.7281 -3.6388
  143MOL   H24145965   0.142   5.464   2.592 -1.4402 -0.5916  0.7728
  143MOL   C24245966   0.318   5.565   2.675 -0.6873  0.6593  0.6025
  143MOL   O24345967   0.410   5.541   2.782  0.2199 -0.4493 -0.2839
  143MOL   C24445968   0.466   5.667   2.829 -0.7083  1.2292  0.3846
  143MOL   C24545969   0.591   5.642   2.908  0.2162 -0.7047  0.3193
  143MOL   C24645970   0.573   5.546   3.027  0.0512  0.3011 -0.6785
  143MOL   C24745971   0.404   5.539   2.553  0.1374  0.4250 -0.1028
  143MOL   H24845972   0.280   5.667   2.667 -1.1351  0.6649  2.6230
  143MOL   H24945973   0.482   5.732   2.743 -0.4554  2.4304  1.3307
  143MOL   H25045974   0.402   5.716   2.902 -1.5358 -0.7060  0.9819
  143MOL   H25145975   0.641   5.734   2.938 -1.2027  0.1308  0.1905
  143MOL   H25245976   0.653   5.590   2.834 -0.1903 -0.0364 -0.4947
  143MOL   H25345977   0.507   5.462   3.006  0.6326 -0.0803 -0.9849
  143MOL   H25445978   0.536   5.599   3.115  2.4463 -0.2425  0.7145
  143MOL   H25545979   0.669   5.499   3.050 -0.0251 -0.8036 -2.5632
  143MOL   H25645980   0.497   5.596   2.561  2.3044 -3.0454  0.5548
  143MOL   H25745981   0.428   5.433   2.546  0.0662  0.2901  1.4532
  143MOL   C25845982   0.339   5.572   2.425  0.6068  0.1675 -0.3730
  143MOL   O25945983   0.322   5.722   2.440  0.0218 -0.0879  0.5667
  143MOL   C26045984   0.190   5.772   2.410 -0.1006 -0.7792  0.2662
  143MOL   C26145985   0.181   5.921   2.455 -0.0236 -0.1138 -0.3271
  143MOL   C26245986   0.193   5.940   2.604  0.0077  0.0098 -0.1331
  143MOL   C26345987   0.431   5.563   2.302  0.2113 -0.0536  0.3309
  143MOL   H26445988   0.245   5.518   2.413  1.3550 -0.3085 -4.6379
  143MOL   H26545989   0.178   5.763   2.302 -1.4446 -1.0069  0.4303
  143MOL   H26645990   0.113   5.711   2.457  0.3648 -2.5322 -1.1373
  143MOL   H26745991   0.084   5.967   2.434 -0.5840  0.2391  2.7949
  143MOL   H26845992   0.261   5.970   2.400  2.2169 -1.3561  1.7146
  143MOL   H26945993   0.118   5.889   2.664  0.2170  1.5412  1.4855
  143MOL   H27045994   0.192   6.048   2.621  1.7652 -0.0593  0.5377
  143MOL   H27145995   0.291   5.908   2.640 -0.5140 -1.1376  0.2865
  143MOL   H27245996   0.376   5.592   2.213 -0.6739 -0.5490  0.7087
  143MOL   H27345997   0.511   5.633   2.326  0.0874 -0.2146  1.2235
  143MOL   C27445998   0.495   5.418   2.282  0.1421 -0.2205  0.2734
  143MOL   O27545999   0.410   5.322   2.220 -0.8682  0.3937 -0.2812
  143MOL   C27646000   0.394   5.201   2.297 -0.1765 -0.4861  0.7418
  143MOL   C27746001   0.300   5.112   2.222  1.2113 -0.1872  0.1799
  143MOL   C27846002   0.359   5.069   2.090 -0.3471 -0.0477 -0.3831
  143MOL   C27946003   0.620   5.433   2.192  0.2124 -0.2388  0.0142
  143MOL   H28046004   0.533   5.378   2.376  0.7571 -1.0250 -0.3005
  143MOL   H28146005   0.487   5.150   2.322 -0.2817 -0.1822  1.7977
  143MOL   H28246006   0.344   5.235   2.388 -0.4697  0.0219  0.3911
  143MOL   H28346007   0.211   5.173   2.207  1.7058  0.6639  0.6913
  143MOL   H28446008   0.279   5.021   2.278 -1.1082  1.6614  2.4355
  143MOL   H28546009   0.435   4.995   2.114 -0.2406 -0.4471 -1.8650
  143MOL   H28646010   0.402   5.148   2.027  2.2729  1.0932  2.7172
  143MOL   H28746011   0.286   5.016   2.029  1.1988 -0.4164 -1.9656
  143MOL   H28846012   0.604   5.388   2.094  1.5897  0.7163 -0.6622
  143MOL   H28946013   0.641   5.538   2.174  0.4018 -0.7814 -3.3064
  143MOL   C29046014   0.745   5.381   2.267  0.6401  0.5710 -0.7174
  143MOL   O29146015   0.852   5.360   2.179 -0.0102  0.0723  0.6555
  143MOL   C29246016   0.852   5.238   2.101 -0.1061  0.0948 -0.5869
  143MOL   C29346017   0.954   5.260   1.989 -0.7011  0.8944  0.0430
  143MOL   C29446018   1.089   5.298   2.038 -0.4329  0.4341 -0.3336
  143MOL   C29546019   0.798   5.472   2.385 -0.2224  0.0993  0.3204
  143MOL   H29646020   0.710   5.288   2.312  1.0628  1.3624  1.2831
  143MOL   H29746021   0.871   5.147   2.158 -1.1716  1.8524  2.6719
  143MOL   H29846022   0.750   5.227   2.065  0.1604 -0.3657 -1.2136
  143MOL   H29946023   0.908   5.339   1.930 -1.2595 -1.4195 -2.7046
  143MOL   H30046024   0.960   5.178   1.918 -3.8992  1.3679 -0.8530
  143MOL   H30146025   1.096   5.367   2.122  0.7597  0.0200 -0.0796
  143MOL   H30246026   1.164   5.312   1.960 -1.0954 -3.5721 -1.7615
  143MOL   H30346027   1.125   5.209   2.089  0.1241  1.4162  1.0300
  143MOL   H30446028   0.833   5.559   2.329  0.8592 -0.1662  0.5821
  143MOL   H30546029   0.717   5.516   2.444 -0.8819  1.0636 -1.2604
  143MOL   C30646030   0.896   5.417   2.488  0.0834  0.7615 -0.1419
  143MOL   O30746031   0.850   5.317   2.568 -0.5453 -0.0004 -0.2370
  143MOL   C30846032   0.766   5.369   2.679  0.2792  0.0610 -0.0824
  143MOL   C30946033   0.687   5.257   2.749 -0.0445 -0.3483  0.1059
  143MOL   C31046034   0.579   5.205   2.656 -0.2239 -0.0267  0.3820
  143MOL   C31146035   1.023   5.381   2.413  0.1617 -0.3238 -0.3991
  143MOL   H31246036   0.923   5.499   2.554 -0.2571 -1.0339  2.2703
  143MOL   H31346037   0.831   5.412   2.756 -0.2180 -0.6966  0.7674
  143MOL   H31446038   0.695   5.444   2.643  0.6234  1.0608  1.2759
  143MOL   H31546039   0.634   5.295   2.837 -1.3774 -0.7755 -0.4992
  143MOL   H31646040   0.749   5.172   2.776 -2.0944 -1.5146  1.3048
  143MOL   H31746041   0.619   5.207   2.555 -0.0723 -0.0686  0.4418
  143MOL   H31846042   0.486   5.259   2.677 -0.0568  0.0137  1.0169
  143MOL   H31946043   0.550   5.101   2.665 -0.2900 -0.1835 -1.4694
  143MOL   H32046044   1.117   5.386   2.468 -0.6566 -0.0066  0.9896
  143MOL   H32146045   1.014   5.276   2.383 -1.7001 -0.1584 -0.5111
  143MOL   H32246046   1.043   5.441   2.324 -2.1158  1.5045  0.2728
  144MOL     C146047   1.112   2.857   6.359 -0.1131 -0.5186  0.5560
  144MOL     O246048   1.047   2.911   6.242  0.1095 -0.3455  0.1471
  144MOL     C346049   1.123   2.876   6.125  0.2375 -0.2614  0.3273
  144MOL     C446050   1.054   2.934   5.997 -0.0346 -0.1555  0.4210
  144MOL     C546051   1.012   3.082   6.008  0.5498 -0.0853 -0.0732
  144MOL     C646052   1.031   2.910   6.475 -0.0466  0.2723 -0.0388
  144MOL     H746053   1.217   2.883   6.373 -1.3845  4.5557  1.8115
  144MOL     H846054   1.217   2.932   6.123 -1.4959  2.7214 -0.7376
  144MOL     H946055   1.154   2.772   6.123  1.9837  0.2369  0.2251
  144MOL    H1046056   0.969   2.874   5.963  0.1720  0.6341 -1.5604
  144MOL    H1146057   1.128   2.939   5.917  2.5690 -2.9489  2.5263
  144MOL    H1246058   1.106   3.136   5.995  0.1973  0.4870 -0.2102
  144MOL    H1346059   0.962   3.108   6.101  1.3808  2.1853 -0.2352
  144MOL    H1446060   0.946   3.104   5.925  0.9809 -0.0748 -0.4134
  144MOL    H1546061   1.015   3.018   6.477 -2.3081 -0.0429  1.9022
  144MOL    H1646062   0.934   2.866   6.454 -1.3493  2.9093  0.2649
  144MOL    H1746063   1.100   2.749   6.350 -1.4842 -0.5538  2.2977
  144MOL    C1846064   1.093   2.860   6.609  0.0933  0.1174 -0.1324
  144MOL    O1946065   1.201   2.939   6.643 -0.4894 -0.1963  0.1375
  144MOL    C2046066   1.297   2.878   6.730 -0.5713 -0.2117 -0.1829
  144MOL    C2146067   1.414   2.974   6.759 -0.0683  0.4708 -0.0623
  144MOL    C2246068   1.533   2.891   6.820 -0.1329 -0.5197  0.1413
  144MOL    C2346069   0.986   2.856   6.721 -0.1256 -0.7167 -0.5173
  144MOL    H2446070   1.131   2.759   6.598  2.5851  0.9975  0.0574
  144MOL    H2546071   1.247   2.859   6.825 -0.9519  0.5179 -0.2410
  144MOL    H2646072   1.330   2.781   6.692  3.1336 -0.4556  3.3381
  144MOL    H2746073   1.372   3.034   6.839 -1.8084  1.3790 -1.6046
  144MOL    H2846074   1.448   3.031   6.672  0.1268 -0.6529 -0.7387
  144MOL    H2946075   1.621   2.955   6.823 -0.6762  0.2906 -0.7592
  144MOL    H3046076   1.538   2.802   6.759  0.4780 -1.2757  1.2728
  144MOL    H3146077   1.504   2.861   6.921 -2.0619  0.5759 -0.0566
  144MOL    H3246078   1.031   2.845   6.819 -0.2367  2.8149 -0.0286
  144MOL    H3346079   0.934   2.951   6.730 -2.2247 -2.0496  2.1703
  144MOL    C3446080   0.887   2.730   6.706 -0.3324 -0.3095 -0.6239
  144MOL    O3546081   0.962   2.616   6.690  0.2344 -0.2853 -0.4351
  144MOL    C3646082   0.937   2.543   6.573 -0.1156  0.3729  0.4371
  144MOL    C3746083   1.048   2.445   6.540 -0.6576 -0.3343 -0.1000
  144MOL    C3846084   1.186   2.501   6.529  0.1030  0.6111  0.1350
  144MOL    C3946085   0.798   2.727   6.837 -1.3348  0.2715 -0.0758
  144MOL    H4046086   0.825   2.745   6.618 -2.0837  1.3228  0.8392
  144MOL    H4146087   0.846   2.486   6.593 -0.3915  0.7400  0.2283
  144MOL    H4246088   0.929   2.605   6.484 -3.2559 -1.2606 -0.5232
  144MOL    H4346089   1.010   2.404   6.447  2.4485 -0.0358 -1.5924
  144MOL    H4446090   1.042   2.365   6.614 -2.8450  0.1920  0.3260
  144MOL    H4546091   1.216   2.560   6.615 -0.1062 -0.2950  0.8411
  144MOL    H4646092   1.199   2.555   6.435  0.4054 -0.8202 -0.6619
  144MOL    H4746093   1.264   2.428   6.506 -2.4015 -1.1371 -3.2694
  144MOL    H4846094   0.860   2.745   6.925 -3.8533  0.1537  1.7592
  144MOL    H4946095   0.735   2.816   6.842  0.1226  1.3945 -1.0200
  144MOL    C5046096   0.705   2.610   6.852 -0.1196  0.0610 -0.2140
  144MOL    O5146097   0.671   2.590   6.986 -0.3354  0.5227  0.0985
  144MOL    C5246098   0.622   2.456   7.022 -0.2746 -0.3094 -0.5225
  144MOL    C5346099   0.551   2.466   7.160  0.0898  0.0293 -0.0165
  144MOL    C5446100   0.396   2.485   7.147 -0.5931 -0.0594  0.5843
  144MOL    C5546101   0.575   2.642   6.773 -0.1542 -0.2111 -0.1921
  144MOL    H5646102   0.761   2.522   6.821  0.3801 -0.4253  1.9215
  144MOL    H5746103   0.559   2.410   6.946 -1.7625  0.0248  0.4725
  144MOL    H5846104   0.708   2.391   7.036  0.3922  0.8798  1.0212
  144MOL    H5946105   0.605   2.524   7.235  0.1992 -0.7109  0.4826
  144MOL    H6046106   0.553   2.362   7.193 -0.2159  0.1369  0.3450
  144MOL    H6146107   0.353   2.494   7.247  0.7788  1.2708  1.0705
  144MOL    H6246108   0.363   2.394   7.097 -2.4518  0.2116  1.2785
  144MOL    H6346109   0.378   2.579   7.096  0.6422  0.5502  1.2383
  144MOL    H6446110   0.488   2.632   6.838 -0.5399  0.9234 -0.5292
  144MOL    H6546111   0.577   2.746   6.741 -0.3091 -0.6693 -1.7265
  144MOL    C6646112   0.545   2.546   6.658 -0.5024  0.0848 -0.2326
  144MOL    O6746113   0.530   2.416   6.710  0.4996 -0.4403 -0.1515
  144MOL    C6846114   0.584   2.306   6.638 -0.8773  0.2930 -0.7073
  144MOL    C6946115   0.585   2.180   6.731 -0.0517 -0.0552 -0.2066
  144MOL    C7046116   0.646   2.064   6.646  0.2317 -0.3752 -0.1765
  144MOL    C7146117   0.409   2.575   6.589  0.3511 -0.4799 -0.7471
  144MOL    H7246118   0.630   2.556   6.591 -1.1629  0.3748 -1.0418
  144MOL    H7346119   0.524   2.290   6.548  1.9694  0.4748 -2.6933
  144MOL    H7446120   0.683   2.334   6.601 -0.0184 -1.7141  0.0128
  144MOL    H7546121   0.483   2.158   6.761 -0.2403  0.6978 -0.2912
  144MOL    H7646122   0.648   2.189   6.819 -0.0141  2.1592 -0.4337
  144MOL    H7746123   0.585   2.056   6.556  0.7650 -1.4410 -0.4414
  144MOL    H7846124   0.638   1.968   6.697  1.2561 -0.2151  0.2992
  144MOL    H7946125   0.748   2.083   6.613 -0.2715  0.8926 -1.0668
  144MOL    H8046126   0.390   2.490   6.524  1.0581 -0.1159 -1.4254
  144MOL    H8146127   0.334   2.572   6.668 -0.1052 -0.0576 -1.1603
  144MOL    C8246128   0.409   2.708   6.507 -0.3998 -0.0335  0.4656
  144MOL    O8346129   0.515   2.720   6.414 -0.3830  1.0289 -0.2731
  144MOL    C8446130   0.550   2.617   6.324 -0.1674 -0.2109  0.5245
  144MOL    C8546131   0.684   2.670   6.265 -0.2337  0.6412 -0.5429
  144MOL    C8646132   0.734   2.584   6.146  0.7425  0.0826  0.2932
  144MOL    C8746133   0.272   2.733   6.438  0.2718  0.5267 -0.3195
  144MOL    H8846134   0.435   2.788   6.577 -0.5560  0.5172 -0.0958
  144MOL    H8946135   0.569   2.520   6.371  0.9520 -0.1478  0.2023
  144MOL    H9046136   0.473   2.605   6.248 -1.6032  2.4860  1.4810
  144MOL    H9146137   0.756   2.659   6.347 -3.3525  2.2023  2.5229
  144MOL    H9246138   0.683   2.773   6.231 -2.1927  1.3559  1.5544
  144MOL    H9346139   0.652   2.598   6.076 -0.1550 -0.5174  1.2215
  144MOL    H9446140   0.761   2.479   6.159  0.9933 -0.4515 -3.7209
  144MOL    H9546141   0.822   2.635   6.106 -0.5871  1.5333 -0.8306
  144MOL    H9646142   0.271   2.663   6.355  2.0481 -0.9738  0.8776
  144MOL    H9746143   0.198   2.704   6.512  1.2607  1.1867  0.9531
  144MOL    C9846144   0.247   2.879   6.393  0.7803  0.5059 -0.4476
  144MOL    O9946145   0.229   2.875   6.248  0.1526 -0.0392  0.4840
  144MOL   C10046146   0.320   2.948   6.168 -0.1634 -0.1258 -0.4183
  144MOL   C10146147   0.283   2.925   6.015 -0.6087  0.3894  0.0336
  144MOL   C10246148   0.275   2.785   5.966  0.1363 -0.0110  0.2392
  144MOL   C10346149   0.124   2.949   6.456  0.6950  0.4619 -0.1757
  144MOL   H10446150   0.333   2.942   6.416  1.0362  0.9553 -2.5072
  144MOL   H10546151   0.311   3.053   6.197  0.3060 -0.5363  1.2448
  144MOL   H10646152   0.421   2.917   6.192 -0.5186 -1.0285 -0.0812
  144MOL   H10746153   0.355   2.980   5.954 -0.5988  0.6498  0.2817
  144MOL   H10846154   0.193   2.984   6.006  0.2174  1.7615  0.6845
  144MOL   H10946155   0.325   2.731   6.047  1.6974 -0.1621 -0.8117
  144MOL   H11046156   0.326   2.770   5.871 -0.5971  0.3123 -0.2015
  144MOL   H11146157   0.173   2.749   5.976  1.1714 -2.3079  3.2723
  144MOL   H11246158   0.118   3.047   6.410  1.8275  1.8056  2.4639
  144MOL   H11346159   0.036   2.900   6.412 -0.1826  3.2266 -1.6067
  144MOL   C11446160   0.124   2.988   6.603 -1.0418 -0.0459 -0.5933
  144MOL   O11546161   0.128   2.864   6.687  0.1196 -0.0093  0.6961
  144MOL   C11646162   0.102   2.887   6.821 -0.2563 -0.1661  0.0871
  144MOL   C11746163   0.051   2.765   6.889  0.3095  0.2966  0.0313
  144MOL   C11846164   0.161   2.661   6.915 -0.4285  0.9954  0.0956
  144MOL   C11946165   0.249   3.062   6.656  0.5592  0.2806  0.0519
  144MOL   H12046166   0.035   3.051   6.614  0.0622  1.7493 -1.7269
  144MOL   H12146167   0.188   2.912   6.884 -1.9465  0.1906  2.3369
  144MOL   H12246168   0.016   2.952   6.839  1.3682  1.5911  1.7163
  144MOL   H12346169   7.795   2.723   6.832  0.0654  1.2922 -0.3495
  144MOL   H12446170   0.011   2.792   6.986  0.3364 -1.6359  0.6015
  144MOL   H12546171   0.126   2.566   6.957 -0.6077  0.2247 -1.7625
  144MOL   H12646172   0.248   2.683   6.977 -0.2733 -1.3948  0.7707
  144MOL   H12746173   0.202   2.640   6.817  0.3408 -2.9825  1.1883
  144MOL   H12846174   0.227   3.094   6.758 -2.8102  0.0860 -0.5497
  144MOL   H12946175   0.323   2.984   6.673 -1.1307 -0.9243  2.0485
  144MOL   C13046176   0.303   3.176   6.573  0.5201  0.2246 -0.3760
  144MOL   O13146177   0.194   3.271   6.583 -0.1404  0.5037  0.2873
  144MOL   C13246178   0.189   3.368   6.482  0.4663 -0.1681  0.6850
  144MOL   C13346179   0.089   3.478   6.529  0.7226  0.1356  0.1129
  144MOL   C13446180   0.074   3.599   6.437 -0.0853  0.0629 -0.1402
  144MOL   C13546181   0.424   3.236   6.642  0.0524  0.5378  0.5349
  144MOL   H13646182   0.328   3.144   6.472  1.1404 -1.5598  0.3255
  144MOL   H13746183   0.278   3.425   6.458 -1.6790  2.9998 -0.1016
  144MOL   H13846184   0.143   3.328   6.392 -0.5292 -0.8214  1.4667
  144MOL   H13946185   0.119   3.514   6.627 -1.8673  0.9844  0.6096
  144MOL   H14046186   7.820   3.429   6.532  0.2482  1.1348  1.1904
  144MOL   H14146187   0.016   3.573   6.348 -1.8999 -1.2284  1.3797
  144MOL   H14246188   0.175   3.626   6.404 -0.3265 -1.4590 -2.2213
  144MOL   H14346189   0.013   3.675   6.486 -3.5190 -2.0789 -0.9369
  144MOL   H14446190   0.451   3.333   6.598 -1.3648  0.9160  0.4795
  144MOL   H14546191   0.404   3.268   6.744  0.9287  0.0132  0.8796
  144MOL   C14646192   0.557   3.142   6.639  0.1935  0.6484 -0.0055
  144MOL   O14746193   0.588   3.144   6.498 -0.0632 -1.0395 -0.7589
  144MOL   C14846194   0.686   3.047   6.447  0.1714  0.1292 -0.7794
  144MOL   C14946195   0.708   3.065   6.294 -0.2544 -0.3283 -0.6093
  144MOL   C15046196   0.753   3.211   6.256  0.5370  0.0025  0.8048
  144MOL   C15146197   0.676   3.196   6.716 -0.3172  0.4749 -0.0692
  144MOL   H15246198   0.540   3.036   6.658 -0.5954  0.5223 -1.3034
  144MOL   H15346199   0.773   3.051   6.513 -1.8826 -1.1404  2.1305
  144MOL   H15446200   0.640   2.949   6.461 -0.9171  0.5473 -1.4288
  144MOL   H15546201   0.631   3.018   6.233  0.5587 -2.4403 -0.0628
  144MOL   H15646202   0.792   3.005   6.260  1.4469  1.4922  0.3149
  144MOL   H15746203   0.847   3.227   6.308 -0.5988  1.2089  2.5843
  144MOL   H15846204   0.685   3.287   6.296 -1.5783 -0.1742 -2.2488
  144MOL   H15946205   0.763   3.221   6.148 -0.9535 -2.4875  0.3878
  144MOL   H16046206   0.771   3.144   6.700  0.4342  2.0455 -0.7340
  144MOL   H16146207   0.699   3.298   6.689 -0.5095  0.0606 -1.8339
  144MOL   C16246208   0.670   3.193   6.872 -0.1170 -0.4031  0.3329
  144MOL   O16346209   0.618   3.073   6.924  0.0024 -0.0116  0.2371
  144MOL   C16446210   0.483   3.073   6.966  0.4507 -0.6339 -0.3933
  144MOL   C16546211   0.442   2.928   7.005 -0.5791 -0.1241 -1.0664
  144MOL   C16646212   0.539   2.879   7.119  0.1535 -0.5962  0.4084
  144MOL   C16746213   0.811   3.228   6.936 -0.0704 -0.3078 -0.4315
  144MOL   H16846214   0.606   3.277   6.901  0.8378  0.7413 -0.7850
  144MOL   H16946215   0.480   3.157   7.035  1.0104  1.1771 -2.5114
  144MOL   H17046216   0.425   3.096   6.877 -0.4599  0.9615  0.5819
  144MOL   H17146217   0.453   2.867   6.915  1.4628  0.3608 -1.1530
  144MOL   H17246218   0.340   2.904   7.034 -0.2324 -1.8295 -1.2147
  144MOL   H17346219   0.512   2.774   7.132 -2.4953  0.0990  0.9887
  144MOL   H17446220   0.525   2.933   7.213  1.6844 -0.9285  0.8287
  144MOL   H17546221   0.643   2.893   7.091 -1.0998  2.3438 -3.0997
  144MOL   H17646222   0.811   3.210   7.043  1.4333 -2.4742 -0.7624
  144MOL   H17746223   0.888   3.168   6.887  0.3069 -1.7655  1.8786
  144MOL   C17846224   0.870   3.371   6.930  0.1930  0.3167  0.0844
  144MOL   O17946225   0.781   3.432   7.020  0.3774  0.4111  0.0812
  144MOL   C18046226   0.727   3.548   6.976  0.5607 -0.3626  0.7880
  144MOL   C18146227   0.618   3.602   7.073  0.5708  0.3424 -0.4460
  144MOL   C18246228   0.582   3.505   7.183  0.2308  0.3373  0.4707
  144MOL   C18346229   1.015   3.379   6.988  0.5183 -0.1065 -0.3925
  144MOL   H18446230   0.871   3.419   6.832 -1.2184  0.4233  0.1095
  144MOL   H18546231   0.816   3.611   6.970 -1.1568  2.0695 -0.2213
  144MOL   H18646232   0.685   3.531   6.877  2.7423 -0.3045 -0.1775
  144MOL   H18746233   0.530   3.617   7.011  0.2550 -1.5571 -0.4936
  144MOL   H18846234   0.636   3.699   7.119  1.9260  0.6562 -1.6049
  144MOL   H18946235   0.544   3.409   7.149 -0.4815  0.5558  0.6282
  144MOL   H19046236   0.511   3.550   7.254 -1.6786 -1.8438 -0.0117
  144MOL   H19146237   0.669   3.488   7.246  2.3046  2.9364 -1.5781
  144MOL   H19246238   1.044   3.484   6.992  0.9164 -0.1574 -1.7407
  144MOL   H19346239   1.014   3.351   7.093 -0.0326  0.9464 -0.1002
  144MOL   C19446240   1.120   3.296   6.924 -0.7115  0.1173 -0.2883
  144MOL   O19546241   1.106   3.347   6.791 -0.7031 -0.1849 -0.0236
  144MOL   C19646242   1.150   3.264   6.693 -0.9543  0.8053  0.0360
  144MOL   C19746243   1.108   3.322   6.557  0.4250 -0.3462  0.3910
  144MOL   C19846244   0.957   3.336   6.532  0.8166 -0.3590  0.0752
  144MOL   C19946245   1.264   3.333   6.972 -0.0421  0.2128  0.6274
  144MOL   H20046246   1.087   3.193   6.936  0.9596 -0.3791  0.2226
  144MOL   H20146247   1.257   3.247   6.689 -0.8666  1.4957 -0.7850
  144MOL   H20246248   1.124   3.159   6.705 -2.5679  1.4144  2.1723
  144MOL   H20346249   1.156   3.267   6.476  0.7186 -0.2030  0.4679
  144MOL   H20446250   1.149   3.423   6.556 -0.2491 -0.0497 -3.0717
  144MOL   H20546251   0.908   3.350   6.628  0.7648 -3.9123  0.6479
  144MOL   H20646252   0.913   3.243   6.497  0.2300 -0.5003  1.1572
  144MOL   H20746253   0.929   3.422   6.472  2.1687 -0.0536 -0.1312
  144MOL   H20846254   1.334   3.272   6.914  0.7257  2.4150 -0.7986
  144MOL   H20946255   1.280   3.435   6.936 -1.0716  0.4039  0.7120
  144MOL   C21046256   1.290   3.307   7.119 -0.3306 -0.1590  0.0261
  144MOL   O21146257   1.274   3.166   7.138 -1.0923 -0.9828  0.4668
  144MOL   C21246258   1.199   3.137   7.255 -0.1280  0.2381  0.5960
  144MOL   C21346259   1.189   2.986   7.281  0.6876  0.0030  0.6434
  144MOL   C21446260   1.139   2.963   7.426 -0.0779  0.1191 -0.1647
  144MOL   C21546261   1.428   3.353   7.180  0.2726 -0.4132 -0.2749
  144MOL   H21646262   1.219   3.361   7.182 -0.5556  0.2372 -0.5592
  144MOL   H21746263   1.255   3.173   7.340 -0.3374 -0.8354  1.1940
  144MOL   H21846264   1.098   3.180   7.259  0.1580  1.1201 -0.9332
  144MOL   H21946265   1.287   2.942   7.260  0.5493 -0.4947  1.0280
  144MOL   H22046266   1.117   2.951   7.208 -0.4198  0.7972  1.3437
  144MOL   H22146267   1.054   3.025   7.454  1.0395  2.2410 -1.3788
  144MOL   H22246268   1.224   2.975   7.492  1.9160  1.4317 -2.9028
  144MOL   H22346269   1.108   2.859   7.436 -0.9077  0.4593  0.9672
  144MOL   H22446270   1.444   3.315   7.281 -0.6247 -2.2092 -0.7880
  144MOL   H22546271   1.513   3.310   7.127  0.8742 -0.9599  1.1240
  144MOL   C22646272   1.445   3.511   7.181 -0.5677  0.0007  0.4604
  144MOL   O22746273   1.356   3.563   7.275  0.5741 -0.0207 -0.5842
  144MOL   C22846274   1.269   3.662   7.219 -0.3193  0.2956 -0.5683
  144MOL   C22946275   1.177   3.722   7.324  0.6831  0.5482 -0.6271
  144MOL   C23046276   1.071   3.612   7.367  0.2862 -1.1594 -0.5237
  144MOL   C23146277   1.585   3.546   7.231  0.2062  0.0013 -1.0395
  144MOL   H23246278   1.433   3.538   7.076  0.9198 -2.2969 -0.3335
  144MOL   H23346279   1.338   3.736   7.177  0.6937 -1.2237 -1.6195
  144MOL   H23446280   1.221   3.617   7.133  1.5389  0.3658 -1.6635
  144MOL   H23546281   1.137   3.817   7.289  2.9455  1.7212 -0.1698
  144MOL   H23646282   1.239   3.751   7.409  0.0174 -1.2059  0.4856
  144MOL   H23746283   1.017   3.632   7.460 -0.6786  0.4120 -1.3865
  144MOL   H23846284   1.129   3.522   7.385  0.7800 -0.5189  1.1894
  144MOL   H23946285   0.993   3.596   7.292 -1.4558 -1.5945  1.3258
  144MOL   H24046286   1.588   3.650   7.262 -2.5759 -0.3733  0.5708
  144MOL   H24146287   1.597   3.494   7.326  1.0776  0.6335 -0.7960
  144MOL   C24246288   1.701   3.521   7.131  0.3922  0.1220 -0.5538
  144MOL   O24346289   1.687   3.599   7.019 -0.3119 -0.1886  0.0626
  144MOL   C24446290   1.733   3.548   6.895 -0.0302 -0.3093 -0.2482
  144MOL   C24546291   1.626   3.458   6.828 -0.5314 -0.1821  0.3998
  144MOL   C24646292   1.530   3.547   6.745 -0.5504 -0.3408  0.2515
  144MOL   C24746293   1.843   3.550   7.195  0.1694 -0.1347 -0.7214
  144MOL   H24846294   1.689   3.415   7.106  0.7856 -0.2349  0.7541
  144MOL   H24946295   1.762   3.636   6.837  0.6564 -0.8565 -0.7375
  144MOL   H25046296   1.825   3.494   6.918  0.2563 -0.3110 -1.3892
  144MOL   H25146297   1.569   3.395   6.896 -1.2195  0.4454  0.4140
  144MOL   H25246298   1.676   3.389   6.760 -1.8947  2.3263 -3.2833
  144MOL   H25346299   1.464   3.608   6.806 -1.1907  0.0191 -0.7921
  144MOL   H25446300   1.460   3.489   6.685 -2.1700  1.2072  0.6234
  144MOL   H25546301   1.585   3.610   6.675  1.3827 -0.9779  1.1635
  144MOL   H25646302   1.925   3.553   7.123  1.9795  0.3027  1.3129
  144MOL   H25746303   1.838   3.652   7.233  0.3981 -0.1760 -0.5790
  144MOL   C25846304   1.882   3.458   7.309  0.5378  0.2921  0.0676
  144MOL   O25946305   1.891   3.326   7.262  0.2373 -0.4328 -0.0196
  144MOL   C26046306   1.787   3.243   7.313  0.5096  0.0777  0.3785
  144MOL   C26146307   1.777   3.106   7.241  0.0332 -0.0581 -0.0405
  144MOL   C26246308   1.657   3.028   7.306  0.4605  0.4225 -0.2967
  144MOL   C26346309   2.018   3.503   7.370 -0.7550 -0.3750  0.2599
  144MOL   H26446310   1.803   3.475   7.383 -0.1418 -1.9041 -0.1428
  144MOL   H26546311   1.798   3.227   7.421 -1.4459  2.8983  1.0655
  144MOL   H26646312   1.689   3.288   7.301  0.5826  0.3087  0.6365
  144MOL   H26746313   1.869   3.049   7.247  1.6965  2.4615 -0.8462
  144MOL   H26846314   1.761   3.115   7.134 -2.1623 -0.9359  0.1861
  144MOL   H26946315   1.682   3.018   7.411  0.8626 -0.6355 -0.4888
  144MOL   H27046316   1.643   2.932   7.258 -1.9320  1.3700 -1.5789
  144MOL   H27146317   1.560   3.078   7.310  0.5888  0.5386  1.5643
  144MOL   H27246318   2.052   3.421   7.433 -1.1623 -1.0258 -0.3523
  144MOL   H27346319   2.093   3.507   7.291  3.0829 -0.8525  3.7737
  144MOL   C27446320   2.028   3.622   7.461 -0.3849 -0.0814 -0.4680
  144MOL   O27546321   1.973   3.592   7.584 -0.6441 -0.0236 -0.4612
  144MOL   C27646322   1.838   3.634   7.613 -0.3803  0.5626 -0.1774
  144MOL   C27746323   1.786   3.538   7.715  0.1651  0.1977 -0.3249
  144MOL   C27846324   1.655   3.584   7.778  0.2994 -0.0261 -0.0080
  144MOL   C27946325   2.177   3.662   7.483 -0.6295 -0.4185  0.3340
  144MOL   H28046326   1.969   3.705   7.423  0.1754  0.8811  0.7232
  144MOL   H28146327   1.837   3.736   7.652  3.0838  0.4620  0.3271
  144MOL   H28246328   1.788   3.621   7.517 -2.5496 -0.0551  1.0059
  144MOL   H28346329   1.863   3.529   7.791  0.2749 -0.3847 -0.5048
  144MOL   H28446330   1.781   3.446   7.658  0.3109 -0.3781  0.5750
  144MOL   H28546331   1.659   3.681   7.827 -1.4916 -0.3557  0.8189
  144MOL   H28646332   1.614   3.514   0.023  1.9979 -0.0732  0.9202
  144MOL   H28746333   1.584   3.600   7.696  0.4614  1.5313  0.1355
  144MOL   H28846334   2.230   3.567   7.491  3.0258  1.4047 -1.1733
  144MOL   H28946335   2.229   3.696   7.393  1.3095 -0.5911  1.3528
  144MOL   C29046336   2.204   3.759   7.601  0.9412  0.3524  0.1207
  144MOL   O29146337   2.342   3.777   7.612 -0.4255 -0.3615  0.0162
  144MOL   C29246338   2.408   3.683   7.701  0.6504  0.3502 -0.2201
  144MOL   C29346339   2.527   3.742   7.774  0.3137  0.1350  0.6103
  144MOL   C29446340   2.479   3.836   0.057 -0.1386  0.0585  0.9929
  144MOL   C29546341   2.149   3.904   7.581 -0.3686  0.4989  0.4290
  144MOL   H29646342   2.152   3.724   7.689  2.4022 -0.6589  0.5986
  144MOL   H29746343   2.348   3.633   7.776  0.2657 -0.5083 -1.0899
  144MOL   H29846344   2.449   3.606   7.636  2.4080  0.9332  0.1628
  144MOL   H29946345   2.598   3.792   7.707  0.4241 -2.2849 -1.1591
  144MOL   H30046346   2.582   3.662   7.823 -0.8980 -0.1935  1.4264
  144MOL   H30146347   2.414   3.787   0.130  0.6226 -1.3094  0.7653
  144MOL   H30246348   2.427   3.921   0.013 -0.5591 -0.5551  0.2965
  144MOL   H30346349   2.562   3.872   0.118  0.8072  0.4346 -0.5078
  144MOL   H30446350   2.231   3.950   7.527  0.8276 -1.5123  0.5130
  144MOL   H30546351   2.059   3.910   7.519 -0.7250 -0.4771  0.8371
  144MOL   C30646352   2.117   3.991   7.711 -1.0115 -0.2150 -0.0357
  144MOL   O30746353   2.119   4.131   7.681 -0.3395  0.6792  0.5825
  144MOL   C30846354   2.242   4.191   7.707 -0.1669  0.5839  0.6542
  144MOL   C30946355   2.207   4.341   7.738  0.4442 -0.0609 -0.0826
  144MOL   C31046356   2.077   4.370   7.817 -0.1364 -0.0796  0.6475
  144MOL   C31146357   1.974   3.960   7.761  0.6300 -0.1914 -0.1767
  144MOL   H31246358   2.178   3.956   7.794  1.1513  0.3887 -1.3452
  144MOL   H31346359   2.283   4.146   7.797  0.5090  1.2089  0.6608
  144MOL   H31446360   2.320   4.179   7.632  0.5377  1.0185  1.3114
  144MOL   H31546361   2.188   4.398   7.647  1.1589 -0.2111 -0.3271
  144MOL   H31646362   2.291   4.389   7.787 -0.5056 -0.6799  2.2284
  144MOL   H31746363   1.994   4.331   7.758 -0.0783 -0.4506  0.8110
  144MOL   H31846364   2.062   4.477   0.007 -0.9266  0.3527 -2.3817
  144MOL   H31946365   2.077   4.319   0.085 -0.2386 -2.9988 -0.8724
  144MOL   H32046366   1.962   3.852   7.766  0.6939 -0.1513  1.0985
  144MOL   H32146367   1.968   4.012   0.030 -1.1625 -0.6771 -0.0082
  144MOL   H32246368   1.893   4.002   7.702  0.9906  1.9781  0.7977
  145MOL     C146369   6.523   2.307   1.450  0.3683  0.2424  0.0151
  145MOL     O246370   6.434   2.287   1.559 -0.4243  0.2977 -0.1027
  145MOL     C346371   6.388   2.142   1.564 -0.0496  0.1464 -0.2254
  145MOL     C446372   6.293   2.111   1.677  0.5577 -0.2368 -0.8990
  145MOL     C546373   6.227   1.979   1.676  0.2117  0.5117 -0.1107
  145MOL     C646374   6.586   2.438   1.495  0.3015  0.1498  0.0067
  145MOL     H746375   6.481   2.322   1.351  1.4132  0.8971 -0.3370
  145MOL     H846376   6.341   2.105   1.473  0.7756 -1.0601 -0.1815
  145MOL     H946377   6.480   2.088   1.586  1.4973  0.9187 -4.3296
  145MOL    H1046378   6.211   2.182   1.673 -0.4413 -1.3182  0.1766
  145MOL    H1146379   6.336   2.126   1.775  0.5872 -0.9622 -0.7956
  145MOL    H1246380   6.128   1.969   1.631 -0.2077  0.2706  0.8489
  145MOL    H1346381   6.205   1.952   1.780 -1.8215 -0.0998 -0.6678
  145MOL    H1446382   6.291   1.897   1.643  0.3690  1.3410 -1.9005
  145MOL    H1546383   6.512   2.516   1.515  0.8504  1.3847 -2.5704
  145MOL    H1646384   6.632   2.402   1.587  1.8489 -2.6999 -1.8295
  145MOL    H1746385   6.603   2.233   1.440  0.2088  0.1318 -0.4286
  145MOL    C1846386   6.691   2.499   1.402  0.4895  0.0888  0.0078
  145MOL    O1946387   6.618   2.531   1.285 -0.2793 -0.3252 -0.9531
  145MOL    C2046388   6.684   2.492   1.162 -0.6820 -0.3476 -0.0933
  145MOL    C2146389   6.614   2.558   1.047  0.0349  0.0045  0.0087
  145MOL    C2246390   6.662   2.513   0.912 -0.2112  0.6558 -0.7392
  145MOL    C2346391   6.751   2.630   1.455  0.6646  0.0685  0.0877
  145MOL    H2446392   6.769   2.428   1.374 -0.9897 -1.7138  0.3157
  145MOL    H2546393   6.788   2.522   1.175 -0.7359 -0.0622 -0.3044
  145MOL    H2646394   6.693   2.384   1.159  0.4595 -0.2711  0.6241
  145MOL    H2746395   6.615   2.666   1.061 -1.1968 -0.1207  1.2114
  145MOL    H2846396   6.505   2.551   1.052  0.1113 -0.8760  0.5805
  145MOL    H2946397   6.635   2.577   0.828  0.6117  0.1293 -1.4179
  145MOL    H3046398   6.641   2.408   0.890  2.3218  0.2776 -1.5646
  145MOL    H3146399   6.771   2.506   0.913 -0.1318  1.8215  1.4011
  145MOL    H3246400   6.799   2.689   1.377  0.9652  3.8848  3.0108
  145MOL    H3346401   6.670   2.688   1.498  1.4102  1.5352 -0.4477
  145MOL    C3446402   6.852   2.619   1.566 -0.1138 -1.1175  0.1163
  145MOL    O3546403   6.979   2.592   1.500  0.1967 -0.2708 -0.0037
  145MOL    C3646404   7.034   2.466   1.539  0.1565 -0.4851  0.4775
  145MOL    C3746405   7.183   2.455   1.505  0.2359 -0.2882  0.4132
  145MOL    C3846406   7.233   2.311   1.523 -0.3217  0.6134 -0.1385
  145MOL    C3946407   6.876   2.745   1.649  0.3474 -0.6601  0.0803
  145MOL    H4046408   6.833   2.537   1.636 -0.4670 -0.1986  1.1160
  145MOL    H4146409   7.017   2.447   1.645  0.5916 -0.0421  0.6335
  145MOL    H4246410   6.983   2.382   1.492  0.2808 -0.6843  0.6950
  145MOL    H4346411   7.233   2.527   1.570 -1.5336 -1.4277  3.1286
  145MOL    H4446412   7.209   2.481   1.402  1.8822  0.1926  0.9254
  145MOL    H4546413   7.342   2.306   1.527 -0.4092 -0.7689  1.4212
  145MOL    H4646414   7.197   2.246   1.443  1.2460  1.0278 -1.1867
  145MOL    H4746415   7.203   2.266   1.618 -1.1193  0.4259 -0.4679
  145MOL    H4846416   6.948   2.720   1.727 -0.1445 -1.6460  0.2228
  145MOL    H4946417   6.934   2.811   1.584 -1.9205  1.0991 -0.2093
  145MOL    C5046418   6.752   2.806   1.713 -0.4079 -0.6868 -0.0557
  145MOL    O5146419   6.691   2.694   1.782 -0.4770  0.1506 -0.1977
  145MOL    C5246420   6.561   2.700   1.828 -1.0929  0.0611 -0.4056
  145MOL    C5346421   6.557   2.634   1.968 -0.7851 -0.1507 -0.4239
  145MOL    C5446422   6.633   2.714   2.080  0.6734  0.7305  0.1217
  145MOL    C5546423   6.781   2.918   1.817  0.5827  0.1260  0.9729
  145MOL    H5646424   6.691   2.851   1.635 -0.3723 -1.9753 -0.8348
  145MOL    H5746425   6.544   2.807   1.842 -1.9686 -0.0924 -0.2204
  145MOL    H5846426   6.489   2.660   1.757 -1.2499 -1.0243  0.3540
  145MOL    H5946427   6.609   2.538   1.969  0.1189  0.3398 -0.1803
  145MOL    H6046428   6.454   2.607   1.990 -0.6939 -0.9704 -0.9632
  145MOL    H6146429   6.734   2.737   2.045  0.2635 -0.3513 -1.8238
  145MOL    H6246430   6.635   2.663   2.177  0.2219  0.1219 -0.1866
  145MOL    H6346431   6.576   2.804   2.100  1.2785  0.8302  1.4601
  145MOL    H6446432   6.692   2.937   1.877 -1.6803 -2.1980 -1.5344
  145MOL    H6546433   6.859   2.889   1.888  0.4401  0.3500  1.2243
  145MOL    C6646434   6.803   3.054   1.748 -0.1126  0.1923 -0.2500
  145MOL    O6746435   6.672   3.096   1.703  0.6342 -0.2532  0.1685
  145MOL    C6846436   6.670   3.186   1.599  0.2787  0.1146  0.0253
  145MOL    C6946437   6.524   3.248   1.591 -0.1725 -0.9695  0.4937
  145MOL    C7046438   6.504   3.350   1.706 -0.0197  0.2024  0.6499
  145MOL    C7146439   6.877   3.156   1.833 -0.1862 -0.3649 -0.6673
  145MOL    H7246440   6.863   3.032   1.660 -1.2954  3.5493 -1.9416
  145MOL    H7346441   6.741   3.269   1.604  1.6128 -1.1160  2.3063
  145MOL    H7446442   6.694   3.127   1.511  1.1757  0.3463  0.1089
  145MOL    H7546443   6.449   3.169   1.596  1.2298 -2.4784 -1.4458
  145MOL    H7646444   6.516   3.294   1.493  0.1898 -1.1250  0.3865
  145MOL    H7746445   6.508   3.294   1.799 -0.0784 -0.6896  0.1285
  145MOL    H7846446   6.400   3.384   1.709 -0.0111  0.0666  3.1550
  145MOL    H7946447   6.581   3.427   1.711  1.3381 -1.1021  0.2880
  145MOL    H8046448   6.906   3.240   1.770  0.0547  0.4010  0.4489
  145MOL    H8146449   6.813   3.184   1.917 -0.3146  0.5560 -1.0602
  145MOL    C8246450   7.014   3.110   1.902 -0.1552 -0.0493  0.2714
  145MOL    O8346451   7.093   3.068   1.795  0.3734 -0.6060 -0.1390
  145MOL    C8446452   7.177   2.956   1.820 -0.1523  0.0999  0.1883
  145MOL    C8546453   7.264   2.936   1.697 -0.1517  0.1915  0.2107
  145MOL    C8646454   7.375   2.826   1.704  0.3151 -0.2225  0.3223
  145MOL    C8746455   7.084   3.221   1.982 -0.8891 -0.2099  0.0021
  145MOL    H8846456   6.992   3.034   1.977 -0.1113 -1.0594 -0.7222
  145MOL    H8946457   7.252   2.970   1.898  0.1433 -0.9963  0.1168
  145MOL    H9046458   7.115   2.871   1.849  1.1248 -0.9945 -0.2404
  145MOL    H9146459   7.318   3.029   1.677 -2.0662  1.9471  2.8669
  145MOL    H9246460   7.205   2.920   1.606  2.2660 -0.0381 -1.3591
  145MOL    H9346461   7.434   2.830   1.795 -1.2742 -0.5196  1.3789
  145MOL    H9446462   7.444   2.848   1.622 -0.1553  1.5147  0.3725
  145MOL    H9546463   7.345   2.721   1.699 -0.8609  0.2083 -3.8735
  145MOL    H9646464   7.190   3.203   1.998 -1.0381 -2.2702 -1.1170
  145MOL    H9746465   7.074   3.313   1.925  0.9713  1.7188  2.6776
  145MOL    C9846466   7.021   3.235   2.128 -0.3367 -0.3223  0.0244
  145MOL    O9946467   7.027   3.112   2.194  0.3767 -0.2475 -0.1165
  145MOL   C10046468   6.943   3.103   2.308 -0.4869  0.0710 -0.3833
  145MOL   C10146469   6.919   2.959   2.368 -0.3120  0.2053 -0.1155
  145MOL   C10246470   6.848   2.868   2.266  0.3134 -0.9162 -0.3969
  145MOL   C10346471   7.090   3.335   2.225  0.2662  0.0455  0.9545
  145MOL   H10446472   6.916   3.261   2.113 -0.0382  0.7822 -0.2081
  145MOL   H10546473   6.974   3.157   2.397 -2.3133  0.2862  0.1379
  145MOL   H10646474   6.847   3.149   2.287  0.4968  2.2859 -0.0966
  145MOL   H10746475   6.857   2.965   2.457 -1.7238 -1.3732 -0.9680
  145MOL   H10846476   7.014   2.917   2.402 -0.9430 -1.9780 -0.9586
  145MOL   H10946477   6.892   2.888   2.168 -0.0293 -0.9067 -0.5487
  145MOL   H11046478   6.743   2.897   2.256 -0.4828 -3.1730  1.1214
  145MOL   H11146479   6.858   2.766   2.302  2.2760  0.0445  1.9401
  145MOL   H11246480   7.053   3.331   2.327  4.2593  1.6125  2.5758
  145MOL   H11346481   7.193   3.306   2.244  1.7096  4.1092  0.0122
  145MOL   C11446482   7.084   3.488   2.180  0.4009 -0.3795  0.1412
  145MOL   O11546483   7.150   3.504   2.053  0.0792  0.6456  0.1230
  145MOL   C11646484   7.177   3.634   2.013 -0.4679 -0.0736 -0.5957
  145MOL   C11746485   7.284   3.646   1.909  0.1943  0.4401 -0.0048
  145MOL   C11846486   7.420   3.597   1.954 -0.1823  0.6588  0.6350
  145MOL   C11946487   6.936   3.539   2.173 -0.1665 -0.7813 -0.1389
  145MOL   H12046488   7.131   3.547   2.258  0.5202  0.7067 -0.7433
  145MOL   H12146489   7.082   3.678   1.983 -0.1137  0.3351 -1.1543
  145MOL   H12246490   7.207   3.688   2.103  0.9789 -0.2625 -0.9557
  145MOL   H12346491   7.278   3.754   1.890  1.3052  0.7565  1.3641
  145MOL   H12446492   7.251   3.601   1.815 -0.6302 -0.9179  0.9137
  145MOL   H12546493   7.437   3.652   2.046  4.1563  2.0538 -0.8774
  145MOL   H12646494   7.491   3.620   1.874  0.6166  0.0606  1.1669
  145MOL   H12746495   7.428   3.489   1.966  2.3310  0.8791  1.1288
  145MOL   H12846496   6.926   3.644   2.143 -0.4270 -1.0418 -0.9911
  145MOL   H12946497   6.880   3.489   2.094  0.1425  0.6314 -1.2803
  145MOL   C13046498   6.860   3.548   2.302 -0.6854  0.1315 -0.4269
  145MOL   O13146499   6.923   3.655   2.371 -0.5804 -0.1651  0.4467
  145MOL   C13246500   6.939   3.642   2.513  0.4967  0.4986  0.0093
  145MOL   C13346501   7.087   3.615   2.548 -0.1804  0.9717  0.3318
  145MOL   C13446502   7.170   3.749   2.574 -0.0909 -0.2399 -0.0793
  145MOL   C13546503   6.709   3.582   2.278  0.2303 -0.2418  0.1955
  145MOL   H13646504   6.873   3.452   2.352 -1.7537  1.4159  2.4175
  145MOL   H13746505   6.902   3.730   2.565 -0.9789 -0.4533  0.6020
  145MOL   H13846506   6.877   3.563   2.555  0.0091 -0.5367 -2.5942
  145MOL   H13946507   7.144   3.557   2.475  0.5390  3.3152 -1.0429
  145MOL   H14046508   7.086   3.557   2.640  1.5051 -2.2024 -1.5611
  145MOL   H14146509   7.179   3.809   2.483  0.1891 -0.3760 -0.1419
  145MOL   H14246510   7.274   3.723   2.595 -0.1498 -2.1755 -2.0091
  145MOL   H14346511   7.124   3.804   2.656  0.6107 -2.7815  2.0825
  145MOL   H14446512   6.688   3.677   2.327 -0.7628  0.5327 -1.6816
  145MOL   H14546513   6.691   3.606   2.173 -0.5230 -2.5151 -0.2212
  145MOL   C14646514   6.602   3.479   2.307 -0.1606  0.3003  0.1942
  145MOL   O14746515   6.631   3.351   2.253 -0.0742 -0.2659 -0.2574
  145MOL   C14846516   6.593   3.328   2.120 -0.1829 -0.3074  0.2745
  145MOL   C14946517   6.588   3.176   2.093 -0.6070  0.0730  0.4162
  145MOL   C15046518   6.502   3.112   2.204  0.6698  0.1409  0.1052
  145MOL   C15146519   6.590   3.445   2.463  0.2856  0.1102  0.2444
  145MOL   H15246520   6.510   3.523   2.267 -0.1905  1.7006  1.7241
  145MOL   H15346521   6.491   3.367   2.108 -0.5294 -1.1450  0.4862
  145MOL   H15446522   6.662   3.376   2.051  0.5519  0.2282  1.3806
  145MOL   H15546523   6.689   3.135   2.103 -1.0327 -0.8184  1.2092
  145MOL   H15646524   6.549   3.160   1.993 -0.2942  2.0452 -0.0293
  145MOL   H15746525   6.488   3.006   2.183  2.0155  0.0572 -0.3953
  145MOL   H15846526   6.405   3.162   2.201  0.5183 -0.0984  0.7257
  145MOL   H15946527   6.543   3.123   2.305  2.6203  0.0556 -0.6680
  145MOL   H16046528   6.684   3.398   2.490 -1.1610 -2.5583  0.8284
  145MOL   H16146529   6.577   3.543   2.508 -2.0542  0.0438 -0.2209
  145MOL   C16246530   6.469   3.353   2.498 -0.2447 -0.4849  0.5200
  145MOL   O16346531   6.485   3.348   2.642 -0.0725  0.4280  0.1640
  145MOL   C16446532   6.502   3.217   2.694  0.0343  0.2983 -0.0239
  145MOL   C16546533   6.505   3.229   2.848 -0.0694  0.1260 -0.0417
  145MOL   C16646534   6.383   3.299   2.909 -0.4519  0.2237  0.5059
  145MOL   C16746535   6.331   3.390   2.438 -0.2956 -1.0121  0.9630
  145MOL   H16846536   6.476   3.253   2.454 -1.6238 -0.3327 -0.0623
  145MOL   H16946537   6.412   3.159   2.675 -1.3258  2.4531 -0.3601
  145MOL   H17046538   6.586   3.160   2.655  0.4719  0.8838  0.0502
  145MOL   H17146539   6.593   3.289   2.875 -1.3253  1.6723  0.7162
  145MOL   H17246540   6.517   3.132   2.896  0.9410 -0.3141 -1.1456
  145MOL   H17346541   6.391   3.306   3.018 -0.5164  1.4765  0.4398
  145MOL   H17446542   6.302   3.233   2.879  0.4398 -1.0350  0.8213
  145MOL   H17546543   6.370   3.400   2.869  1.8591 -0.1453 -1.3202
  145MOL   H17646544   6.319   3.497   2.456 -1.4686 -1.4205  2.6605
  145MOL   H17746545   6.326   3.378   2.330  1.2844 -1.4856  0.9246
  145MOL   C17846546   6.214   3.310   2.501  0.4911 -0.6654 -0.0329
  145MOL   O17946547   6.101   3.388   2.475  0.5717 -0.4033  0.0118
  145MOL   C18046548   6.047   3.464   2.584 -0.8713 -0.3728 -0.3640
  145MOL   C18146549   5.945   3.574   2.546 -0.1219 -0.2602  0.1170
  145MOL   C18246550   6.019   3.699   2.501 -0.4791  0.3324  0.2843
  145MOL   C18346551   6.190   3.179   2.429  0.2082  1.2515 -0.1223
  145MOL   H18446552   6.240   3.302   2.607 -1.2638  0.5292  0.5170
  145MOL   H18546553   6.005   3.393   2.654 -2.0475 -0.3877 -1.0680
  145MOL   H18646554   6.135   3.508   2.632 -1.4967  1.1947 -0.6172
  145MOL   H18746555   5.894   3.591   2.641 -1.7502 -0.3276 -0.7444
  145MOL   H18846556   5.876   3.531   2.473 -0.4512  1.3575 -0.5323
  145MOL   H18946557   6.076   3.688   2.409 -1.8631  2.9112 -0.9164
  145MOL   H19046558   6.075   3.736   2.587 -2.5529  0.5959  1.5753
  145MOL   H19146559   5.950   3.777   2.471 -1.3184 -0.0098  1.2882
  145MOL   H19246560   6.165   3.194   2.324  0.6880 -1.1906 -0.6254
  145MOL   H19346561   6.284   3.127   2.409 -0.2372  0.1950  0.4199
  145MOL   C19446562   6.085   3.087   2.509  0.2310 -0.1710  0.0950
  145MOL   O19546563   6.043   2.977   2.435 -0.4424  0.2876 -0.1061
  145MOL   C19646564   5.909   2.981   2.390 -0.0284 -0.6539  0.3372
  145MOL   C19746565   5.878   2.848   2.314 -0.1589  0.1887  0.8842
  145MOL   C19846566   5.731   2.812   2.286 -0.0437  0.7370 -0.3895
  145MOL   C19946567   6.135   3.026   2.638  0.2157 -0.8882 -0.2287
  145MOL   H20046568   5.996   3.142   2.536  0.4847 -0.1412  0.8965
  145MOL   H20146569   5.843   2.990   2.476  0.9055 -0.7015  1.0682
  145MOL   H20246570   5.897   3.071   2.330  4.8524  0.4929  0.8860
  145MOL   H20346571   5.912   2.779   2.391  3.1858  0.4060 -0.3089
  145MOL   H20446572   5.934   2.833   2.222  0.0300  0.2305  0.9939
  145MOL   H20546573   5.680   2.872   2.211  0.5937  1.2971 -0.3780
  145MOL   H20646574   5.673   2.825   2.377  0.0340  0.7804 -0.3458
  145MOL   H20746575   5.717   2.705   2.272 -0.9254  0.3119  3.1461
  145MOL   H20846576   6.178   2.928   2.616 -2.1128 -2.0506  0.1905
  145MOL   H20946577   6.207   3.096   2.680 -0.7483 -2.1553  3.7349
  145MOL   C21046578   6.019   3.001   2.731 -0.9563  0.2022  0.1957
  145MOL   O21146579   6.065   2.913   2.840  0.4371 -0.0070 -0.7867
  145MOL   C21246580   6.058   2.778   2.817 -0.1921  0.6245 -0.1938
  145MOL   C21346581   6.140   2.696   2.924 -0.1653 -0.0291 -0.0450
  145MOL   C21446582   6.173   2.562   2.871 -0.0343 -0.5006  0.0319
  145MOL   C21546583   5.970   3.125   2.808 -0.1330 -0.4092  0.3785
  145MOL   H21646584   5.942   2.950   2.673 -1.2688 -1.6382  2.1775
  145MOL   H21746585   5.953   2.750   2.808 -0.3633  1.4627 -0.8379
  145MOL   H21846586   6.102   2.765   2.718 -3.0476 -1.5602 -1.2133
  145MOL   H21946587   6.079   2.698   3.015 -0.3226 -0.6785 -0.1364
  145MOL   H22046588   6.231   2.752   2.945  0.0483  0.1087 -1.3422
  145MOL   H22146589   6.221   2.564   2.773 -0.0416  0.7553  0.0482
  145MOL   H22246590   6.080   2.506   2.878  0.3702 -1.3281 -1.0787
  145MOL   H22346591   6.246   2.524   2.944 -0.8095 -1.2286  0.4365
  145MOL   H22446592   6.045   3.188   2.857  0.3525 -1.5489  1.1164
  145MOL   H22546593   5.937   3.195   2.732 -0.7125 -0.2874  0.7359
  145MOL   C22646594   5.849   3.106   2.900 -1.3725 -0.2614  0.4020
  145MOL   O22746595   5.812   3.243   2.926 -0.6476 -0.1462  0.4069
  145MOL   C22846596   5.807   3.292   3.060 -0.2709  0.3909 -0.4109
  145MOL   C22946597   5.950   3.337   3.097  0.3294  0.4372  0.4632
  145MOL   C23046598   5.962   3.405   3.237  0.8726 -0.4439  0.1430
  145MOL   C23146599   5.727   3.029   2.848 -0.2758 -0.4000  0.1440
  145MOL   H23246600   5.892   3.054   2.986  0.0454  0.5773  0.2155
  145MOL   H23346601   5.728   3.365   3.077  0.4162  1.0119  0.1095
  145MOL   H23446602   5.786   3.212   3.131 -0.2462  0.4997 -0.2824
  145MOL   H23546603   5.999   3.414   3.037  1.8670  0.5404  1.8149
  145MOL   H23646604   6.018   3.252   3.102  0.0361  0.0538 -1.6030
  145MOL   H23746605   6.060   3.449   3.259 -0.7490  3.3454  0.1816
  145MOL   H23846606   5.939   3.343   3.324 -1.2945 -0.4211 -0.3982
  145MOL   H23946607   5.895   3.491   3.229  0.9667 -0.3469  0.3946
  145MOL   H24046608   5.640   3.095   2.852  0.7856  0.9732  0.6656
  145MOL   H24146609   5.740   2.997   2.744  0.3403  0.8337 -0.1640
  145MOL   C24246610   5.685   2.909   2.936 -0.4185 -0.0544 -0.1921
  145MOL   O24346611   5.698   2.947   3.073  0.0551 -0.5967 -0.2326
  145MOL   C24446612   5.729   2.838   3.156 -0.3062  0.0228 -0.1815
  145MOL   C24546613   5.717   2.888   3.301 -0.3492  0.5324  0.1858
  145MOL   C24646614   5.592   2.974   3.336  0.2816 -0.1486  0.1498
  145MOL   C24746615   5.538   2.859   2.911  0.5021  0.0921 -0.3263
  145MOL   H24846616   5.748   2.822   2.918 -2.3098 -1.4522 -0.2173
  145MOL   H24946617   5.651   2.761   3.149  0.7919 -1.1314  0.0749
  145MOL   H25046618   5.827   2.793   3.139 -0.9370 -1.6092  0.4166
  145MOL   H25146619   5.804   2.950   3.324 -0.6148  0.5681  1.1111
  145MOL   H25246620   5.735   2.799   3.361 -1.2583 -0.1599 -0.5413
  145MOL   H25346621   5.503   2.912   3.343  0.7286 -0.7765  0.3264
  145MOL   H25446622   5.571   3.056   3.266 -0.3675 -1.3626 -1.0968
  145MOL   H25546623   5.622   3.016   3.432  1.4490 -2.2288  0.7218
  145MOL   H25646624   5.523   2.785   2.989  0.5975 -0.4607 -0.8266
  145MOL   H25746625   5.464   2.938   2.923  1.3304  0.4850  2.6512
  145MOL   C25846626   5.521   2.788   2.779  0.5149 -0.3525  0.8072
  145MOL   O25946627   5.605   2.674   2.786 -0.1970  0.3529  0.2349
  145MOL   C26046628   5.673   2.656   2.664  0.5215 -0.0845 -0.2924
  145MOL   C26146629   5.741   2.520   2.662  0.8926 -0.1856  0.1547
  145MOL   C26246630   5.838   2.505   2.541 -0.1295  0.7434 -0.0762
  145MOL   C26346631   5.376   2.742   2.751 -0.1382  0.2294 -0.8086
  145MOL   H26446632   5.561   2.860   2.707 -0.5609 -1.1722 -0.6299
  145MOL   H26546633   5.616   2.672   2.572 -0.1798 -2.0065 -0.2066
  145MOL   H26646634   5.741   2.740   2.647 -0.6712  1.2210  1.2329
  145MOL   H26746635   5.672   2.436   2.654 -1.1080  1.5627 -1.8894
  145MOL   H26846636   5.804   2.500   2.749 -1.7138 -3.6363  1.3650
  145MOL   H26946637   5.916   2.580   2.542  0.6943 -0.0617 -2.1410
  145MOL   H27046638   5.782   2.495   2.447  0.4238 -0.2725 -0.3061
  145MOL   H27146639   5.883   2.411   2.572 -0.6923  0.4532 -0.1301
  145MOL   H27246640   5.343   2.687   2.840  3.7177 -1.7276 -0.4781
  145MOL   H27346641   5.307   2.826   2.746 -0.7131 -0.1109  0.9542
  145MOL   C27446642   5.347   2.664   2.628  0.0081  0.2736  0.7893
  145MOL   O27546643   5.209   2.633   2.629  0.7004 -0.2306 -0.5361
  145MOL   C27646644   5.177   2.498   2.660 -0.2209  0.3223  0.6497
  145MOL   C27746645   5.025   2.456   2.626 -0.5063 -0.0494  0.6403
  145MOL   C27846646   4.986   2.485   2.480  0.1306  0.1539 -0.7676
  145MOL   C27946647   5.362   2.724   2.493  0.3918  0.0762 -0.8953
  145MOL   H28046648   5.399   2.570   2.645  0.2642  0.1659 -0.5632
  145MOL   H28146649   5.232   2.421   2.604  0.8895  3.2559 -2.4818
  145MOL   H28246650   5.190   2.473   2.765  2.2347 -1.1362  0.0494
  145MOL   H28346651   4.956   2.499   2.698 -0.6284 -0.4193  0.7456
  145MOL   H28446652   5.016   2.347   2.627  1.3969 -0.2703 -1.4848
  145MOL   H28546653   4.888   2.438   2.467 -0.4388  0.8858  0.7898
  145MOL   H28646654   5.059   2.451   2.407 -0.5801 -1.3347 -0.8046
  145MOL   H28746655   4.982   2.594   2.477  0.1354  0.1386 -1.4391
  145MOL   H28846656   5.284   2.798   2.478  0.5873  0.5887  0.5596
  145MOL   H28946657   5.451   2.783   2.471 -0.9709  1.9282 -1.5586
  145MOL   C29046658   5.351   2.617   2.389 -0.4355  0.6576  0.4134
  145MOL   O29146659   5.348   2.672   2.262  0.0961 -0.2580  0.2756
  145MOL   C29246660   5.215   2.716   2.210 -0.0617 -0.5137 -0.6060
  145MOL   C29346661   5.227   2.729   2.055 -0.4676  0.2505 -0.2116
  145MOL   C29446662   5.251   2.599   1.983  0.2464  0.6088 -0.8176
  145MOL   C29546663   5.478   2.515   2.390 -0.5813 -0.1181 -0.2831
  145MOL   H29646664   5.262   2.554   2.398 -0.4055  0.6206  0.4430
  145MOL   H29746665   5.141   2.638   2.229 -3.3180  2.5525 -0.1657
  145MOL   H29846666   5.178   2.809   2.253  0.6870 -0.9305  0.9688
  145MOL   H29946667   5.317   2.789   2.040 -0.6961 -0.0222 -2.8819
  145MOL   H30046668   5.138   2.775   2.012 -1.0323 -0.8036 -0.1673
  145MOL   H30146669   5.349   2.562   2.013  1.5664  1.4231 -3.9462
  145MOL   H30246670   5.250   2.611   1.875 -1.2134 -0.5911 -0.9507
  145MOL   H30346671   5.183   2.525   2.025 -2.4408  2.5957 -1.5215
  145MOL   H30446672   5.571   2.571   2.377 -1.1769  1.5071  2.1167
  145MOL   H30546673   5.484   2.462   2.485  1.2203 -0.2873 -0.4736
  145MOL   C30646674   5.466   2.412   2.276 -0.4797  0.0012 -0.0166
  145MOL   O30746675   5.579   2.325   2.287 -0.0144  0.1814  0.4467
  145MOL   C30846676   5.631   2.290   2.161  0.7104 -0.6753 -0.0253
  145MOL   C30946677   5.728   2.172   2.164 -0.9145 -0.2045  0.5770
  145MOL   C31046678   5.866   2.215   2.226  0.5576  0.0646 -0.2880
  145MOL   C31146679   5.339   2.318   2.270  0.0928  0.2936  0.1048
  145MOL   H31246680   5.469   2.467   2.182  0.3797  3.0168  1.7043
  145MOL   H31346681   5.546   2.264   2.098  1.3260 -0.3636 -1.0033
  145MOL   H31446682   5.685   2.373   2.115 -0.2923  0.1285  0.2293
  145MOL   H31546683   5.751   2.140   2.063  1.4417 -2.3481  1.7380
  145MOL   H31646684   5.693   2.085   2.218  0.7174 -1.3493 -0.1725
  145MOL   H31746685   5.842   2.250   2.327 -0.8990 -0.9437 -0.2734
  145MOL   H31846686   5.913   2.296   2.169  0.8295  1.0436  1.2969
  145MOL   H31946687   5.920   2.122   2.241  2.8737  1.2459 -1.0787
  145MOL   H32046688   5.338   2.265   2.365  0.1556  1.2681  0.6614
  145MOL   H32146689   5.244   2.371   2.261 -0.2916 -0.3685  0.2702
  145MOL   H32246690   5.335   2.258   2.179 -0.4159  2.4573 -1.3411
  146MOL     C146691   1.088   5.502   4.654  0.7142 -0.3150  0.1228
  146MOL     O246692   1.207   5.430   4.656  0.5642  0.0766  0.0897
  146MOL     C346693   1.235   5.349   4.541  0.4680  0.0136 -0.0643
  146MOL     C446694   1.364   5.268   4.574 -0.3621 -0.0604 -0.2000
  146MOL     C546695   1.378   5.147   4.484 -0.0954 -0.4984  0.3198
  146MOL     C646696   1.044   5.536   4.803 -0.1668 -0.5731  0.2375
  146MOL     H746697   1.010   5.439   4.610  0.4678 -0.0395  0.1609
  146MOL     H846698   1.157   5.274   4.522  0.5747 -0.5285  1.5832
  146MOL     H946699   1.249   5.410   4.452  0.4448 -2.3253 -1.7238
  146MOL    H1046700   1.373   5.243   4.679 -0.9670  1.5204  0.2517
  146MOL    H1146701   1.439   5.345   4.559 -0.5863  0.7588  2.6645
  146MOL    H1246702   1.295   5.077   4.487  0.7826 -1.5173  1.5341
  146MOL    H1346703   1.464   5.092   4.523 -1.1141 -1.0630  1.8031
  146MOL    H1446704   1.398   5.172   4.380 -0.2515  0.4898  0.5206
  146MOL    H1546705   1.041   5.434   4.843 -1.6643 -0.0228  1.6016
  146MOL    H1646706   1.128   5.575   4.859 -0.2874  1.0226 -0.6698
  146MOL    H1746707   1.102   5.597   4.602  2.1722  0.1189  1.2717
  146MOL    C1846708   0.919   5.627   4.801 -0.4505  0.4238 -0.6874
  146MOL    O1946709   0.952   5.741   4.724  0.3730 -0.0084 -0.5546
  146MOL    C2046710   0.901   5.859   4.769 -0.1130  0.2932  0.1879
  146MOL    C2146711   0.940   5.966   4.660  0.2223 -0.1875 -0.3236
  146MOL    C2246712   0.894   6.105   4.693  0.5613 -0.8350  0.0955
  146MOL    C2346713   0.788   5.564   4.747  0.0994  0.3283  0.3106
  146MOL    H2446714   0.901   5.653   4.906 -0.2715  1.3750 -0.8842
  146MOL    H2546715   0.793   5.854   4.775 -0.0051  0.1876  2.3584
  146MOL    H2646716   0.946   5.885   4.865  1.3849  1.5062 -0.8147
  146MOL    H2746717   0.907   5.937   4.560  4.0087 -1.2694 -1.3197
  146MOL    H2846718   1.048   5.972   4.655  0.3050  0.6652  1.8444
  146MOL    H2946719   0.788   6.114   4.716  0.3168 -2.6708 -0.2177
  146MOL    H3046720   0.917   6.159   4.601 -0.9694  0.7511  0.6287
  146MOL    H3146721   0.958   6.161   4.761  1.3493 -0.1388 -1.1867
  146MOL    H3246722   0.703   5.632   4.746 -0.2473 -0.0662 -2.1939
  146MOL    H3346723   0.806   5.545   4.641 -0.8252  1.5443 -0.0757
  146MOL    C3446724   0.738   5.434   4.816 -0.6593  0.7715  0.0007
  146MOL    O3546725   0.698   5.485   4.946  0.1697  0.3078 -0.4432
  146MOL    C3646726   0.693   5.389   5.048  0.7607  0.0727  0.4465
  146MOL    C3746727   0.824   5.371   5.127 -0.3327 -0.7250 -0.7312
  146MOL    C3846728   0.847   5.499   5.212 -0.3615  0.4659 -0.0677
  146MOL    C3946729   0.629   5.345   4.749  0.0183  0.0170 -0.7644
  146MOL    H4046730   0.827   5.374   4.835 -1.0701 -0.2992 -1.3414
  146MOL    H4146731   0.615   5.405   5.121  0.7357  1.4541  0.1262
  146MOL    H4246732   0.668   5.289   5.011 -0.6075  0.2390  0.9057
  146MOL    H4346733   0.907   5.352   5.060 -1.4576 -0.1188 -2.3282
  146MOL    H4446734   0.828   5.279   5.185  1.3131 -0.6584 -0.7201
  146MOL    H4546735   0.851   5.585   5.146 -0.0260 -0.6775 -1.5780
  146MOL    H4646736   0.946   5.487   5.254  0.3957 -0.6612 -2.1047
  146MOL    H4746737   0.767   5.513   5.285 -1.3538 -1.5019 -0.7118
  146MOL    H4846738   0.574   5.289   4.824  2.4599  1.9937  2.6614
  146MOL    H4946739   0.557   5.421   4.716 -2.1947 -0.0818  3.4153
  146MOL    C5046740   0.678   5.244   4.650 -0.2057  0.4504  0.5804
  146MOL    O5146741   0.754   5.310   4.554 -0.1254 -0.0192  0.2776
  146MOL    C5246742   0.686   5.363   4.440 -0.2573 -0.5922  0.1458
  146MOL    C5346743   0.778   5.409   4.330  0.0441 -0.0482 -0.2800
  146MOL    C5446744   0.876   5.526   4.368  0.2496  0.4322  0.0114
  146MOL    C5546745   0.759   5.136   4.723 -0.1760  0.3929 -0.3136
  146MOL    H5646746   0.589   5.196   4.611 -0.1761  0.3104  0.6858
  146MOL    H5746747   0.620   5.285   4.402 -0.8140 -0.8652  1.6361
  146MOL    H5846748   0.623   5.442   4.481  1.1277  1.2058 -1.1275
  146MOL    H5946749   0.719   5.437   4.242 -2.1228 -1.1340  0.7806
  146MOL    H6046750   0.849   5.339   4.287  0.8928 -0.7530  2.1960
  146MOL    H6146751   0.910   5.581   4.281  1.8437  0.1776  0.4701
  146MOL    H6246752   0.958   5.479   4.423  2.1792  3.0069 -0.5713
  146MOL    H6346753   0.831   5.603   4.432  0.9436  1.2367 -0.4724
  146MOL    H6446754   0.862   5.168   4.741 -0.2845  0.4902  0.1431
  146MOL    H6546755   0.708   5.115   4.817  0.3920 -0.0361 -0.1046
  146MOL    C6646756   0.780   5.006   4.646 -0.7103  0.4769  0.8097
  146MOL    O6746757   0.894   4.942   4.704  0.5425  0.0640  0.3648
  146MOL    C6846758   1.014   4.940   4.623  0.0640 -0.2382 -0.3711
  146MOL    C6946759   1.128   4.888   4.713  0.1236 -0.0870 -0.0777
  146MOL    C7046760   1.194   4.985   4.812  0.2175  0.7114 -0.1574
  146MOL    C7146761   0.660   4.909   4.637 -0.4486  0.6615 -0.2193
  146MOL    H7246762   0.804   5.043   4.546  0.1341  0.0158  0.8367
  146MOL    H7346763   0.994   4.878   4.535 -2.1606  0.0912 -0.1343
  146MOL    H7446764   1.040   5.040   4.587 -1.0806  0.4983  0.7772
  146MOL    H7546765   1.198   4.836   4.648  1.9573  1.5869  0.4952
  146MOL    H7646766   1.087   4.809   4.776 -0.0630  0.3390  0.3354
  146MOL    H7746767   1.130   5.044   4.877  1.6157  1.9846  0.1053
  146MOL    H7846768   1.251   5.063   4.761  1.8427  0.0270  0.5792
  146MOL    H7946769   1.268   4.932   4.872 -0.5740 -1.1183 -0.7787
  146MOL    H8046770   0.634   4.876   4.737 -0.6612  1.7518  0.0970
  146MOL    H8146771   0.575   4.970   4.606 -0.5945  0.1539 -0.8211
  146MOL    C8246772   0.672   4.797   4.538  0.6493 -0.2374  0.4628
  146MOL    O8346773   0.597   4.676   4.577 -0.4849  0.2545 -0.4448
  146MOL    C8446774   0.667   4.572   4.653 -0.6705  0.5655 -0.3694
  146MOL    C8546775   0.599   4.445   4.619  0.8796 -0.1725  0.6476
  146MOL    C8646776   0.463   4.432   4.683  0.4524  0.3179  0.3544
  146MOL    C8746777   0.599   4.834   4.404  0.2702 -0.6012  0.9060
  146MOL    H8846778   0.778   4.779   4.522  1.0899  1.3014  1.5718
  146MOL    H8946779   0.768   4.565   4.613 -0.7896 -0.9960 -0.4237
  146MOL    H9046780   0.669   4.595   4.760 -0.2418  1.1341 -0.4952
  146MOL    H9146781   0.665   4.366   4.656  0.9502 -0.3164  0.2226
  146MOL    H9246782   0.591   4.428   4.512  1.8023 -2.2665  0.8926
  146MOL    H9346783   0.391   4.487   4.622  0.2362 -0.4002 -0.0350
  146MOL    H9446784   0.462   4.465   4.787 -4.3064 -1.4223  0.9629
  146MOL    H9546785   0.445   4.326   4.696  0.4216  0.6912  3.9932
  146MOL    H9646786   0.595   4.743   4.344 -2.4619  1.0168 -1.4958
  146MOL    H9746787   0.497   4.860   4.434 -0.3005  0.7300 -2.0354
  146MOL    C9846788   0.662   4.946   4.315  0.5122  0.2965  0.0158
  146MOL    O9946789   0.796   4.904   4.286 -0.1439 -0.8167  0.2820
  146MOL   C10046790   0.885   5.008   4.250  0.7223 -0.2403  0.6809
  146MOL   C10146791   1.019   4.944   4.219 -0.3459 -1.0756  0.2372
  146MOL   C10246792   1.130   5.043   4.190 -0.3895 -0.4646  0.7063
  146MOL   C10346793   0.589   4.972   4.190  0.3734  0.5378 -0.2265
  146MOL   H10446794   0.661   5.031   4.382  0.5724 -1.1871  1.9522
  146MOL   H10546795   0.849   5.064   4.164 -1.5885 -1.1759  1.0094
  146MOL   H10646796   0.903   5.079   4.331  1.4583  1.5869 -1.0555
  146MOL   H10746797   1.017   4.875   4.134 -0.7990 -0.8539  0.0677
  146MOL   H10846798   1.045   4.883   4.306  1.4551 -1.7229 -0.7383
  146MOL   H10946799   1.131   5.122   4.265  0.4911  0.1186  0.0811
  146MOL   H11046800   1.119   5.080   4.088  0.6635 -1.8685  0.0639
  146MOL   H11146801   1.224   4.988   4.182 -1.3919 -2.0211 -0.9123
  146MOL   H11246802   0.633   5.050   4.128  0.9249  1.8492  1.7797
  146MOL   H11346803   0.588   4.882   4.129  0.3764  0.2401  0.2089
  146MOL   C11446804   0.436   5.013   4.207 -0.4413  0.1086 -0.2835
  146MOL   O11546805   0.429   5.149   4.247 -0.1553  0.7034  0.0134
  146MOL   C11646806   0.300   5.193   4.289  0.1790 -0.6111  0.0435
  146MOL   C11746807   0.274   5.142   4.429 -0.2571  0.1726  0.1244
  146MOL   C11846808   0.165   5.218   4.496 -0.0137 -0.3788 -0.1085
  146MOL   C11946809   0.360   4.989   4.073 -0.0503 -0.2778  0.1275
  146MOL   H12046810   0.385   4.946   4.275 -1.1113  1.1082  0.1965
  146MOL   H12146811   0.298   5.302   4.290 -1.5555 -0.6016 -1.1374
  146MOL   H12246812   0.229   5.163   4.212  0.4232  2.2797 -1.3648
  146MOL   H12346813   0.364   5.157   4.489  0.4331 -2.0390 -0.2975
  146MOL   H12446814   0.257   5.035   4.440 -0.9972  0.4777  2.3275
  146MOL   H12546815   0.074   5.231   4.438 -1.5702 -0.0125  2.3420
  146MOL   H12646816   0.198   5.315   4.533  2.9441 -2.1752  2.2311
  146MOL   H12746817   0.126   5.169   4.585  0.1010 -0.1918  0.0454
  146MOL   H12846818   0.358   4.882   4.053  1.0681  0.0740 -2.1200
  146MOL   H12946819   0.254   5.013   4.068  0.5341  2.1816 -1.5534
  146MOL   C13046820   0.425   5.062   3.948  0.6754 -0.4383 -0.5912
  146MOL   O13146821   0.544   4.997   3.916 -0.5931 -0.3225 -0.4649
  146MOL   C13246822   0.635   5.068   3.840 -0.5372  0.1641 -0.0714
  146MOL   C13346823   0.726   4.967   3.778  0.3377  0.2837  0.7088
  146MOL   C13446824   0.662   4.864   3.679  0.4201  0.6868  0.5773
  146MOL   C13546825   0.329   5.050   3.826  0.6648  0.2086  0.0892
  146MOL   H13646826   0.448   5.164   3.980  1.7150 -0.5235 -1.0317
  146MOL   H13746827   0.574   5.118   3.766 -0.4772 -0.5788 -0.6337
  146MOL   H13846828   0.695   5.146   3.886  1.4449 -1.4753  0.2089
  146MOL   H13946829   0.764   4.914   3.865  0.2022  0.1875  0.7106
  146MOL   H14046830   0.810   5.011   3.725 -0.6225  1.3016  0.0101
  146MOL   H14146831   0.554   4.869   3.692  0.5932  1.3248  1.8797
  146MOL   H14246832   0.693   4.760   3.692  2.8123  1.2805 -0.1308
  146MOL   H14346833   0.676   4.898   3.576 -1.6905  2.2828  0.7995
  146MOL   H14446834   0.383   5.023   3.735  1.9087  2.7408  0.0213
  146MOL   H14546835   0.265   4.962   3.829 -2.6496  2.4891 -1.0990
  146MOL   C14646836   0.257   5.191   3.797 -0.5124 -0.5145 -0.1036
  146MOL   O14746837   0.256   5.235   3.663  0.1839 -0.7751  0.0588
  146MOL   C14846838   0.368   5.303   3.613  0.1940 -0.9993 -0.0799
  146MOL   C14946839   0.337   5.344   3.468  0.2300 -0.0916 -0.0073
  146MOL   C15046840   0.386   5.483   3.435 -0.4507  0.0327  0.0541
  146MOL   C15146841   0.110   5.191   3.841  0.0698 -0.2451  0.4035
  146MOL   H15246842   0.306   5.268   3.857 -0.2692 -1.2418  0.6570
  146MOL   H15346843   0.359   5.389   3.679  0.2825 -1.3181  0.3536
  146MOL   H15446844   0.469   5.271   3.638  0.4309 -0.5547 -0.4578
  146MOL   H15546845   0.233   5.346   3.436 -0.2422  2.9218  1.5583
  146MOL   H15646846   0.403   5.281   3.408 -0.1852  0.4119 -1.0009
  146MOL   H15746847   0.354   5.516   3.337 -1.5618  0.6215  0.6095
  146MOL   H15846848   0.495   5.480   3.447 -0.4614  0.0635  0.1616
  146MOL   H15946849   0.351   5.551   3.513  0.7308 -1.2736  1.7762
  146MOL   H16046850   0.077   5.112   3.774  0.2814  0.6305 -0.7328
  146MOL   H16146851   0.112   5.160   3.946  0.5846  0.2611  0.5494
  146MOL   C16246852   0.040   5.325   3.830  0.1295  0.1196 -0.1218
  146MOL   O16346853   7.727   5.291   3.834 -0.9801 -0.7802  0.2562
  146MOL   C16446854   7.656   5.315   3.709  0.1019  0.2584 -0.1740
  146MOL   C16546855   7.650   5.179   3.637 -0.0070 -0.2101 -0.2183
  146MOL   C16646856   7.566   5.068   3.704 -0.3333 -0.6180 -0.1965
  146MOL   C16746857   0.062   5.418   3.947  0.0714 -0.2806  0.0060
  146MOL   H16846858   0.069   5.370   3.735  1.9770 -0.0280  0.3602
  146MOL   H16946859   7.554   5.346   3.731 -0.2580 -1.0140  0.0012
  146MOL   H17046860   7.709   5.388   3.648  2.2477 -0.6801  0.5177
  146MOL   H17146861   7.751   5.142   3.618  0.2693  0.3991  0.0317
  146MOL   H17246862   7.603   5.211   3.544 -0.0459  1.1862  0.2739
  146MOL   H17346863   7.463   5.100   3.692  0.6711  2.9340 -0.1360
  146MOL   H17446864   7.588   5.065   3.810 -0.6440 -0.1611 -0.1188
  146MOL   H17546865   7.586   4.970   3.661 -1.8824 -0.8522 -0.4152
  146MOL   H17646866   7.810   5.492   3.941 -0.2827 -0.4889  1.7536
  146MOL   H17746867   0.044   5.377   4.047  1.7486  1.7438  1.1966
  146MOL   C17846868   0.192   5.499   3.934  0.3440 -0.3903 -0.2988
  146MOL   O17946869   0.168   5.632   3.891  0.2606  0.0822  0.3764
  146MOL   C18046870   0.147   5.641   3.750 -0.2396  0.1731  0.0841
  146MOL   C18146871   0.128   5.799   3.726  0.3593 -0.2326 -0.0527
  146MOL   C18246872   0.253   5.881   3.746 -0.4282  0.4632  0.7404
  146MOL   C18346873   0.291   5.495   4.053  0.4395 -0.3269  0.2251
  146MOL   H18446874   0.257   5.457   3.858  1.5376  1.2288 -0.2032
  146MOL   H18546875   0.244   5.616   3.709 -0.5390 -1.1974  0.2144
  146MOL   H18646876   0.062   5.586   3.711  0.2883  0.1761 -1.0816
  146MOL   H18746877   0.042   5.831   3.785  0.2710  0.2134 -0.4239
  146MOL   H18846878   0.103   5.829   3.624 -0.7299 -2.6523 -0.5464
  146MOL   H18946879   0.270   5.859   3.852  0.8596  0.7095  0.5938
  146MOL   H19046880   0.234   5.988   3.733 -1.4689  0.3598  1.3375
  146MOL   H19146881   0.333   5.836   3.689 -0.6776 -0.5156  1.1488
  146MOL   H19246882   0.239   5.532   4.142 -1.5056  1.1717 -1.5086
  146MOL   H19346883   0.303   5.387   4.066  1.3546 -0.3585 -0.8854
  146MOL   C19446884   0.425   5.566   4.013 -0.6855  0.4348  0.1373
  146MOL   O19546885   0.502   5.597   4.134  0.2923  0.2192  0.0350
  146MOL   C19646886   0.441   5.713   4.191 -0.0844  0.3438 -0.0297
  146MOL   C19746887   0.537   5.765   4.303  0.3726  0.3732 -0.5769
  146MOL   C19846888   0.486   5.880   4.378  0.6758  0.1648  0.7701
  146MOL   C19946889   0.522   5.460   3.956  0.2508 -0.1236 -0.4831
  146MOL   H20046890   0.422   5.656   3.951  0.5181  1.4378  1.5226
  146MOL   H20146891   0.422   5.796   4.123 -0.3643  0.8342  0.6364
  146MOL   H20246892   0.341   5.687   4.226 -0.2687 -1.1265 -1.5992
  146MOL   H20346893   0.633   5.786   4.256  2.0085 -2.9309  1.1280
  146MOL   H20446894   0.555   5.684   4.373 -1.5374  0.9496  0.6063
  146MOL   H20546895   0.479   5.977   4.327  1.5084 -0.7747 -1.1917
  146MOL   H20646896   0.556   5.887   4.461 -0.4676  1.2879  1.6482
  146MOL   H20746897   0.388   5.860   4.421  1.0320  0.5176  1.7657
  146MOL   H20846898   0.558   5.400   4.039 -0.1930  3.0991  2.1289
  146MOL   H20946899   0.464   5.403   3.884 -0.5269  2.4871 -1.9962
  146MOL   C21046900   0.640   5.520   3.883 -0.2021  0.3356 -0.4513
  146MOL   O21146901   0.732   5.412   3.865  0.0526 -0.1501  0.1548
  146MOL   C21246902   0.820   5.383   3.976 -0.1662 -0.8313  0.5433
  146MOL   C21346903   0.957   5.364   3.922 -0.4144 -0.0837  0.9434
  146MOL   C21446904   0.975   5.245   3.819 -0.1458 -0.3327  0.1838
  146MOL   C21546905   0.602   5.588   3.749 -0.0213  0.2286 -0.8306
  146MOL   H21646906   0.684   5.600   3.942 -1.6126  0.4588  0.4621
  146MOL   H21746907   0.820   5.463   4.051 -2.2518  0.5505 -0.8853
  146MOL   H21846908   0.789   5.297   4.036  0.1474 -0.5697  1.0898
  146MOL   H21946909   1.032   5.341   3.998 -0.2000 -0.0845  0.7301
  146MOL   H22046910   0.981   5.458   3.872 -3.0276 -0.9137 -1.9908
  146MOL   H22146911   0.947   5.152   3.867  1.4233  0.0739  1.9600
  146MOL   H22246912   1.075   5.244   3.774 -0.0137  0.9268  0.4164
  146MOL   H22346913   0.906   5.248   3.734 -0.3055  0.0390  0.3260
  146MOL   H22446914   0.570   5.505   3.685 -1.0782  0.3317 -0.4481
  146MOL   H22546915   0.518   5.658   3.753  2.4662  3.3348 -0.7473
  146MOL   C22646916   0.724   5.654   3.670  0.4737  0.0573 -0.0808
  146MOL   O22746917   0.684   5.708   3.548  0.0055 -0.0131 -0.5502
  146MOL   C22846918   0.754   5.660   3.440  0.3229  0.0522  0.4876
  146MOL   C22946919   0.695   5.732   3.321 -0.3166 -0.1190 -0.5455
  146MOL   C23046920   0.719   5.886   3.321 -0.3515  0.4313  0.3702
  146MOL   C23146921   0.802   5.751   3.754  0.5142 -0.3881 -0.2536
  146MOL   H23246922   0.789   5.568   3.651  0.2765  0.2364 -1.6185
  146MOL   H23346923   0.860   5.687   3.437  0.8351 -2.0379 -0.9640
  146MOL   H23446924   0.765   5.552   3.438  1.4998  0.1817 -1.0256
  146MOL   H23546925   0.594   5.694   3.307  0.0633 -1.5985  0.6045
  146MOL   H23646926   0.746   5.691   3.233  0.7505  0.3516 -0.1585
  146MOL   H23746927   0.824   5.909   3.341 -0.3579 -0.0977  1.0387
  146MOL   H23846928   0.661   5.923   3.405  0.7296  1.5445  0.6376
  146MOL   H23946929   0.681   5.944   3.237 -3.9676 -1.7465  0.3856
  146MOL   H24046930   0.853   5.702   3.837  2.4576  1.4895 -0.2780
  146MOL   H24146931   0.889   5.788   3.700  0.1823  0.4382 -0.2373
  146MOL   C24246932   0.734   5.885   3.805  0.0657  0.7707 -0.1983
  146MOL   O24346933   0.812   5.956   3.899 -0.1607 -0.6707  0.5963
  146MOL   C24446934   0.789   5.931   4.040 -0.3383  0.0947 -0.5255
  146MOL   C24546935   0.906   5.993   4.123  0.3957 -0.4756  0.0425
  146MOL   C24646936   0.905   5.977   4.282 -1.1459 -0.1066 -0.3967
  146MOL   C24746937   0.703   5.974   3.680  0.9339 -0.0769  0.2025
  146MOL   H24846938   0.638   5.868   3.854 -0.7459  2.3158 -1.2056
  146MOL   H24946939   0.700   5.983   4.074  0.3563  0.6141  0.5527
  146MOL   H25046940   0.772   5.828   4.069  2.4799 -0.6014 -1.1490
  146MOL   H25146941   0.906   6.098   4.093 -2.0748 -0.7633 -1.1000
  146MOL   H25246942   1.004   5.959   4.088  0.8271  1.1162 -0.3253
  146MOL   H25346943   0.833   6.041   4.334 -0.1138  1.4807 -0.8923
  146MOL   H25446944   1.004   5.996   4.322 -1.9871  1.5794  0.9823
  146MOL   H25546945   0.872   5.877   4.309  2.9062 -1.3766  0.0593
  146MOL   H25646946   0.785   5.961   3.610  0.8980 -1.5312  0.4271
  146MOL   H25746947   0.614   5.945   3.624  2.9527  1.5120 -4.0313
  146MOL   C25846948   0.699   6.128   3.711  0.0568 -0.3377  0.2456
  146MOL   O25946949   0.690   6.204   3.595  0.9593  0.0438 -0.1819
  146MOL   C26046950   0.811   6.221   3.520 -0.5333 -0.1332  0.5877
  146MOL   C26146951   0.782   6.246   3.376 -0.0391  0.3350  0.2204
  146MOL   C26246952   0.739   6.384   3.330 -0.3459  0.0241  0.1765
  146MOL   C26346953   0.583   6.169   3.814 -0.6154  0.7297 -0.1492
  146MOL   H26446954   0.792   6.157   3.760 -0.9908  0.0717  2.0231
  146MOL   H26546955   0.870   6.295   3.575 -1.6769  0.9303  0.3867
  146MOL   H26646956   0.873   6.132   3.532 -2.2836 -1.5294 -0.5144
  146MOL   H26746957   0.705   6.179   3.337  0.7866 -0.4726 -0.0679
  146MOL   H26846958   0.866   6.212   3.315 -0.0205 -0.1224  0.4988
  146MOL   H26946959   0.671   6.434   3.399 -1.6182  0.5276 -1.4121
  146MOL   H27046960   0.691   6.376   3.233 -1.1552  0.7445  0.5137
  146MOL   H27146961   0.824   6.451   3.313  0.7736 -1.8168 -1.7915
  146MOL   H27246962   0.492   6.117   3.784 -0.6912 -1.8508  4.0979
  146MOL   H27346963   0.607   6.124   3.910  1.2963 -0.9294 -1.3568
  146MOL   C27446964   0.561   6.321   3.820  0.5920 -0.2813  0.2129
  146MOL   O27546965   0.430   6.335   3.877 -0.3126 -0.2721 -0.2493
  146MOL   C27646966   0.325   6.387   3.797 -0.1502 -0.6581  0.1553
  146MOL   C27746967   0.193   6.356   3.869 -0.3082  0.0363 -0.2720
  146MOL   C27846968   0.171   6.431   4.006  0.2518  0.0088  0.8862
  146MOL   C27946969   0.653   6.403   3.904 -0.3115 -0.3126  0.1283
  146MOL   H28046970   0.547   6.356   3.718 -0.0243 -1.4485 -0.1087
  146MOL   H28146971   0.333   6.493   3.773 -0.1492 -1.1657 -2.1858
  146MOL   H28246972   0.323   6.338   3.700 -1.1687 -1.3819  0.5363
  146MOL   H28346973   0.193   6.248   3.884  1.5114  0.0990  0.2662
  146MOL   H28446974   0.114   6.383   3.798  0.7061 -0.9853 -1.8141
  146MOL   H28546975   0.080   6.398   4.055 -0.8228  0.9256 -0.4515
  146MOL   H28646976   0.172   6.539   3.993 -1.5812 -0.1020 -0.2513
  146MOL   H28746977   0.248   6.403   4.078 -0.4245  3.9988  3.2366
  146MOL   H28846978   0.596   6.414   3.997 -0.1969  0.2754  0.1314
  146MOL   H28946979   0.739   6.340   3.926  0.4802  1.2020  1.4828
  146MOL   C29046980   0.702   6.540   3.858  0.1321 -0.9370 -0.5098
  146MOL   O29146981   0.800   6.599   3.946  0.2560 -0.0760 -0.1544
  146MOL   C29246982   0.756   6.659   4.060 -0.8562 -0.6117 -0.1148
  146MOL   C29346983   0.855   6.761   4.107 -0.4882  0.1224  0.1114
  146MOL   C29446984   0.837   6.887   4.026 -0.1353 -0.4140 -0.1356
  146MOL   C29546985   0.791   6.523   3.729  1.0695  0.4039  0.5994
  146MOL   H29646986   0.623   6.611   3.837 -0.6642 -1.5878  0.2527
  146MOL   H29746987   0.660   6.707   4.044 -2.0902 -2.8926  0.1807
  146MOL   H29846988   0.746   6.580   4.135  2.5353  0.6196  1.7481
  146MOL   H29946989   0.954   6.716   4.104  0.7771  2.7294  1.1347
  146MOL   H30046990   0.830   6.778   4.212 -4.7530 -1.0435 -0.6511
  146MOL   H30146991   0.915   6.958   4.056 -0.7844 -0.1561  0.9634
  146MOL   H30246992   0.735   6.924   4.020  0.4003  1.2564  0.5933
  146MOL   H30346993   0.873   6.865   3.925 -1.6126 -1.1164 -0.5168
  146MOL   H30446994   0.875   6.460   3.758 -2.1602 -4.0645  0.6022
  146MOL   H30546995   0.735   6.470   3.653 -0.2392  2.9414 -0.2488
  146MOL   C30646996   0.839   6.648   3.667  0.3063 -0.6438  0.1964
  146MOL   O30746997   0.944   6.616   3.579 -0.1988 -0.1081 -0.2120
  146MOL   C30846998   1.025   6.730   3.549 -0.8235 -0.3415  0.1475
  146MOL   C30946999   1.096   6.701   3.411 -0.6954  0.0462  0.5526
  146MOL   C31047000   1.188   6.569   3.413  0.4922  0.4515 -0.0815
  146MOL   C31147001   0.727   6.706   3.586 -0.3940  0.2402 -0.1999
  146MOL   H31247002   0.869   6.720   3.743 -2.9837  0.8893  0.1496
  146MOL   H31347003   0.970   6.824   3.545  0.7268  0.5686 -0.1679
  146MOL   H31447004   1.097   6.747   3.628 -1.5990 -1.8454  1.2155
  146MOL   H31547005   1.161   6.784   3.381 -0.8358 -0.1727 -0.3901
  146MOL   H31647006   1.016   6.673   3.342 -0.4880 -0.7844  0.6428
  146MOL   H31747007   1.140   6.494   3.476 -1.1192 -0.6780 -2.5828
  146MOL   H31847008   1.290   6.585   3.446  0.4074 -1.3408  1.1060
  146MOL   H31947009   1.191   6.510   3.321  1.0742  1.6164 -0.8133
  146MOL   H32047010   0.756   6.797   3.533  4.3796 -1.6835 -1.1700
  146MOL   H32147011   0.707   6.627   3.512 -3.7384  0.1045  0.7543
  146MOL   H32247012   0.640   6.720   3.649  0.6025 -0.7848  1.4366
  147MOL     C147013   5.162   5.645   1.627 -0.1853  0.0361 -0.2954
  147MOL     O247014   5.283   5.705   1.578  0.3949 -0.5899 -0.1016
  147MOL     C347015   5.391   5.660   1.651  0.0808 -0.0440  0.0221
  147MOL     C447016   5.511   5.756   1.631  0.7852 -0.0165  0.3432
  147MOL     C547017   5.486   5.902   1.669  0.0749 -0.1311 -0.6237
  147MOL     C647018   5.029   5.695   1.557  0.3965 -0.0510 -0.2594
  147MOL     H747019   5.137   5.659   1.733 -1.2728 -2.3647 -0.1991
  147MOL     H847020   5.363   5.650   1.756 -0.9337 -0.8282 -0.3103
  147MOL     H947021   5.414   5.565   1.603 -3.7827 -0.8078 -0.4963
  147MOL    H1047022   5.543   5.744   1.528 -0.1437 -2.2189  0.2703
  147MOL    H1147023   5.592   5.728   1.699  0.4051  0.9910  1.2156
  147MOL    H1247024   5.402   5.945   1.613  0.0140  3.0163  1.7404
  147MOL    H1347025   5.568   5.969   1.641 -0.6519  1.2766  0.5208
  147MOL    H1447026   5.462   5.903   1.775 -1.1360 -1.0790 -0.8913
  147MOL    H1547027   5.017   5.801   1.579  1.9481 -0.2802  1.7797
  147MOL    H1647028   5.041   5.685   1.449 -0.7874 -2.6298 -0.1814
  147MOL    H1747029   5.178   5.538   1.618  0.4910  0.0206  0.9853
  147MOL    C1847030   4.911   5.617   1.610  0.1349  0.0907 -0.4288
  147MOL    O1947031   4.862   5.682   1.721  0.5755  0.6533  0.1581
  147MOL    C2047032   4.837   5.612   1.842  0.2086  0.1252 -0.1789
  147MOL    C2147033   4.740   5.690   1.939 -0.1516  0.0040 -0.1720
  147MOL    C2247034   4.793   5.834   1.956 -1.3329  0.1867  0.0101
  147MOL    C2347035   4.800   5.600   1.512 -0.1797  0.2911 -0.1125
  147MOL    H2447036   4.942   5.522   1.654  0.6342  0.1519 -0.6499
  147MOL    H2547037   4.800   5.512   1.823 -1.2134  0.8932 -1.5507
  147MOL    H2647038   4.936   5.599   1.886  0.1142  0.8530  0.2490
  147MOL    H2747039   4.725   5.636   2.033  2.7026 -0.1984  0.2011
  147MOL    H2847040   4.641   5.698   1.895  0.4501  2.9215 -1.0458
  147MOL    H2947041   4.895   5.847   1.992 -1.9730 -0.8809  2.3034
  147MOL    H3047042   4.732   5.884   2.031  1.2277 -0.1751  2.4178
  147MOL    H3147043   4.789   5.888   1.861 -1.0857  1.3524  0.6592
  147MOL    H3247044   4.713   5.657   1.546 -0.0873  0.2310  0.2293
  147MOL    H3347045   4.822   5.648   1.416  0.0317  0.4505  0.0161
  147MOL    C3447046   4.751   5.453   1.499  0.3646  0.3524 -0.1789
  147MOL    O3547047   4.617   5.473   1.453 -0.1438 -0.0190  0.6672
  147MOL    C3647048   4.527   5.462   1.559  0.0843  0.1178  0.0993
  147MOL    C3747049   4.390   5.461   1.499  0.0007  0.5239 -0.1741
  147MOL    C3847050   4.276   5.429   1.591 -0.1839 -0.1547 -0.0782
  147MOL    C3947051   4.835   5.391   1.384  0.5845 -0.3525  0.2971
  147MOL    H4047052   4.757   5.421   1.603 -0.8600  0.3808 -0.0907
  147MOL    H4147053   4.537   5.363   1.603  1.7612  0.4698  0.5661
  147MOL    H4247054   4.524   5.541   1.634 -3.3732  0.0995  0.0645
  147MOL    H4347055   4.379   5.395   1.413  0.6208  2.3958 -1.7115
  147MOL    H4447056   4.364   5.560   1.461 -3.4054 -0.8980 -1.8488
  147MOL    H4547057   4.282   5.469   1.692  0.0195 -2.3319  0.8115
  147MOL    H4647058   4.281   5.322   1.614  1.0143 -0.6359 -2.4289
  147MOL    H4747059   4.174   5.452   1.561 -0.3780  0.7783  1.2306
  147MOL    H4847060   4.812   5.434   1.286 -0.0123 -0.8723  0.2059
  147MOL    H4947061   4.937   5.419   1.413  0.2296  0.4019  0.8181
  147MOL    C5047062   4.823   5.238   1.367 -0.2319  0.8302  0.0920
  147MOL    O5147063   4.841   5.166   1.495 -0.3758  0.2683 -0.1078
  147MOL    C5247064   4.983   5.146   1.539 -0.4695  0.0296  1.0593
  147MOL    C5347065   4.977   5.064   1.663  0.4043 -0.0387  0.3873
  147MOL    C5447066   4.914   4.922   1.638 -0.0277 -0.3754 -0.3127
  147MOL    C5547067   4.682   5.182   1.337  0.0950  1.6095 -0.4484
  147MOL    H5647068   4.883   5.210   1.281 -0.3296  2.5268 -0.5605
  147MOL    H5747069   5.035   5.094   1.459 -0.3629  0.5850  0.7623
  147MOL    H5847070   5.017   5.249   1.546  2.5229 -0.7061 -1.6344
  147MOL    H5947071   4.920   5.125   1.733 -0.8257 -0.2563 -0.4125
  147MOL    H6047072   5.076   5.055   1.708  0.4058  1.7974  0.8029
  147MOL    H6147073   4.901   4.861   1.728 -1.0182 -0.2902 -0.3930
  147MOL    H6247074   4.976   4.865   1.569 -2.3014  0.2478 -2.9453
  147MOL    H6347075   4.821   4.912   1.583  0.9303 -1.5743 -1.7699
  147MOL    H6447076   4.664   5.075   1.349 -0.5758  1.7861  0.1236
  147MOL    H6547077   4.615   5.204   1.419  0.8349  1.0207  0.3199
  147MOL    C6647078   4.612   5.232   1.210  0.4414  0.8226  0.5145
  147MOL    O6747079   4.680   5.214   1.082  0.5733 -0.3902 -0.2488
  147MOL    C6847080   4.688   5.342   1.010  0.4866 -0.3721  0.1389
  147MOL    C6947081   4.758   5.318   0.880 -0.3142 -0.0494 -0.4915
  147MOL    C7047082   4.669   5.214   0.801  0.1709 -0.3419 -0.1913
  147MOL    C7147083   4.478   5.161   1.189 -0.9624  0.0481  0.0321
  147MOL    H7247084   4.592   5.338   1.228  4.4532  1.3848  2.2617
  147MOL    H7347085   4.587   5.373   0.984  0.1401 -0.6396  1.1433
  147MOL    H7447086   4.747   5.414   1.067 -1.3414 -0.5086  2.2972
  147MOL    H7547087   4.854   5.275   0.908 -0.3556  0.2565  0.1070
  147MOL    H7647088   4.776   5.413   0.829 -0.4881  0.6544  0.7424
  147MOL    H7747089   4.566   5.249   0.794 -0.1538 -0.5206  2.8180
  147MOL    H7847090   4.658   5.123   0.859  0.9363  0.6303  1.5371
  147MOL    H7947091   4.715   5.186   0.707  1.5901 -0.6384  0.5778
  147MOL    H8047092   4.506   5.059   1.163 -1.7718 -0.8135  2.4426
  147MOL    H8147093   4.428   5.150   1.285 -0.3185  0.4653  0.4247
  147MOL    C8247094   4.385   5.220   1.087  0.1765  0.1125  0.3269
  147MOL    O8347095   4.264   5.138   1.075  0.2225 -0.7122 -0.1326
  147MOL    C8447096   4.288   5.032   0.986  0.3832 -0.1246  0.6122
  147MOL    C8547097   4.155   4.961   0.956 -0.1187 -0.3111  0.4907
  147MOL    C8647098   4.070   5.026   0.847 -0.1484  0.2205  0.5430
  147MOL    C8747099   4.333   5.367   1.111  1.0826  0.2688 -0.4769
  147MOL    H8847100   4.438   5.218   0.991  2.7515 -1.0702  1.7204
  147MOL    H8947101   4.330   5.066   0.891  1.5474  1.6218  1.7267
  147MOL    H9047102   4.360   4.959   1.022 -0.0431 -0.5490  0.5984
  147MOL    H9147103   4.093   4.953   1.046 -2.3403  1.3625 -0.8294
  147MOL    H9247104   4.169   4.857   0.930 -0.8374 -0.6377  1.3524
  147MOL    H9347105   4.114   5.039   0.748  1.5406 -1.4773  1.0279
  147MOL    H9447106   4.045   5.123   0.889 -1.6732  0.3005 -0.5225
  147MOL    H9547107   3.972   4.979   0.846 -1.5177  2.9604 -0.0990
  147MOL    H9647108   4.297   5.362   1.213  2.9542 -0.1823  0.1783
  147MOL    H9747109   4.423   5.429   1.108  1.2029  0.0312 -2.1522
  147MOL    C9847110   4.216   5.411   1.020 -0.4083 -0.3985 -0.3519
  147MOL    O9947111   4.202   5.553   1.045  0.1725  0.5006  0.4884
  147MOL   C10047112   4.134   5.590   1.165  0.0717  0.0981 -0.3599
  147MOL   C10147113   3.980   5.583   1.155  0.2332 -0.3104  0.6622
  147MOL   C10247114   3.926   5.693   1.065  0.2480 -0.1859  0.5780
  147MOL   C10347115   4.255   5.404   0.870  0.6428 -0.0795 -0.2075
  147MOL   H10447116   4.125   5.350   1.029 -1.1485  0.5608 -1.2867
  147MOL   H10547117   4.169   5.535   1.252  1.2677 -1.0652 -1.5518
  147MOL   H10647118   4.165   5.691   1.189  0.1239 -0.3084  1.3500
  147MOL   H10747119   3.930   5.581   1.252  1.1599  1.0728  1.1868
  147MOL   H10847120   3.940   5.495   1.104 -1.2191  1.8223 -1.9529
  147MOL   H10947121   3.944   5.798   1.090 -0.3691  0.1561 -0.3612
  147MOL   H11047122   3.819   5.685   1.046  0.4899 -1.3982 -0.3689
  147MOL   H11147123   3.966   5.677   0.964 -2.0886  2.0145 -0.7631
  147MOL   H11247124   4.350   5.456   0.858 -1.8667  4.7016 -0.4885
  147MOL   H11347125   4.271   5.298   0.850 -3.8568 -0.8460 -0.3314
  147MOL   C11447126   4.148   5.462   0.775  1.1128 -0.0810  0.1263
  147MOL   O11547127   4.203   5.499   0.648  0.3440 -0.6645 -0.2360
  147MOL   C11647128   4.283   5.619   0.662  0.2800 -0.1433 -0.6200
  147MOL   C11747129   4.304   5.665   0.522 -0.2014 -0.3538  0.1809
  147MOL   C11847130   4.408   5.590   0.442  0.9025 -0.6615 -0.2320
  147MOL   C11947131   4.034   5.363   0.759 -0.1064  0.5510 -0.0370
  147MOL   H12047132   4.108   5.551   0.825 -0.2047 -0.8121  0.4083
  147MOL   H12147133   4.225   5.690   0.721  1.0452  1.2581 -1.5321
  147MOL   H12247134   4.379   5.604   0.712  0.1477  1.8678  0.2883
  147MOL   H12347135   4.342   5.765   0.503 -0.4763 -0.5080 -1.2157
  147MOL   H12447136   4.209   5.669   0.470  0.1500 -0.2970 -0.4579
  147MOL   H12547137   4.501   5.589   0.498  0.1244  0.9941  1.1312
  147MOL   H12647138   4.435   5.643   0.350  3.0339  0.6507  1.1061
  147MOL   H12747139   4.374   5.487   0.434 -2.3928  0.3329 -0.0571
  147MOL   H12847140   4.076   5.265   0.737  2.1200  0.6938  3.1572
  147MOL   H12947141   3.998   5.326   0.855  0.2632  0.8088  0.2049
  147MOL   C13047142   3.926   5.405   0.662  0.5991 -0.2773  0.1942
  147MOL   O13147143   3.826   5.306   0.633 -0.5366 -0.1263 -0.2329
  147MOL   C13247144   3.871   5.200   0.555  0.2568  0.3904  0.5958
  147MOL   C13347145   3.782   5.076   0.555  0.5203 -0.3553 -0.7432
  147MOL   C13447146   3.644   5.110   0.501 -0.8507  0.2664  0.7373
  147MOL   C13547147   3.851   5.529   0.693  0.0722  0.5312  0.4616
  147MOL   H13647148   3.976   5.434   0.570  0.7292 -1.1668 -0.0171
  147MOL   H13747149   3.876   5.244   0.455  2.0654 -0.8776  0.1135
  147MOL   H13847150   3.973   5.169   0.580  0.6978  1.1230 -0.2552
  147MOL   H13947151   3.782   5.044   0.660  1.1811  1.2958 -0.2206
  147MOL   H14047152   3.828   4.996   0.497  1.5195  0.3942 -0.9909
  147MOL   H14147153   3.595   5.175   0.574 -1.1400  0.9819 -0.0914
  147MOL   H14247154   3.584   5.020   0.494  1.2099 -0.8597 -3.6105
  147MOL   H14347155   3.632   5.156   0.403  0.5327  0.3682  0.6056
  147MOL   H14447156   3.794   5.503   0.782 -1.9088 -1.3409 -1.2889
  147MOL   H14547157   3.908   5.617   0.724  0.2726 -0.1617  2.1109
  147MOL   C14647158   3.749   5.566   0.577 -0.8343  0.1789 -0.0623
  147MOL   O14747159   3.638   5.648   0.624 -0.4002 -0.4646 -0.3202
  147MOL   C14847160   3.512   5.587   0.613 -0.2768  0.0049  0.0542
  147MOL   C14947161   3.431   5.668   0.717  0.6971 -0.0903  0.0499
  147MOL   C15047162   3.411   5.816   0.687  0.2733  0.0616 -0.6598
  147MOL   C15147163   3.811   5.637   0.450  0.5148 -0.2647 -0.1483
  147MOL   H15247164   3.707   5.477   0.531  0.4011  0.6427 -2.1659
  147MOL   H15347165   3.478   5.598   0.510  0.5930 -0.4468 -0.2903
  147MOL   H15447166   3.503   5.483   0.643  0.8622  0.4779  2.1326
  147MOL   H15547167   3.482   5.655   0.812 -1.7185  0.2688  1.4409
  147MOL   H15647168   3.332   5.623   0.722  0.9919 -1.0951 -2.4037
  147MOL   H15747169   3.327   5.857   0.743  1.6052  2.1511 -0.1420
  147MOL   H15847170   3.385   5.836   0.583 -1.5365  0.7861 -0.0821
  147MOL   H15947171   3.497   5.882   0.699 -0.9933  1.6470 -0.0940
  147MOL   H16047172   3.848   5.738   0.462 -1.0329  0.2001  0.9870
  147MOL   H16147173   3.906   5.588   0.429  1.0435  0.7634 -0.1376
  147MOL   C16247174   3.717   5.626   0.320  0.0650  0.6423 -0.2261
  147MOL   O16347175   3.699   5.749   0.258 -0.8511  0.2214  0.0211
  147MOL   C16447176   3.616   5.842   0.329 -0.1448 -0.0923 -0.7073
  147MOL   C16547177   3.551   5.917   0.213 -0.0097  0.1978  0.1039
  147MOL   C16647178   3.444   5.834   0.141 -0.3310  0.1379  0.4345
  147MOL   C16747179   3.754   5.513   0.225  0.3145  0.0820  0.5093
  147MOL   H16847180   3.616   5.597   0.349  0.6523 -0.3750  0.8303
  147MOL   H16947181   3.546   5.801   0.402  0.8443 -1.0896 -0.3016
  147MOL   H17047182   3.677   5.916   0.381 -1.5795  1.2413 -0.8685
  147MOL   H17147183   3.626   5.945   0.139 -1.1833 -1.4231 -1.7807
  147MOL   H17247184   3.509   6.015   0.236 -0.4712  0.4964 -1.8893
  147MOL   H17347185   3.415   5.896   0.056 -0.5066 -0.0059  0.3894
  147MOL   H17447186   3.355   5.814   0.200 -0.5760 -1.3572 -0.4120
  147MOL   H17547187   3.480   5.737   0.108  1.6090  0.8746  0.3088
  147MOL   H17647188   3.748   5.415   0.272  2.4343  0.5497  1.7963
  147MOL   H17747189   3.668   5.508   0.157  1.0200 -1.3579 -0.3055
  147MOL   C17847190   3.894   5.532   0.148  0.0007  0.6363 -0.0313
  147MOL   O17947191   3.927   5.414   0.084  0.3109 -0.0001  0.3611
  147MOL   C18047192   4.019   5.327   0.162  0.2496 -0.1306  0.0884
  147MOL   C18147193   4.008   5.183   0.102  0.0670 -0.7470 -0.2199
  147MOL   C18247194   4.089   5.078   0.192 -0.2788 -0.0469 -0.7881
  147MOL   C18347195   3.900   5.651   0.057 -0.2005  0.5502  0.4224
  147MOL   H18447196   3.966   5.565   0.223 -0.4324  1.7191 -0.0867
  147MOL   H18547197   4.122   5.362   0.168 -0.1973  1.6041 -1.6302
  147MOL   H18647198   3.996   5.316   0.268 -2.2559 -2.1803 -0.6239
  147MOL   H18747199   4.043   5.192   7.827 -1.1669 -1.2377 -0.6865
  147MOL   H18847200   3.902   5.163   0.092  0.0894 -1.2246  0.4423
  147MOL   H18947201   4.194   5.067   0.164 -0.0187  1.6047 -0.5207
  147MOL   H19047202   4.043   4.979   0.183 -2.4980  0.8994 -0.2818
  147MOL   H19147203   4.088   5.114   0.294  0.4904 -0.3909 -0.6562
  147MOL   H19247204   3.885   5.739   0.120  2.0438  0.0826  1.6653
  147MOL   H19347205   3.998   5.666   0.012 -0.0908 -3.5362 -0.8761
  147MOL   C19447206   3.804   5.653   7.767 -0.1926  0.6437  0.0973
  147MOL   O19547207   3.808   5.779   7.701 -0.3260 -0.7378 -0.0529
  147MOL   C19647208   3.680   5.826   7.659 -0.1184 -0.0948 -1.0121
  147MOL   C19747209   3.697   5.962   7.593  0.3050  0.4897  0.8259
  147MOL   C19847210   3.579   6.057   7.577  0.8202  0.1093  0.4015
  147MOL   C19947211   3.823   5.548   7.661 -0.8537  0.4154  0.5544
  147MOL   H20047212   3.707   5.642   7.815  1.2699  0.6328  3.1650
  147MOL   H20147213   3.637   5.757   7.587 -3.1450  0.4711  0.1941
  147MOL   H20247214   3.626   5.846   7.751  0.9512  0.1912 -0.4321
  147MOL   H20347215   3.715   5.945   7.486  0.0443 -0.5378  0.9356
  147MOL   H20447216   3.783   6.012   7.637 -0.1292  1.1423  0.9350
  147MOL   H20547217   3.608   6.149   7.526  1.2723  0.7940  1.8655
  147MOL   H20647218   3.544   6.092   7.675  0.2850 -2.8087  1.2799
  147MOL   H20747219   3.497   6.014   7.520  2.2514 -1.6328 -0.3753
  147MOL   H20847220   3.785   5.455   7.703 -1.1868  0.2043 -0.2063
  147MOL   H20947221   3.753   5.568   7.580  0.3921  1.3809 -0.3223
  147MOL   C21047222   3.970   5.524   7.609 -0.3074 -0.2189  0.0531
  147MOL   O21147223   3.935   5.413   7.518  0.5643  0.0413 -0.6140
  147MOL   C21247224   3.947   5.281   7.563  0.3418 -0.0337 -0.3214
  147MOL   C21347225   3.883   5.184   7.458 -0.2665 -0.3658 -0.2838
  147MOL   C21447226   3.947   5.197   7.326  0.5409 -0.2190  0.3015
  147MOL   C21547227   4.022   5.634   7.527 -0.1425 -0.3957 -0.3943
  147MOL   H21647228   4.040   5.483   7.682 -1.4966 -1.7131  0.3739
  147MOL   H21747229   4.050   5.256   7.592  0.0419  0.0468  0.8212
  147MOL   H21847230   3.895   5.263   7.657  0.6231  0.5181 -0.0570
  147MOL   H21947231   3.780   5.220   7.458 -0.2564 -0.2303  2.6333
  147MOL   H22047232   3.865   5.078   7.475 -2.4326 -0.3521 -2.1907
  147MOL   H22147233   3.891   5.149   7.246 -0.2351  2.0972 -0.6042
  147MOL   H22247234   4.050   5.161   7.322  0.5280 -0.3846  1.3498
  147MOL   H22347235   3.955   5.301   7.292 -0.7938 -0.2882 -0.2599
  147MOL   H22447236   3.942   5.659   7.458 -0.3858 -0.3388 -0.0898
  147MOL   H22547237   4.040   5.723   7.588  0.4324  0.8851 -2.3876
  147MOL   C22647238   4.151   5.605   7.441 -0.5136 -0.3922  0.4884
  147MOL   O22747239   4.127   5.688   7.324  0.2649 -0.4079 -0.2869
  147MOL   C22847240   4.156   5.622   7.202 -0.1072 -0.1054 -0.1307
  147MOL   C22947241   4.121   5.737   7.098  0.6180 -0.1342  0.5211
  147MOL   C23047242   3.985   5.789   7.111  0.1880 -0.6746 -0.1767
  147MOL   C23147243   4.282   5.653   7.508 -0.2175 -0.7063  1.4008
  147MOL   H23247244   4.145   5.499   7.413 -0.9162 -0.1941 -0.1847
  147MOL   H23347245   4.262   5.599   7.192 -0.1436  0.4079 -1.8200
  147MOL   H23447246   4.099   5.529   7.196 -0.2251 -0.0018 -0.6161
  147MOL   H23547247   4.130   5.704   6.994 -1.8577 -0.7347  0.4677
  147MOL   H23647248   4.192   5.820   7.098 -0.7155  1.0169  0.4439
  147MOL   H23747249   3.917   5.721   7.060 -0.2611  0.3547 -0.9715
  147MOL   H23847250   3.971   5.890   7.072  1.5934  0.2047  1.4955
  147MOL   H23947251   3.953   5.783   7.216  0.8760  0.1499  0.0858
  147MOL   H24047252   4.366   5.644   7.439 -0.6819 -0.5499  0.8193
  147MOL   H24147253   4.261   5.756   7.537  1.2335  0.3130 -1.0315
  147MOL   C24247254   4.331   5.575   7.635  0.0501 -0.3964 -0.1383
  147MOL   O24347255   4.372   5.442   7.591 -0.1307 -0.2170  1.0639
  147MOL   C24447256   4.343   5.340   7.684  0.3544 -0.2366  0.8449
  147MOL   C24547257   4.352   5.214   7.602  0.3549  0.2299 -0.0196
  147MOL   C24647258   4.344   5.088   7.684 -0.0244  0.2899 -0.4720
  147MOL   C24747259   4.463   5.628   7.696 -0.1899  0.2332  0.1851
  147MOL   H24847260   4.243   5.565   7.699 -0.2524  0.1424 -0.4619
  147MOL   H24947261   4.414   5.318   7.764  0.6064  1.7708  1.2141
  147MOL   H25047262   4.240   5.355   7.715  0.6917  2.4874  0.7563
  147MOL   H25147263   4.456   5.206   7.570 -0.1281 -1.5904 -1.1623
  147MOL   H25247264   4.277   5.212   7.523 -0.0603  0.3977  0.3654
  147MOL   H25347265   4.355   5.008   7.612 -0.1990  1.4709 -1.8333
  147MOL   H25447266   4.252   5.067   7.739  0.1002  1.5008  0.2190
  147MOL   H25547267   4.420   5.082   7.763 -0.5647 -2.0873 -0.1095
  147MOL   H25647268   4.495   5.561   7.777 -0.4929 -0.9073 -0.6271
  147MOL   H25747269   4.545   5.623   7.624  0.1792  0.3416  0.5898
  147MOL   C25847270   4.452   5.767   7.767  0.1502 -0.8328  0.0527
  147MOL   O25947271   4.368   5.745   0.052 -0.0693  0.1415 -0.2826
  147MOL   C26047272   4.260   5.833   0.067  0.6494  0.0534  0.3775
  147MOL   C26147273   4.195   5.809   0.200  0.2875 -0.7552  0.1763
  147MOL   C26247274   4.081   5.903   0.210 -0.0562 -0.2052 -0.5977
  147MOL   C26347275   4.576   5.813   0.011 -0.0497  0.8620 -0.7635
  147MOL   H26447276   4.412   5.841   7.698  0.1409 -1.0308 -0.1531
  147MOL   H26547277   4.282   5.939   0.057  1.3827  0.0458  1.8206
  147MOL   H26647278   4.195   5.797   7.815  1.8471 -0.6070 -0.3118
  147MOL   H26747279   4.270   5.803   0.279  1.5797 -2.9374 -1.1481
  147MOL   H26847280   4.168   5.703   0.206  0.8965 -1.0355 -1.6970
  147MOL   H26947281   4.021   5.875   0.296  1.2886  0.7962  0.6833
  147MOL   H27047282   4.026   5.903   0.116 -0.5226 -0.7770 -0.3235
  147MOL   H27147283   4.110   6.004   0.238  0.8033 -0.0348 -2.0498
  147MOL   H27247284   4.539   5.877   0.091 -1.3347 -1.1955  0.3260
  147MOL   H27347285   4.618   5.733   0.071 -2.5828  0.9528  1.2333
  147MOL   C27447286   4.677   5.884   7.747 -0.3995 -1.0144 -0.7192
  147MOL   O27547287   4.638   6.013   7.705 -0.3343 -0.5013  0.4494
  147MOL   C27647288   4.697   6.062   7.581  0.0935 -1.0103  0.4410
  147MOL   C27747289   4.635   6.203   7.566  0.0202 -0.3174 -0.2047
  147MOL   C27847290   4.484   6.221   7.550  0.1412  0.2677 -0.5097
  147MOL   C27947291   4.825   5.886   7.803  0.8055  0.1421  0.0866
  147MOL   H28047292   4.699   5.830   7.656  3.1265  0.7525 -1.0250
  147MOL   H28147293   4.805   6.068   7.568  0.0760 -1.9427 -0.2081
  147MOL   H28247294   4.654   6.013   7.493  0.0334 -1.2142  0.5838
  147MOL   H28347295   4.671   6.243   7.471  0.0192 -3.1161 -1.4356
  147MOL   H28447296   4.654   6.271   7.649 -2.8926 -0.4645  0.6420
  147MOL   H28547297   4.444   6.150   7.476  0.7717  1.1758 -1.7403
  147MOL   H28647298   4.441   6.319   7.529  1.1968  0.7002 -0.6758
  147MOL   H28747299   4.430   6.192   7.640 -0.6318  0.7146 -0.8233
  147MOL   H28847300   4.888   5.935   7.728  1.4915  1.4164  1.4721
  147MOL   H28947301   4.824   5.953   0.061  0.4185  0.0734  0.1361
  147MOL   C29047302   4.887   5.758   0.033  0.7380  0.3134  0.0515
  147MOL   O29147303   4.912   5.676   7.751  0.3024 -0.2739 -0.6050
  147MOL   C29247304   4.846   5.545   7.749  0.1261 -0.8253 -0.2638
  147MOL   C29347305   4.881   5.463   7.623 -0.3389 -0.7250  0.4420
  147MOL   C29447306   4.865   5.315   7.613  0.2580  0.2356 -1.1583
  147MOL   C29547307   5.026   5.784   0.104  0.3273 -0.1101 -0.5483
  147MOL   H29647308   4.826   5.711   0.111 -0.0826 -0.9819 -1.3440
  147MOL   H29747309   4.880   5.481   0.002 -1.4048  0.4840  1.4617
  147MOL   H29847310   4.739   5.564   7.757  0.1530 -0.7302 -0.1308
  147MOL   H29947311   4.989   5.483   7.622 -0.8518  2.2879 -0.4299
  147MOL   H30047312   4.844   5.520   7.537 -0.4480 -1.0989  0.2385
  147MOL   H30147313   4.894   5.269   7.518  0.0650 -0.5075 -0.8553
  147MOL   H30247314   4.771   5.273   7.649 -0.0321  1.5693 -0.3245
  147MOL   H30347315   4.938   5.273   7.682  0.0387  2.9541  0.8205
  147MOL   H30447316   5.078   5.689   0.119  0.3699 -0.0745 -0.4765
  147MOL   H30547317   5.079   5.844   0.030  0.4362 -1.3863 -1.5184
  147MOL   C30647318   5.009   5.859   0.239  0.7339  0.3267  0.2335
  147MOL   O30747319   4.912   5.787   0.310  0.1065  0.2950  0.4561
  147MOL   C30847320   4.841   5.875   0.403 -0.4057 -0.5297  0.3383
  147MOL   C30947321   4.736   5.797   0.487 -0.1269  0.2704  0.7335
  147MOL   C31047322   4.646   5.883   0.572  0.3173  0.1559 -0.3388
  147MOL   C31147323   5.135   5.862   0.322 -0.2657  0.7189  0.3035
  147MOL   H31247324   4.979   5.962   0.219 -1.0322 -0.6915 -2.8573
  147MOL   H31347325   4.913   5.916   0.474 -0.4569  0.3305 -0.1050
  147MOL   H31447326   4.798   5.963   0.355 -1.9467 -0.0838  2.4388
  147MOL   H31547327   4.777   5.728   0.561 -1.8180 -3.2466 -1.4843
  147MOL   H31647328   4.671   5.753   0.412 -0.6046  3.0335 -0.5367
  147MOL   H31747329   4.562   5.819   0.598 -0.7710  0.8181 -2.2099
  147MOL   H31847330   4.614   5.981   0.540  1.6048  1.8175  3.1545
  147MOL   H31947331   4.695   5.902   0.668  0.4054  2.7320 -0.8726
  147MOL   H32047332   5.175   5.761   0.331  1.9396  1.6580  1.4404
  147MOL   H32147333   5.204   5.937   0.283 -0.4567  1.1945  0.8755
  147MOL   H32247334   5.116   5.897   0.424 -1.2880 -0.0257  0.3813
  148MOL     C147335   7.306   0.144   0.131  0.3195  0.3648  0.2576
  148MOL     O247336   7.294   0.118   0.267 -0.2009 -0.2337  0.0457
  148MOL     C347337   7.388   0.159   0.367  0.0527  0.3297 -0.2730
  148MOL     C447338   7.447   0.298   0.356 -0.1933 -0.2951  0.2466
  148MOL     C547339   7.344   0.401   0.385  0.3245  0.1761 -0.1603
  148MOL     C647340   7.172   0.099   0.068 -0.6340  0.1220 -0.1009
  148MOL     H747341   7.396   0.100   0.089 -1.2001 -1.8902 -0.7545
  148MOL     H847342   7.340   0.159   0.465  2.6045  0.9843  1.0341
  148MOL     H947343   7.467   0.084   0.360  1.6467  1.8943  0.4915
  148MOL    H1047344   7.492   0.325   0.260  0.1051  0.0543  0.4896
  148MOL    H1147345   7.518   0.301   0.438  0.6489 -1.5992 -0.4128
  148MOL    H1247346   7.394   0.495   0.406  0.3138  0.0065  0.6318
  148MOL    H1347347   7.288   0.373   0.474  0.1215  0.8392 -0.0819
  148MOL    H1447348   7.266   0.404   0.309 -0.4812  0.9361  0.6898
  148MOL    H1547349   7.164   7.819   0.083 -0.1568 -0.0347 -0.9042
  148MOL    H1647350   7.095   0.151   0.125  0.3192  0.5096  0.8343
  148MOL    H1747351   7.310   0.250   0.106 -0.8317  0.7241  1.4791
  148MOL    C1847352   7.163   0.119   7.747  0.0860 -0.6354  0.1746
  148MOL    O1947353   7.273   0.051   7.690 -0.0672 -0.6568 -0.3541
  148MOL    C2047354   7.303   0.096   7.561 -0.1308 -0.5418 -0.4133
  148MOL    C2147355   7.424   0.015   7.520 -0.6322 -0.4468  0.2075
  148MOL    C2247356   7.556   0.055   7.585 -0.1493 -0.5748 -0.0207
  148MOL    C2347357   7.042   0.050   7.687 -0.1269  0.1710 -0.3520
  148MOL    H2447358   7.173   0.226   7.729 -2.5116 -0.4541 -0.4174
  148MOL    H2547359   7.227   0.093   7.483 -1.8188 -0.9149  1.2113
  148MOL    H2647360   7.340   0.199   7.565 -1.8166 -0.0094  2.3100
  148MOL    H2747361   7.444   0.019   7.413  0.2190 -3.5819  0.2143
  148MOL    H2847362   7.405   7.738   7.544  3.1380 -1.1545  0.4042
  148MOL    H2947363   7.594   0.133   7.519 -1.5100  1.3392  1.4276
  148MOL    H3047364   7.625   7.799   7.590  0.2144 -0.2633  0.2116
  148MOL    H3147365   7.545   0.095   7.685  1.6711  2.5581 -1.0092
  148MOL    H3247366   7.020   0.050   7.580 -1.4086 -0.5811 -0.1058
  148MOL    H3347367   7.052   7.770   7.699  0.6095  0.2652 -0.1204
  148MOL    C3447368   6.906   0.087   7.750  0.1181 -0.4971 -0.2273
  148MOL    O3547369   6.895   0.228   7.746  0.0101  0.1038  0.1240
  148MOL    C3647370   6.808   0.282   0.018  0.4981 -0.4032  0.1726
  148MOL    C3747371   6.811   0.430   0.004 -0.2759 -0.0957 -0.0753
  148MOL    C3847372   6.757   0.467   7.694 -0.5690 -0.0891 -0.3072
  148MOL    C3947373   6.774   0.022   7.692  0.2891 -0.4310 -0.9202
  148MOL    H4047374   6.914   0.059   0.027 -2.2150  2.6592  0.8850
  148MOL    H4147375   6.703   0.256   0.006  0.2711  1.2140 -1.6450
  148MOL    H4247376   6.843   0.259   0.119  0.7466 -1.4491 -0.1477
  148MOL    H4347377   6.915   0.457   0.021 -0.0840 -1.1129  0.4095
  148MOL    H4447378   6.751   0.483   0.077  1.7062  0.7370  0.9904
  148MOL    H4547379   6.655   0.435   7.677 -1.2056  1.4893  0.4587
  148MOL    H4647380   6.820   0.418   7.619  0.3275  2.1576 -1.0590
  148MOL    H4747381   6.770   0.575   7.688 -0.1457 -0.0025  1.8054
  148MOL    H4847382   6.686   0.081   7.721  0.7708 -0.2563  0.2290
  148MOL    H4947383   6.786   0.035   7.585  4.1107 -0.9038 -0.5994
  148MOL    C5047384   6.756   7.703   7.728  0.0812 -0.1333  0.2129
  148MOL    O5147385   6.723   7.681   0.039  0.2791 -0.1777  0.2925
  148MOL    C5247386   6.826   7.643   0.128 -0.2550  0.4965  0.2859
  148MOL    C5347387   6.778   7.659   0.270 -0.0744  0.0547 -0.3000
  148MOL    C5447388   6.753   7.809   0.306  0.5050  0.7361 -0.3213
  148MOL    C5547389   6.630   7.636   7.654 -0.3960 -0.2283  0.0152
  148MOL    H5647390   6.839   7.641   7.694  0.5319  1.6743 -2.1169
  148MOL    H5747391   6.843   7.542   0.090 -0.4269  1.0112 -1.1671
  148MOL    H5847392   6.923   7.691   0.118  0.2315 -0.7996 -1.4950
  148MOL    H5947393   6.857   7.617   0.332  0.1312 -1.9682 -1.9210
  148MOL    H6047394   6.692   7.593   0.277  0.5509 -0.7537 -0.2289
  148MOL    H6147395   6.726   7.810   0.412  0.9872  0.2830 -0.1911
  148MOL    H6247396   6.665   0.016   0.252 -3.1797 -3.9476  2.3287
  148MOL    H6347397   6.838   0.048   0.287  0.9806 -0.4744 -2.5997
  148MOL    H6447398   6.615   7.541   7.704 -0.8175 -0.3720 -0.3830
  148MOL    H6547399   6.549   7.705   7.678  0.3391  0.0981  1.6400
  148MOL    C6647400   6.642   7.601   7.502 -0.8751 -0.2336  0.4696
  148MOL    O6747401   6.759   7.514   7.474  0.2278 -0.5558 -0.2140
  148MOL    C6847402   6.837   7.548   7.364 -0.5516  0.0647  1.0112
  148MOL    C6947403   6.936   7.433   7.327  0.7594  0.1445  0.2347
  148MOL    C7047404   7.073   7.459   7.390  0.7028 -0.3459  0.9617
  148MOL    C7147405   6.503   7.560   7.437  0.4476 -0.2900  0.1459
  148MOL    H7247406   6.673   7.692   7.451  0.4558 -0.9610 -0.0530
  148MOL    H7347407   6.770   7.578   7.283  0.4626 -0.4929 -0.0499
  148MOL    H7447408   6.895   7.639   7.383 -1.3938  1.1682 -1.4647
  148MOL    H7547409   6.956   7.419   7.221  0.3350  1.4104 -0.0229
  148MOL    H7647410   6.889   7.339   7.357  1.4380 -0.8330 -1.6740
  148MOL    H7747411   7.079   7.449   7.498 -1.2301 -0.6822  1.0581
  148MOL    H7847412   7.099   7.560   7.360 -1.9997  0.3643  0.9276
  148MOL    H7947413   7.144   7.392   7.342  0.6728 -0.4224  1.0249
  148MOL    H8047414   6.525   7.531   7.334 -0.9527 -0.5199 -0.1045
  148MOL    H8147415   6.477   7.466   7.485  0.4864 -0.4784 -0.2045
  148MOL    C8247416   6.388   7.671   7.455 -0.2084 -0.5664 -0.0129
  148MOL    O8347417   6.432   7.786   7.385 -0.4831  0.0411  0.2488
  148MOL    C8447418   6.438   0.084   7.462 -0.1676  0.1954 -0.5048
  148MOL    C8547419   6.452   0.206   7.378  0.0572  0.1159  0.0817
  148MOL    C8647420   6.561   0.188   7.276 -0.7269  0.1809 -0.7012
  148MOL    C8747421   6.247   7.623   7.407  0.1134 -0.2836  0.0324
  148MOL    H8847422   6.376   7.701   7.560  1.3003  0.3183 -0.0780
  148MOL    H8947423   6.350   0.081   7.526  0.9039 -1.8916  0.9219
  148MOL    H9047424   6.508   0.079   7.545 -0.5260  0.6514 -0.1762
  148MOL    H9147425   6.468   0.295   7.439  0.8123  0.0726 -0.0423
  148MOL    H9247426   6.362   0.227   7.320  0.0106  0.9183  0.4312
  148MOL    H9347427   6.550   0.265   7.200  0.1121  2.9298  1.8619
  148MOL    H9447428   6.559   0.093   7.224 -0.1024 -0.9898  1.3597
  148MOL    H9547429   6.666   0.199   7.302 -0.5955 -1.8787 -0.3052
  148MOL    H9647430   6.181   7.707   7.389  1.8865  0.9088 -1.0294
  148MOL    H9747431   6.261   7.567   7.314  0.6021 -1.3695  0.7421
  148MOL    C9847432   6.177   7.527   7.506 -1.0969 -0.2765 -0.0889
  148MOL    O9947433   6.148   7.597   7.620  0.0756  0.5328 -0.5166
  148MOL   C10047434   6.207   7.561   7.748  0.3602  0.1174  0.6908
  148MOL   C10147435   6.156   7.654   0.029 -0.2033  0.4170  0.1387
  148MOL   C10247436   6.005   7.662   0.043 -0.7540 -0.1025 -0.3272
  148MOL   C10347437   6.050   7.479   7.451  0.2243 -1.0236 -1.3891
  148MOL   H10447438   6.243   7.445   7.531  0.4287  1.5467  2.0370
  148MOL   H10547439   6.176   7.458   7.763  0.9886 -0.4573 -1.8153
  148MOL   H10647440   6.315   7.572   7.750  0.5851 -1.1654 -2.3972
  148MOL   H10747441   6.202   7.746   7.821  3.4647 -0.8332  1.4917
  148MOL   H10847442   6.198   7.633   0.128 -1.7562  1.1045  0.9627
  148MOL   H10947443   5.971   7.719   0.129  0.9458  0.2542  0.1257
  148MOL   H11047444   5.956   7.569   0.072 -2.5295  0.3415 -1.8476
  148MOL   H11147445   5.969   7.706   7.778  1.0212  0.2851 -0.8548
  148MOL   H11247446   5.980   7.562   7.452  0.9921 -0.3625 -1.7257
  148MOL   H11347447   6.073   7.439   7.353  0.8202  0.4661 -1.8649
  148MOL   C11447448   5.973   7.369   7.533 -0.1146 -0.6968 -0.1731
  148MOL   O11547449   5.828   7.375   7.511 -0.6110 -0.2602 -0.2704
  148MOL   C11647450   5.766   7.411   7.630  0.1976  0.4657  0.2198
  148MOL   C11747451   5.616   7.426   7.621  0.9257  0.3137 -0.3917
  148MOL   C11847452   5.537   7.497   7.739  0.0040  0.1374  0.0962
  148MOL   C11947453   6.020   7.224   7.506  0.2970 -0.1553 -0.3595
  148MOL   H12047454   6.000   7.376   7.639  1.2591  0.5323 -0.5773
  148MOL   H12147455   5.793   7.340   7.708 -1.5182 -0.0631  0.3337
  148MOL   H12247456   5.817   7.502   7.663  2.7961 -1.1042  0.6821
  148MOL   H12347457   5.562   7.333   7.603  1.6981 -0.2534  0.2018
  148MOL   H12447458   5.591   7.491   7.537 -2.0296  1.4312  1.2368
  148MOL   H12547459   5.552   7.431   7.825 -1.9303 -0.4219  0.0288
  148MOL   H12647460   5.430   7.500   7.721  0.1995 -0.3843 -1.2023
  148MOL   H12747461   5.563   7.601   7.761  0.9230  0.1800 -1.1377
  148MOL   H12847462   6.014   7.208   7.399 -0.0537  2.4521 -0.7673
  148MOL   H12947463   6.125   7.227   7.534 -0.2126  2.6054  1.4196
  148MOL   C13047464   5.949   7.104   7.573 -0.2438 -0.2700 -0.5758
  148MOL   O13147465   5.993   6.986   7.513  0.9602 -0.8755  0.1609
  148MOL   C13247466   5.901   6.880   7.504  0.3324 -0.1799  0.8710
  148MOL   C13347467   5.800   6.887   7.386 -0.5188 -0.2077  0.1375
  148MOL   C13447468   5.685   6.781   7.377 -0.5040 -0.7547 -0.3614
  148MOL   C13547469   5.987   7.093   7.725  0.3788 -0.2866 -0.6344
  148MOL   H13647470   5.844   7.124   7.549 -0.2708 -0.2131 -0.4076
  148MOL   H13747471   5.961   6.791   7.488 -2.5326 -1.1768 -5.8082
  148MOL   H13847472   5.845   6.870   7.597 -2.1527  0.4387 -0.5168
  148MOL   H13947473   5.867   6.886   7.301 -0.7369  0.4414 -0.0459
  148MOL   H14047474   5.748   6.982   7.394  0.3253  0.3321 -0.7014
  148MOL   H14147475   5.619   6.792   7.463 -0.5304  0.9678 -0.5727
  148MOL   H14247476   5.724   6.680   7.369 -1.5668 -1.2777  0.9387
  148MOL   H14347477   5.626   6.812   7.291 -1.8344  1.2149  1.2138
  148MOL   H14447478   5.952   7.188   7.764 -0.0027 -0.1173 -1.3821
  148MOL   H14547479   5.926   7.022   7.780  0.0574  0.1526 -0.4216
  148MOL   C14647480   6.125   7.077   7.770  0.6784  0.7299  0.4053
  148MOL   O14747481   6.114   7.050   0.081 -0.7985 -0.2584 -0.3158
  148MOL   C14847482   6.229   7.077   0.165 -0.1216  0.4311 -0.2291
  148MOL   C14947483   6.175   7.093   0.303  0.0714  0.2718  0.0364
  148MOL   C15047484   6.057   7.189   0.306 -0.2622 -0.4767  0.2649
  148MOL   C15147485   6.206   6.956   7.709 -0.3732 -0.0077  0.1929
  148MOL   H15247486   6.175   7.174   7.767  2.8431 -0.3714 -0.1204
  148MOL   H15347487   6.299   6.993   0.168  1.2538  1.5731  0.2753
  148MOL   H15447488   6.276   7.171   0.134  0.2836  0.6551  1.0305
  148MOL   H15547489   6.253   7.142   0.362  0.4826 -0.3816  0.0311
  148MOL   H15647490   6.152   6.997   0.348  0.1741 -0.0287 -0.5555
  148MOL   H15747491   6.030   7.215   0.409  0.6136  1.5336  0.0027
  148MOL   H15847492   5.969   7.156   0.251  0.0348 -2.4710  0.9554
  148MOL   H15947493   6.085   7.279   0.251  0.7222 -0.9139  0.0370
  148MOL   H16047494   6.265   6.900   7.783 -1.1642 -2.4687 -0.9813
  148MOL   H16147495   6.143   6.876   7.671 -0.0060  0.1108 -0.6632
  148MOL   C16247496   6.312   7.000   7.606 -0.5976 -0.4876  0.2834
  148MOL   O16347497   6.414   7.073   7.689  0.2557 -0.3810 -0.0925
  148MOL   C16447498   6.490   7.169   7.612 -0.1129 -0.4741  0.5306
  148MOL   C16547499   6.616   7.208   7.681 -0.3321  0.1955 -0.3528
  148MOL   C16647500   6.583   7.259   7.816  0.2276 -0.6096  0.1536
  148MOL   C16747501   6.382   6.873   7.552 -0.5508 -0.1455  0.1151
  148MOL   H16847502   6.273   7.068   7.531  1.4240  0.9980  0.5541
  148MOL   H16947503   6.525   7.132   7.515 -1.0987 -0.5004  0.1750
  148MOL   H17047504   6.421   7.249   7.585 -2.0715 -2.1338  0.4656
  148MOL   H17147505   6.651   7.293   7.621  1.4152  0.2279  0.6706
  148MOL   H17247506   6.698   7.137   7.672 -0.1345  0.4604 -0.6865
  148MOL   H17347507   6.541   7.181   0.050 -1.7558  0.5818  0.3295
  148MOL   H17447508   6.496   7.324   7.812  0.3865 -0.3717  0.5682
  148MOL   H17547509   6.668   7.302   0.043 -0.7475  0.2015  1.0465
  148MOL   H17647510   6.487   6.887   7.527 -0.1676  2.7838  3.0398
  148MOL   H17747511   6.373   6.795   7.627 -0.6709  0.0633  0.3184
  148MOL   C17847512   6.311   6.817   7.424  0.1131  0.2467 -1.4151
  148MOL   O17947513   6.343   6.893   7.309  0.1828 -0.2616  0.2649
  148MOL   C18047514   6.240   6.954   7.239  0.4194 -0.0226  0.1356
  148MOL   C18147515   6.293   7.039   7.122  0.5704 -0.5496 -0.8451
  148MOL   C18247516   6.379   7.157   7.149 -0.0219 -0.1728 -0.3776
  148MOL   C18347517   6.372   6.675   7.396 -0.6214 -0.6312  0.2774
  148MOL   H18447518   6.203   6.803   7.429  0.4847 -2.1129  3.1962
  148MOL   H18547519   6.176   6.875   7.202  1.0980 -0.7341  0.4508
  148MOL   H18647520   6.178   7.011   7.308 -0.7630  0.2516 -1.1438
  148MOL   H18747521   6.209   7.053   7.053 -0.3871 -0.0754  0.3897
  148MOL   H18847522   6.366   6.975   7.072  1.4923 -2.2409  2.5706
  148MOL   H18947523   6.315   7.245   7.146  0.0479 -0.1227 -0.3708
  148MOL   H19047524   6.464   7.174   7.083  0.3355  1.0330  0.3766
  148MOL   H19147525   6.430   7.135   7.243 -2.1322  0.5912  0.9677
  148MOL   H19247526   6.461   6.687   7.335 -1.6044  0.4571 -0.9669
  148MOL   H19347527   6.385   6.631   7.495 -0.6595 -1.9831 -0.3007
  148MOL   C19447528   6.282   6.584   7.311 -0.3010  1.1076 -0.0086
  148MOL   O19547529   6.344   6.474   7.246  0.2779 -0.5729  0.2176
  148MOL   C19647530   6.411   6.375   7.329 -0.2071  0.6674 -0.0017
  148MOL   C19747531   6.439   6.240   7.258 -0.2537 -0.7966 -0.2838
  148MOL   C19847532   6.328   6.170   7.187  0.5707 -0.9964 -0.1252
  148MOL   C19947533   6.152   6.524   7.381 -0.6321  0.2467  0.3680
  148MOL   H20047534   6.243   6.656   7.238 -0.6239  0.5355 -0.4052
  148MOL   H20147535   6.513   6.409   7.348 -0.1466 -0.4630  1.8631
  148MOL   H20247536   6.369   6.351   7.427 -0.7841  1.0475 -0.1544
  148MOL   H20347537   6.487   6.171   7.327 -2.3400 -2.3865 -0.3869
  148MOL   H20447538   6.521   6.261   7.189  0.1723 -1.2419  0.0798
  148MOL   H20547539   6.239   6.172   7.249  0.2897  2.8441 -0.5238
  148MOL   H20647540   6.352   6.064   7.176  0.5242 -0.8488 -1.8661
  148MOL   H20747541   6.301   6.217   7.092 -0.2460  0.8987  1.0161
  148MOL   H20847542   6.192   6.468   7.466 -0.3182  0.3742  0.3033
  148MOL   H20947543   6.099   6.610   7.423 -0.4405 -0.1256  1.3895
  148MOL   C21047544   6.064   6.423   7.313  0.7641  0.5726  0.5767
  148MOL   O21147545   5.977   6.374   7.410 -0.4301 -0.4335 -0.3733
  148MOL   C21247546   6.036   6.251   7.464 -0.0921  0.0717 -0.4019
  148MOL   C21347547   5.950   6.193   7.579  0.4532 -0.1115  0.5428
  148MOL   C21447548   5.952   6.285   7.694  0.1537 -0.1868 -0.3997
  148MOL   C21547549   5.982   6.503   7.202  0.1261 -0.5706 -0.5769
  148MOL   H21647550   6.131   6.352   7.264 -0.0235 -0.3098  0.7644
  148MOL   H21747551   6.044   6.177   7.384  4.2539 -0.4224  0.3263
  148MOL   H21847552   6.137   6.269   7.501  0.1272 -1.7144 -0.0719
  148MOL   H21947553   5.981   6.093   7.609  0.1190  0.1428  1.7446
  148MOL   H22047554   5.847   6.176   7.549  0.3575 -0.4391  1.0601
  148MOL   H22147555   5.873   6.275   7.769  1.9300 -1.2798  1.3785
  148MOL   H22247556   5.953   6.388   7.658  1.9313 -1.0112 -2.8766
  148MOL   H22347557   6.051   6.274   7.739  1.0873  3.2321 -1.4791
  148MOL   H22447558   5.915   6.575   7.250  0.7078 -0.1273 -0.4238
  148MOL   H22547559   6.054   6.548   7.134 -0.0046 -0.7322 -0.8233
  148MOL   C22647560   5.887   6.413   7.125 -0.5421 -0.4731 -0.0753
  148MOL   O22747561   5.939   6.293   7.073  0.3022 -0.3016  0.0891
  148MOL   C22847562   6.035   6.316   6.972  0.1332 -0.2603  0.5890
  148MOL   C22947563   6.072   6.183   6.901 -0.2681  0.4064 -0.0816
  148MOL   C23047564   6.201   6.198   6.817  0.0179  0.2583  0.1399
  148MOL   C23147565   5.765   6.377   7.212 -0.1040  0.1761  0.0136
  148MOL   H23247566   5.844   6.467   7.041 -1.9308 -0.2618  0.7608
  148MOL   H23347567   6.009   6.386   6.892  1.6624  0.3776  0.6330
  148MOL   H23447568   6.123   6.351   7.026 -0.1485 -0.6299  1.2916
  148MOL   H23547569   5.982   6.157   6.846  0.2259 -0.6394 -0.4088
  148MOL   H23647570   6.103   6.105   6.971  1.5263 -0.1961 -1.5175
  148MOL   H23747571   6.292   6.226   6.870  0.1682  0.4923 -0.2409
  148MOL   H23847572   6.192   6.267   6.732  1.3638  0.3501  0.0541
  148MOL   H23947573   6.231   6.104   6.772  0.2783 -0.1433  1.1497
  148MOL   H24047574   5.791   6.294   7.278 -0.6258  0.0021  0.0003
  148MOL   H24147575   5.737   6.454   7.284  0.3038  0.9946 -0.7043
  148MOL   C24247576   5.636   6.337   7.136 -0.8848 -0.7705  0.3187
  148MOL   O24347577   5.596   6.431   7.031 -0.0789 -0.1040 -0.0509
  148MOL   C24447578   5.543   6.555   7.061 -0.6408 -0.3382 -0.3481
  148MOL   C24547579   5.531   6.634   6.930  0.2348 -0.1146 -0.3915
  148MOL   C24647580   5.672   6.656   6.863  0.0073  0.1609  0.5807
  148MOL   C24747581   5.653   6.201   7.067  0.3685 -0.1931 -0.0851
  148MOL   H24847582   5.554   6.332   7.208 -2.7396  0.8695 -1.6234
  148MOL   H24947583   5.445   6.544   7.107 -0.8140 -1.2524 -0.9250
  148MOL   H25047584   5.612   6.602   7.131 -2.1438  2.5386 -0.7044
  148MOL   H25147585   5.495   6.733   6.960 -1.7978 -1.3608  1.3906
  148MOL   H25247586   5.455   6.599   6.860  1.4312 -1.2845 -1.1292
  148MOL   H25347587   5.670   6.707   6.767 -2.4272 -0.7329  0.1232
  148MOL   H25447588   5.725   6.561   6.851  1.1703  0.9161 -0.3258
  148MOL   H25547589   5.728   6.727   6.925  0.3046  0.3249  0.1257
  148MOL   H25647590   5.687   6.233   6.968  2.0272  0.6894  0.7288
  148MOL   H25747591   5.731   6.140   7.112 -0.1061 -0.5854  0.2054
  148MOL   C25847592   5.525   6.118   7.056  0.3538 -0.1391 -0.2850
  148MOL   O25947593   5.477   6.080   7.191 -0.6530 -0.1567  0.3571
  148MOL   C26047594   5.562   5.983   7.253  0.1844  0.5228  0.1978
  148MOL   C26147595   5.454   5.889   7.322 -1.1707 -0.4879 -0.3069
  148MOL   C26247596   5.379   5.807   7.221  0.1665 -0.2428  0.1346
  148MOL   C26347597   5.410   6.201   6.981 -0.4331 -0.3004 -0.2489
  148MOL   H26447598   5.544   6.033   6.990 -2.8577 -1.4517  0.3872
  148MOL   H26547599   5.618   5.936   7.172  0.2261  1.9377 -0.6196
  148MOL   H26647600   5.631   6.024   7.328 -1.2992 -0.1168  1.9374
  148MOL   H26747601   5.382   5.945   7.382 -1.4660 -3.1420  1.8824
  148MOL   H26847602   5.499   5.822   7.395 -2.2330 -0.7774  0.0893
  148MOL   H26947603   5.328   5.873   7.151  0.1056 -1.0719 -0.6039
  148MOL   H27047604   5.302   5.745   7.267  1.3663 -1.5261  0.4315
  148MOL   H27147605   5.453   5.744   7.172  0.4972  0.5934 -0.4578
  148MOL   H27247606   5.398   6.298   7.028 -2.3793 -0.1520 -0.9822
  148MOL   H27347607   5.449   6.212   6.879  3.2042  0.6095  1.1663
  148MOL   C27447608   5.264   6.132   6.974 -0.1606 -0.1039 -0.2294
  148MOL   O27547609   5.179   6.206   7.055  0.5663  0.1493 -0.2120
  148MOL   C27647610   5.191   6.178   7.194  0.4695 -0.1519  0.1853
  148MOL   C27747611   5.061   6.232   7.259 -0.0940  0.7801 -0.1553
  148MOL   C27847612   5.021   6.164   7.394 -0.3142  0.5291  0.0741
  148MOL   C27947613   5.197   6.144   6.835 -0.0180  0.5721  0.3499
  148MOL   H28047614   5.267   6.027   7.005  0.4936  0.4086  1.4784
  148MOL   H28147615   5.188   6.070   7.213  0.6517 -0.4873 -1.5572
  148MOL   H28247616   5.280   6.222   7.238 -0.0374 -0.3048  1.3792
  148MOL   H28347617   4.973   6.224   7.195 -1.6388  2.2597  1.7131
  148MOL   H28447618   5.066   6.340   7.271  0.6692  1.1484 -3.3192
  148MOL   H28547619   4.943   6.215   7.453 -0.2803  0.7231 -0.0500
  148MOL   H28647620   5.109   6.175   7.457  0.3020 -0.9038 -0.5282
  148MOL   H28747621   4.998   6.058   7.393 -1.0346  0.6720  0.3015
  148MOL   H28847622   5.093   6.114   6.847  0.3038  0.4466  3.1564
  148MOL   H28947623   5.186   6.247   6.800  0.0518  0.6438  0.5401
  148MOL   C29047624   5.241   6.040   6.732 -0.2127 -0.4795  0.0725
  148MOL   O29147625   5.232   5.911   6.795 -0.4405 -0.5111  0.4937
  148MOL   C29247626   5.352   5.830   6.787  0.1174  0.2506 -0.5800
  148MOL   C29347627   5.288   5.693   6.789 -0.5130 -0.3054  0.2117
  148MOL   C29447628   5.385   5.574   6.804 -0.3482  0.3857  0.4240
  148MOL   C29547629   5.146   6.038   6.606  0.0310  0.3145  0.0002
  148MOL   H29647630   5.340   6.065   6.695  0.7483 -1.0775  2.1870
  148MOL   H29747631   5.406   5.829   6.693 -0.4982 -0.2232 -0.9373
  148MOL   H29847632   5.419   5.849   6.871 -1.6187 -0.5311  1.0291
  148MOL   H29947633   5.249   5.673   6.690 -0.3773 -1.7320  0.4312
  148MOL   H30047634   5.219   5.690   6.874 -1.2904  1.4088 -0.3473
  148MOL   H30147635   5.449   5.572   6.716  0.9441  1.1272  1.3063
  148MOL   H30247636   5.334   5.479   6.815  0.4443 -0.5217 -3.3839
  148MOL   H30347637   5.448   5.600   6.890 -0.2491  1.1214  0.1363
  148MOL   H30447638   5.204   5.968   6.546  3.0926  1.8644  1.0509
  148MOL   H30547639   5.052   5.986   6.627  1.4058 -1.2267  2.5554
  148MOL   C30647640   5.121   6.163   6.529  0.3397  0.1204 -0.0576
  148MOL   O30747641   5.246   6.213   6.490  0.0672 -0.1082  0.0449
  148MOL   C30847642   5.305   6.323   6.554  0.0399 -0.4849 -0.9618
  148MOL   C30947643   5.238   6.461   6.537 -0.0162 -0.0581  0.4475
  148MOL   C31047644   5.339   6.578   6.574 -0.7888 -0.3019  0.4846
  148MOL   C31147645   5.036   6.155   6.401  0.8542 -0.0930 -0.6003
  148MOL   H31247646   5.081   6.230   6.604  1.7157  0.0996  0.7022
  148MOL   H31347647   5.314   6.305   6.661  0.1623  1.9142 -0.5543
  148MOL   H31447648   5.409   6.327   6.521 -0.3486  1.6302 -1.9889
  148MOL   H31547649   5.147   6.461   6.598 -1.9874 -1.1128 -2.3743
  148MOL   H31647650   5.189   6.477   6.441 -0.0352  2.9190  0.9109
  148MOL   H31747651   5.437   6.576   6.527 -0.5816 -0.4305  0.9233
  148MOL   H31847652   5.346   6.606   6.679  2.6606  1.3266 -0.1104
  148MOL   H31947653   5.298   6.656   6.510 -0.1278  0.2310  0.7117
  148MOL   H32047654   5.072   6.072   6.339 -0.0822 -1.8498  1.1596
  148MOL   H32147655   4.931   6.138   6.423  1.0549  1.5030  1.7565
  148MOL   H32247656   5.051   6.243   6.339 -2.2278  1.4475  0.7856
  149MOL     C147657   6.299   6.048   3.626  0.0781  0.0324  0.1355
  149MOL     O247658   6.267   6.151   3.721  0.6742  0.6868 -0.3798
  149MOL     C347659   6.222   6.098   3.841 -0.3297  0.2053  0.0348
  149MOL     C447660   6.159   6.204   3.939  0.8403 -0.1381 -0.6794
  149MOL     C547661   6.006   6.224   3.917 -0.0688  0.2562  0.1399
  149MOL     C647662   6.171   6.035   3.540 -0.2573  0.4628 -0.1924
  149MOL     H747663   6.332   5.947   3.650  0.2868  0.1350  0.2751
  149MOL     H847664   6.135   6.037   3.817 -0.7620 -0.1579  2.4201
  149MOL     H947665   6.293   6.041   3.900 -1.2501 -0.3197  0.6474
  149MOL    H1047666   6.202   6.303   3.935  0.0350  0.1607 -2.4142
  149MOL    H1147667   6.186   6.165   4.037  2.7266  2.2704 -0.2063
  149MOL    H1247668   5.978   6.299   3.990 -0.6514 -0.3485  0.5319
  149MOL    H1347669   5.950   6.133   3.937 -0.6144  0.5432 -0.0921
  149MOL    H1447670   5.973   6.243   3.815  1.8017  0.5251 -0.4368
  149MOL    H1547671   6.110   5.954   3.578  2.0253 -1.8581 -1.3110
  149MOL    H1647672   6.106   6.119   3.565  0.8720  0.4995  2.7840
  149MOL    H1747673   6.382   6.091   3.569  0.0324  0.0696  0.0979
  149MOL    C1847674   6.185   6.029   3.387 -0.2404  0.5321 -0.5333
  149MOL    O1947675   6.253   5.905   3.362 -0.0164  0.2866  0.6984
  149MOL    C2047676   6.393   5.923   3.314  0.1158 -0.4963 -0.1664
  149MOL    C2147677   6.445   5.796   3.235 -0.9905 -0.1369  0.1506
  149MOL    C2247678   6.420   5.660   3.309 -0.1770 -0.2334  0.2476
  149MOL    C2347679   6.045   6.015   3.332 -0.4795  0.0681 -0.5547
  149MOL    H2447680   6.238   6.117   3.351 -1.7361  1.2475 -1.0576
  149MOL    H2547681   6.421   6.017   3.267  1.0703 -0.8232 -0.2764
  149MOL    H2647682   6.448   5.937   3.407 -2.8154 -0.3683  1.6090
  149MOL    H2747683   6.549   5.796   3.205 -0.7175 -0.1810  1.0957
  149MOL    H2847684   6.388   5.795   3.142 -0.8259  0.6881  0.0381
  149MOL    H2947685   6.455   5.570   3.259  0.7043 -0.2233  0.8468
  149MOL    H3047686   6.313   5.652   3.332  0.2424  0.3301  2.5397
  149MOL    H3147687   6.459   5.666   3.411  1.2362 -0.3881 -0.2750
  149MOL    H3247688   5.992   5.931   3.378  0.0546  0.9859  1.7905
  149MOL    H3347689   5.996   6.109   3.359  1.1638  0.8026 -0.0909
  149MOL    C3447690   6.030   5.987   3.180 -0.4892  0.4933 -0.5898
  149MOL    O3547691   5.892   5.979   3.146  0.0636 -0.3973 -0.5896
  149MOL    C3647692   5.828   5.846   3.158 -0.0469  0.3392 -0.1629
  149MOL    C3747693   5.692   5.865   3.097  0.6273 -0.1388  0.0035
  149MOL    C3847694   5.694   5.915   2.949  0.3743  0.1163  0.0279
  149MOL    C3947695   6.070   6.116   3.101  0.8681 -0.1464  0.3977
  149MOL    H4047696   6.086   5.904   3.136  2.5079  1.6319  0.9231
  149MOL    H4147697   5.883   5.776   3.094 -0.0941 -0.1098  0.2853
  149MOL    H4247698   5.831   5.808   3.260 -0.7901  0.0022 -0.2685
  149MOL    H4347699   5.630   5.916   3.170  0.8436  0.3948 -0.1830
  149MOL    H4447700   5.641   5.769   3.098 -1.1023  0.7659  0.3907
  149MOL    H4547701   5.696   6.024   2.948 -1.1532  0.1386 -1.0166
  149MOL    H4647702   5.604   5.879   2.899  0.4982  0.4787 -0.4541
  149MOL    H4747703   5.775   5.883   2.884 -2.3645 -1.7478 -2.5674
  149MOL    H4847704   6.007   6.204   3.116 -1.2331 -1.3490 -1.0829
  149MOL    H4947705   6.171   6.144   3.131  0.7038  1.5534 -0.5390
  149MOL    C5047706   6.077   6.100   2.951 -0.1533 -0.3597  0.0256
  149MOL    O5147707   6.061   6.227   2.887  0.3792  0.2553 -0.3264
  149MOL    C5247708   5.934   6.240   2.820  0.5235 -0.6727  0.3156
  149MOL    C5347709   5.920   6.355   2.722  0.0376 -0.0587  0.3893
  149MOL    C5447710   5.800   6.341   2.630 -0.5137 -0.0794 -0.6374
  149MOL    C5547711   6.220   6.044   2.916  0.0537  0.0356  0.4809
  149MOL    H5647712   6.002   6.033   2.910  1.1194 -0.8185 -1.6085
  149MOL    H5747713   5.906   6.149   2.768  1.9376  0.5032 -2.6072
  149MOL    H5847714   5.856   6.255   2.894 -0.7456  0.8260 -1.2896
  149MOL    H5947715   6.011   6.372   2.663 -0.0044 -2.1298 -0.3153
  149MOL    H6047716   5.905   6.440   2.787 -0.5639  0.5214 -0.4984
  149MOL    H6147717   5.817   6.252   2.570  1.1265  0.8211 -1.5649
  149MOL    H6247718   5.791   6.425   2.561  1.4858  1.3480  0.7667
  149MOL    H6347719   5.706   6.337   2.685 -0.5528  0.9114 -0.6276
  149MOL    H6447720   6.287   6.118   2.959 -1.6187  1.4598  0.7040
  149MOL    H6547721   6.225   5.952   2.974  1.5942 -0.1971 -0.0053
  149MOL    C6647722   6.246   6.020   2.764  0.3739  0.0756  0.4627
  149MOL    O6747723   6.382   5.976   2.741 -0.3056  0.2938 -0.6896
  149MOL    C6847724   6.476   6.077   2.714 -0.4790  0.2994  0.0832
  149MOL    C6947725   6.612   6.019   2.757 -0.3436 -0.1075  0.1611
  149MOL    C7047726   6.635   6.047   2.904  0.1691 -0.1883  0.4606
  149MOL    C7147727   6.151   5.914   2.699 -0.4858 -0.0694  0.2699
  149MOL    H7247728   6.225   6.116   2.716  1.2097  0.5552  1.0268
  149MOL    H7347729   6.472   6.100   2.608  2.7497  0.1466 -0.1331
  149MOL    H7447730   6.460   6.173   2.762 -2.0539  0.8812 -1.5673
  149MOL    H7547731   6.693   6.059   2.696 -0.9329  1.1568  0.1938
  149MOL    H7647732   6.600   5.912   2.741 -1.3582  0.1342 -0.7483
  149MOL    H7747733   6.544   6.040   2.964 -1.0663 -0.9956 -1.4493
  149MOL    H7847734   6.661   6.152   2.914  1.2472 -0.6503  2.8731
  149MOL    H7947735   6.707   5.989   2.961 -0.2523  0.4156  1.6190
  149MOL    H8047736   6.189   5.818   2.732 -2.4677 -0.8494  0.3194
  149MOL    H8147737   6.050   5.925   2.738 -0.5101 -1.1209  0.5063
  149MOL    C8247738   6.149   5.908   2.543 -0.2392 -0.0074 -0.3952
  149MOL    O8347739   6.076   5.787   2.503 -0.0276 -0.4170  1.0641
  149MOL    C8447740   6.146   5.672   2.489 -0.0233  0.4303  0.3814
  149MOL    C8547741   6.065   5.581   2.393 -0.4126 -0.0681 -0.0547
  149MOL    C8647742   6.022   5.647   2.262 -0.0273 -0.0158  0.7855
  149MOL    C8747743   6.086   6.036   2.479 -0.0901  0.4918 -0.0704
  149MOL    H8847744   6.254   5.904   2.514  0.4380  0.8332  1.8277
  149MOL    H8947745   6.246   5.684   2.448  0.1265  2.0151  1.1860
  149MOL    H9047746   6.141   5.646   2.595 -2.3296 -0.5942  0.0368
  149MOL    H9147747   5.974   5.546   2.442  0.0898  1.0609  1.7692
  149MOL    H9247748   6.131   5.496   2.372 -0.7927 -0.0914 -1.1812
  149MOL    H9347749   5.956   5.583   2.204 -3.0149  0.8521  3.0870
  149MOL    H9447750   6.103   5.665   2.191 -3.2028  0.0917 -2.9774
  149MOL    H9547751   5.952   5.730   2.273  0.1274  0.2134  0.0944
  149MOL    H9647752   5.983   6.054   2.509 -0.4468 -0.7437 -0.5217
  149MOL    H9747753   6.131   6.129   2.514 -0.6192  0.4941  0.6168
  149MOL    C9847754   6.088   6.025   2.325  0.2719 -0.1538  0.6217
  149MOL    O9947755   5.984   6.110   2.264  0.0509  0.0825  0.2911
  149MOL   C10047756   5.865   6.046   2.222  0.4043  0.1990 -0.0505
  149MOL   C10147757   5.759   6.142   2.171 -0.1082  0.6342 -0.0969
  149MOL   C10247758   5.759   6.275   2.233 -0.4149  0.4839  0.2830
  149MOL   C10347759   6.220   6.080   2.269 -0.5582  0.0774  0.2560
  149MOL   H10447760   6.063   5.923   2.296  0.9898 -1.2789  3.7965
  149MOL   H10547761   5.883   5.961   2.156 -2.9169 -0.4134 -0.2586
  149MOL   H10647762   5.824   6.002   2.313  1.4262  0.9186  0.7598
  149MOL   H10747763   5.667   6.084   2.166  0.5159 -0.1834 -2.7796
  149MOL   H10847764   5.790   6.160   2.068 -0.1309  2.2529  0.1579
  149MOL   H10947765   5.736   6.266   2.339  1.6659  2.6892  0.9644
  149MOL   H11047766   5.684   6.342   2.192  0.4467  0.4416 -1.4189
  149MOL   H11147767   5.856   6.324   2.225  0.5144 -1.4748 -0.8170
  149MOL   H11247768   6.212   6.187   2.284 -2.6323  0.2410 -1.7288
  149MOL   H11347769   6.310   6.046   2.320  0.5510  1.7071 -0.5695
  149MOL   C11447770   6.236   6.055   2.115  0.0491 -0.1759 -0.0891
  149MOL   O11547771   6.341   6.135   2.074 -0.3940 -0.2517 -0.0690
  149MOL   C11647772   6.298   6.259   2.018  0.6609  0.5005  0.5748
  149MOL   C11747773   6.402   6.366   2.036  0.5413 -0.2613  0.1843
  149MOL   C11847774   6.409   6.424   2.185  0.5846  0.5814  0.3558
  149MOL   C11947775   6.256   5.908   2.083  0.3305 -0.1000 -0.4832
  149MOL   H12047776   6.143   6.083   2.066  1.5576  1.8422 -1.8978
  149MOL   H12147777   6.268   6.242   1.915 -0.4307  1.9551  0.6384
  149MOL   H12247778   6.205   6.296   2.061  0.9478 -0.9001  2.4990
  149MOL   H12347779   6.374   6.449   1.971  0.8956  0.3265  0.7765
  149MOL   H12447780   6.499   6.333   1.999  0.8674  1.1934 -0.2584
  149MOL   H12547781   6.448   6.352   2.257 -0.4559  0.5387  0.8925
  149MOL   H12647782   6.308   6.449   2.218  0.7250  2.0743 -0.3115
  149MOL   H12747783   6.478   6.508   2.184 -1.7457  2.6387  3.5327
  149MOL   H12847784   6.358   5.884   2.113 -0.5699 -0.7621  2.1923
  149MOL   H12947785   6.205   5.836   2.148  0.4510  0.0009 -0.2758
  149MOL   C13047786   6.234   5.863   1.940  0.7501 -0.1085  0.6627
  149MOL   O13147787   6.097   5.887   1.921  0.1727 -0.2644 -0.3379
  149MOL   C13247788   6.020   5.803   1.834 -0.2555  0.5752 -0.1395
  149MOL   C13347789   5.872   5.837   1.843 -0.4474  0.4418  0.0066
  149MOL   C13447790   5.847   5.990   1.842  0.5598  0.2574  0.3800
  149MOL   C13547791   6.313   5.933   1.827  0.1871 -0.3161 -0.2256
  149MOL   H13647792   6.258   5.757   1.936  0.2478 -0.2793  2.0156
  149MOL   H13747793   6.070   5.825   1.740 -0.0309 -0.5306 -0.2897
  149MOL   H13847794   6.034   5.695   1.842  3.3469  0.5607 -4.3095
  149MOL   H13947795   5.832   5.791   1.933  1.3933  0.6286  0.9470
  149MOL   H14047796   5.832   5.780   1.759 -1.2605  1.9556 -0.6543
  149MOL   H14147797   5.902   6.039   1.923  0.0634 -0.1295  0.9548
  149MOL   H14247798   5.742   6.017   1.850 -0.1508 -2.3250  0.2975
  149MOL   H14347799   5.888   6.026   1.747  0.8282  1.3586  0.9046
  149MOL   H14447800   6.249   5.946   1.740 -0.3196  0.3074  0.2349
  149MOL   H14547801   6.345   6.033   1.853 -0.1320 -1.1511  3.8064
  149MOL   C14647802   6.432   5.846   1.772  0.4161  0.7781 -0.4917
  149MOL   O14747803   6.367   5.733   1.715 -0.0524  0.2350  0.0570
  149MOL   C14847804   6.434   5.612   1.696  0.9448  0.3989  0.1126
  149MOL   C14947805   6.357   5.511   1.604 -0.1107  0.1488  0.5864
  149MOL   C15047806   6.219   5.459   1.633  0.1227 -0.3225  0.3329
  149MOL   C15147807   6.515   5.906   1.657 -0.2078  0.1451 -0.5960
  149MOL   H15247808   6.486   5.802   1.857  0.3444  1.4822 -0.0795
  149MOL   H15347809   6.534   5.626   1.655  1.0886  2.7671  1.1766
  149MOL   H15447810   6.450   5.559   1.791 -1.0403  0.6106  0.5870
  149MOL   H15547811   6.430   5.431   1.592 -1.4107 -1.1273  1.0763
  149MOL   H15647812   6.336   5.553   1.506  2.2566  0.5805  0.2467
  149MOL   H15747813   6.141   5.536   1.631 -0.1722 -0.6312 -1.4923
  149MOL   H15847814   6.209   5.414   1.732 -0.9266 -1.2852 -0.2011
  149MOL   H15947815   6.196   5.392   1.550 -1.2197 -0.2982  0.6785
  149MOL   H16047816   6.579   5.829   1.614  2.0987  1.1598  0.9089
  149MOL   H16147817   6.434   5.936   1.591 -1.9365  0.3483  1.5414
  149MOL   C16247818   6.609   6.011   1.706  0.1250  0.7303 -0.3184
  149MOL   O16347819   6.711   5.948   1.782 -0.4154 -0.7205  0.8073
  149MOL   C16447820   6.703   5.966   1.923 -0.4468  0.5747 -0.8739
  149MOL   C16547821   6.800   5.878   2.000  0.4072 -0.4913  0.1381
  149MOL   C16647822   6.748   5.737   2.011  0.2898 -0.0664 -0.7296
  149MOL   C16747823   6.677   6.079   1.590 -0.6416 -0.3562 -0.4344
  149MOL   H16847824   6.548   6.082   1.761 -0.9668  0.2741 -0.9177
  149MOL   H16947825   6.705   6.072   1.951  0.1794  0.3569 -0.1001
  149MOL   H17047826   6.611   5.937   1.974  1.4521 -2.0810  1.2129
  149MOL   H17147827   6.817   5.917   2.101  0.5984  1.0157 -0.4643
  149MOL   H17247828   6.897   5.878   1.951  0.6825  0.7537  0.6625
  149MOL   H17347829   6.788   5.685   1.924 -1.8829 -1.4667 -0.9199
  149MOL   H17447830   6.642   5.717   2.023  0.0937  1.2187 -0.3057
  149MOL   H17547831   6.792   5.685   2.097 -0.4155  1.0358  0.3096
  149MOL   H17647832   6.756   6.027   1.537  0.2180  0.1830  0.3188
  149MOL   H17747833   6.611   6.117   1.512  0.5349  0.5865 -0.9852
  149MOL   C17847834   6.757   6.208   1.631  0.1178  0.0083  0.3869
  149MOL   O17947835   6.816   6.261   1.514 -0.7725 -0.6258  0.0153
  149MOL   C18047836   6.956   6.250   1.488  0.1100  0.0357  0.3908
  149MOL   C18147837   6.999   6.332   1.365  0.2078  0.4450 -0.3548
  149MOL   C18247838   6.936   6.279   1.234 -0.1588  0.2897 -0.0434
  149MOL   C18347839   6.680   6.312   1.707  0.0299  0.1832 -0.0341
  149MOL   H18447840   6.825   6.167   1.705 -0.5752  0.1452  1.1176
  149MOL   H18547841   7.005   6.291   1.576  0.4519  0.8509 -0.1766
  149MOL   H18647842   6.981   6.144   1.479 -1.2979 -0.2989  0.3032
  149MOL   H18747843   7.108   6.337   1.360  0.1954 -0.0201 -1.1114
  149MOL   H18847844   6.971   6.436   1.379 -0.7615  0.3445 -1.5197
  149MOL   H18947845   6.841   6.331   1.222 -1.3763 -1.6140  1.0666
  149MOL   H19047846   6.916   6.172   1.244 -0.8917  0.5099  0.8500
  149MOL   H19147847   6.994   6.307   1.146  0.6852  0.6953  0.6275
  149MOL   H19247848   6.602   6.349   1.641 -0.0590  0.6565  0.3337
  149MOL   H19347849   6.630   6.266   1.793  2.0287 -3.8942 -0.9159
  149MOL   C19447850   6.761   6.433   1.764  0.7541  0.3266  1.0799
  149MOL   O19547851   6.670   6.544   1.746 -0.7341  0.2657 -0.3540
  149MOL   C19647852   6.712   6.620   1.635  0.5959 -0.2133 -0.2708
  149MOL   C19747853   6.730   6.758   1.699  0.4325 -0.0309  0.5350
  149MOL   C19847854   6.599   6.821   1.742  0.2330  0.0646  0.1787
  149MOL   C19947855   6.785   6.416   1.912  0.0683 -0.6232 -0.3632
  149MOL   H20047856   6.859   6.439   1.718  0.5142  2.1561  0.7664
  149MOL   H20147857   6.808   6.590   1.593  0.7156 -0.8698  0.4580
  149MOL   H20247858   6.637   6.627   1.557 -1.5067 -3.7604  1.3120
  149MOL   H20347859   6.782   6.826   1.632  0.0658 -1.2810 -1.0563
  149MOL   H20447860   6.790   6.742   1.789 -0.9582  0.1904  1.5215
  149MOL   H20547861   6.545   6.744   1.799 -1.2235  0.1805 -1.0063
  149MOL   H20647862   6.540   6.855   1.657  0.8268  0.5688 -0.0306
  149MOL   H20747863   6.624   6.903   1.809 -1.5103  1.4969 -0.8922
  149MOL   H20847864   6.689   6.422   1.965  0.0202 -2.3081 -0.2500
  149MOL   H20947865   6.821   6.316   1.935 -0.6023 -0.9919 -0.8977
  149MOL   C21047866   6.877   6.522   1.970  0.0371 -0.6745 -0.2103
  149MOL   O21147867   6.874   6.502   2.110  0.2249  0.1788 -0.3522
  149MOL   C21247868   6.905   6.624   2.186  0.1222 -0.3108 -0.4924
  149MOL   C21347869   6.987   6.582   2.311  0.2241  0.0985 -0.5182
  149MOL   C21447870   7.124   6.516   2.287  0.4754  0.1701  0.9482
  149MOL   C21547871   7.016   6.512   1.911 -0.8631 -0.7131 -0.0056
  149MOL   H21647872   6.833   6.621   1.960 -0.5700 -0.6051  2.7611
  149MOL   H21747873   6.969   6.693   2.130  1.9854 -0.8790  0.9140
  149MOL   H21847874   6.816   6.668   2.230  2.0483  2.7691  0.5374
  149MOL   H21947875   6.922   6.511   2.363 -1.0829  1.1154 -0.7325
  149MOL   H22047876   7.007   6.668   2.375 -0.0129 -1.6092  1.9195
  149MOL   H22147877   7.199   6.583   2.244  0.0495 -1.3113 -2.2688
  149MOL   H22247878   7.104   6.428   2.226 -0.8766 -0.2584  1.9875
  149MOL   H22347879   7.164   6.466   2.375 -0.5948 -0.9457  0.8045
  149MOL   H22447880   7.077   6.495   2.000  1.1612 -0.9304 -1.3828
  149MOL   H22547881   7.036   6.431   1.840 -0.2595 -0.7530  0.2057
  149MOL   C22647882   7.064   6.644   1.840 -0.0897 -0.3346 -1.0295
  149MOL   O22747883   7.058   6.756   1.930 -0.0151 -0.2911  0.4450
  149MOL   C22847884   7.074   6.882   1.878  0.8127  0.9051  0.7153
  149MOL   C22947885   6.975   6.974   1.949 -0.0946  0.4131 -0.0717
  149MOL   C23047886   7.009   7.123   1.929 -0.2283 -0.0815 -0.2941
  149MOL   C23147887   7.207   6.630   1.759 -0.2899  0.0720 -0.5874
  149MOL   H23247888   6.989   6.670   1.765 -3.2995 -1.3885  1.7279
  149MOL   H23347889   7.177   6.912   1.899  1.4842  1.0924 -2.6812
  149MOL   H23447890   7.065   6.891   1.770  4.2680 -0.0483  0.2792
  149MOL   H23547891   6.966   6.961   2.057 -3.0088 -0.0401 -0.3133
  149MOL   H23647892   6.873   6.945   1.920 -0.6443  0.8382  1.4073
  149MOL   H23747893   7.097   7.143   1.990  0.7420 -0.3813 -1.5759
  149MOL   H23847894   6.923   7.185   1.956  1.8556  2.1736  1.4711
  149MOL   H23947895   7.033   7.147   1.826 -0.8294 -2.1031 -0.9280
  149MOL   H24047896   7.201   6.560   1.675  4.4565 -1.4953  0.2201
  149MOL   H24147897   7.242   6.726   1.720  2.0924 -0.2816  0.5883
  149MOL   C24247898   7.328   6.570   1.837  0.9857  0.6785 -0.7236
  149MOL   O24347899   7.439   6.559   1.746 -0.0586 -0.0973  0.2131
  149MOL   C24447900   7.457   6.426   1.703 -0.1358 -0.0156 -0.3603
  149MOL   C24547901   7.578   6.424   1.604  0.1776 -0.3018 -0.4055
  149MOL   C24647902   7.703   6.467   1.689 -0.4867 -0.0363 -0.5432
  149MOL   C24747903   7.373   6.642   1.968 -0.3438  0.1774 -0.1790
  149MOL   H24847904   7.290   6.473   1.870  1.9582 -0.2493 -2.3021
  149MOL   H24947905   7.466   6.362   1.790  1.1325 -0.4478 -0.7991
  149MOL   H25047906   7.368   6.391   1.651 -1.1794  1.6058  0.2833
  149MOL   H25147907   7.563   6.491   1.519 -1.2227 -2.4114 -1.9042
  149MOL   H25247908   7.589   6.329   1.550  1.6516  1.2840 -2.9951
  149MOL   H25347909   7.733   6.380   1.747  1.5389  0.9733 -0.0334
  149MOL   H25447910   7.696   6.549   1.760 -0.8013 -2.1789  1.9610
  149MOL   H25547911   7.775   6.497   1.612  0.4925 -1.6136 -0.2588
  149MOL   H25647912   7.405   6.738   1.928  1.3289 -1.2293 -2.3781
  149MOL   H25747913   7.290   6.671   2.032  0.8200 -0.3531  1.5828
  149MOL   C25847914   7.500   6.573   2.034  0.2153 -0.5040 -0.6646
  149MOL   O25947915   7.559   6.659   2.127 -0.6093 -0.0997  0.5454
  149MOL   C26047916   7.648   6.756   2.064  0.5577 -0.5071 -0.0544
  149MOL   C26147917   7.745   6.795   2.180  0.8154 -0.3003  1.2747
  149MOL   C26247918   7.819   6.683   2.235 -0.3807 -0.2372  0.4125
  149MOL   C26347919   7.457   6.435   2.102  0.1697  0.3241  0.2859
  149MOL   H26447920   7.561   6.556   1.945  0.5810 -0.4518 -0.4249
  149MOL   H26547921   7.705   6.721   1.978 -1.0618 -2.8836 -0.1938
  149MOL   H26647922   7.585   6.843   2.044  1.1010  0.2351  1.3788
  149MOL   H26747923   7.694   6.855   2.256 -0.5541  0.3808 -0.1486
  149MOL   H26847924   7.825   6.862   2.147  0.9190 -1.2908 -0.5723
  149MOL   H26947925   7.752   6.623   2.297 -1.2656 -0.2915 -0.5797
  149MOL   H27047926   0.080   6.710   2.292 -0.8323  1.3578  0.3898
  149MOL   H27147927   0.024   6.627   2.147 -0.5474  1.2193 -0.5893
  149MOL   H27247928   7.394   6.452   2.190 -1.0200  0.5988 -0.5995
  149MOL   H27347929   7.405   6.362   2.040  2.1291  0.4681 -1.5573
  149MOL   C27447930   7.583   6.355   2.151 -0.0091 -0.3567 -0.4737
  149MOL   O27547931   7.541   6.244   2.242  0.1229 -0.5635 -0.3777
  149MOL   C27647932   7.512   6.296   2.374 -0.9332  0.6048 -0.1506
  149MOL   C27747933   7.593   6.227   2.483  0.1352 -0.0146 -0.0034
  149MOL   C27847934   7.571   6.289   2.621  0.2806  0.1420 -0.8810
  149MOL   C27947935   7.653   6.298   2.025  0.3588  0.1033 -0.3854
  149MOL   H28047936   7.643   6.428   2.205  0.6136 -1.7190  0.7159
  149MOL   H28147937   7.506   6.404   2.390 -1.2779  0.5047  0.4095
  149MOL   H28247938   7.411   6.267   2.400 -0.4454  1.7766  3.4264
  149MOL   H28347939   7.697   6.242   2.452  0.3065 -1.4485 -0.1566
  149MOL   H28447940   7.570   6.121   2.474  2.1364 -0.3560 -1.4538
  149MOL   H28547941   7.551   6.396   2.614 -1.1700  0.0295  1.0724
  149MOL   H28647942   7.663   6.303   2.677  0.2852  1.9185 -1.2891
  149MOL   H28747943   7.490   6.242   2.676 -0.0030  0.9947 -0.5558
  149MOL   H28847944   7.584   6.219   1.995  0.1509 -0.1356  0.6816
  149MOL   H28947945   7.657   6.371   1.945  1.2838  0.2205 -0.2394
  149MOL   C29047946   7.798   6.236   2.041 -0.3171  0.0281 -0.2672
  149MOL   O29147947   7.821   6.148   1.926 -0.3911  0.7497  0.0495
  149MOL   C29247948   7.800   6.006   1.951 -0.1376  0.4487 -0.0705
  149MOL   C29347949   7.816   5.933   1.816 -0.5207 -0.4161  0.0899
  149MOL   C29447950   7.715   5.987   1.708  0.5463  0.1223  0.9323
  149MOL   C29547951   0.079   6.338   2.052 -0.0327 -0.3334 -0.2745
  149MOL   H29647952   7.814   6.187   2.137  0.5707 -0.1099 -0.4853
  149MOL   H29747953   0.055   5.978   2.015 -0.1567  0.2305 -0.1424
  149MOL   H29847954   7.699   5.973   1.974 -0.1528 -0.9855 -2.0627
  149MOL   H29947955   7.817   5.824   1.814  1.2240 -0.4659  1.9449
  149MOL   H30047956   0.086   5.953   1.774 -0.4396 -0.4109  0.2826
  149MOL   H30147957   7.691   6.093   1.707  0.2154  0.0491  0.7867
  149MOL   H30247958   7.620   5.939   1.732  0.2566 -1.3427 -2.6862
  149MOL   H30347959   7.751   5.960   1.608 -1.9933  0.2419 -0.0745
  149MOL   H30447960   0.075   6.404   1.966  2.8912 -0.0679 -0.2544
  149MOL   H30547961   0.064   6.408   2.134 -0.8416  0.1337 -0.8210
  149MOL   C30647962   0.224   6.287   2.061 -0.7337  0.2355 -0.0939
  149MOL   O30747963   0.315   6.391   2.026  0.0246 -0.0070  0.3470
  149MOL   C30847964   0.345   6.400   1.891  0.2626  1.3629 -0.3234
  149MOL   C30947965   0.453   6.506   1.870 -0.2949 -0.1607 -0.6701
  149MOL   C31047966   0.588   6.445   1.896 -0.0680 -0.6373 -1.0521
  149MOL   C31147967   0.268   6.240   2.202 -0.0617 -0.1324 -0.2433
  149MOL   H31247968   0.239   6.206   1.990  0.7574  2.1674 -2.0470
  149MOL   H31347969   0.375   6.305   1.846 -1.8644  0.4468  0.1555
  149MOL   H31447970   0.260   6.452   1.847 -1.3317 -0.4651  0.5456
  149MOL   H31547971   0.440   6.594   1.933  0.3958 -0.1400 -0.5480
  149MOL   H31647972   0.459   6.547   1.769 -0.4903 -0.3970 -0.7783
  149MOL   H31747973   0.661   6.493   1.831 -1.5412  3.4032  0.1088
  149MOL   H31847974   0.588   6.337   1.883 -1.7660 -0.6969 -0.6049
  149MOL   H31947975   0.606   6.451   2.003  0.4661 -0.8856 -1.1220
  149MOL   H32047976   0.374   6.219   2.207 -0.3805 -1.2680  2.5743
  149MOL   H32147977   0.263   6.317   2.279  2.2010 -1.2034  0.9989
  149MOL   H32247978   0.204   6.157   2.234  0.4306 -0.1479  0.7131
  150MOL     C147979   1.551   5.933   6.142 -0.2424 -0.0861  0.2444
  150MOL     O247980   1.427   5.914   6.206  0.5180  0.6186 -0.3162
  150MOL     C347981   1.355   6.033   6.241 -0.0814 -0.2665  0.0493
  150MOL     C447982   1.241   5.986   6.336  0.7056  0.0616 -0.5168
  150MOL     C547983   1.304   5.936   6.467 -0.7649  0.2554 -0.0348
  150MOL     C647984   1.550   5.857   6.011 -0.3806  0.2152  0.4156
  150MOL     H747985   1.618   5.885   6.214  0.9729  0.2425 -0.6501
  150MOL     H847986   1.418   6.107   6.290 -0.3565  0.6639 -0.9661
  150MOL     H947987   1.321   6.085   6.151 -0.7966 -1.0499 -0.1318
  150MOL    H1047988   1.174   5.913   6.291 -0.1037  0.9159 -0.7204
  150MOL    H1147989   1.169   6.063   6.365  0.6006 -0.1801 -0.1255
  150MOL    H1247990   1.373   5.855   6.443 -1.4620 -0.9627  1.9635
  150MOL    H1347991   1.231   5.905   6.542  0.1175 -1.0050  0.3113
  150MOL    H1447992   1.354   6.018   6.518 -0.7367 -0.0504  0.4284
  150MOL    H1547993   1.558   5.751   6.032  0.2792 -0.2913 -2.1751
  150MOL    H1647994   1.465   5.872   5.944 -0.5032 -0.0775  0.5058
  150MOL    H1747995   1.575   6.039   6.134 -2.3237  0.3793 -0.1228
  150MOL    C1847996   1.684   5.875   5.929  0.9633 -0.3088 -0.1954
  150MOL    O1947997   1.790   5.849   6.025  0.7145 -0.8511 -0.0431
  150MOL    C2047998   1.916   5.913   5.999  0.0649 -0.4247 -0.0256
  150MOL    C2147999   2.005   5.857   6.110  0.2787 -0.0697  0.0811
  150MOL    C2248000   2.156   5.890   6.093  0.9021 -0.2206 -0.5198
  150MOL    C2348001   1.688   5.776   5.815 -0.9843 -0.5140  0.0516
  150MOL    H2448002   1.695   5.980   5.899  2.1085 -0.1794  0.6328
  150MOL    H2548003   1.942   5.872   5.901  1.3620  1.0270 -0.3073
  150MOL    H2648004   1.910   6.021   5.992  1.0451 -0.3248  0.6730
  150MOL    H2748005   1.992   5.749   6.116 -0.3235 -0.1868 -2.5900
  150MOL    H2848006   1.975   5.881   6.212 -1.0461 -1.0061 -0.0857
  150MOL    H2948007   2.185   5.804   6.033 -1.7802 -1.0886 -0.6426
  150MOL    H3048008   2.198   5.903   6.192  1.4016 -1.6624 -0.5383
  150MOL    H3148009   2.164   5.981   6.033  0.6899 -0.1305 -0.4122
  150MOL    H3248010   1.780   5.770   5.758 -1.6301 -1.5453 -0.9153
  150MOL    H3348011   1.703   5.677   5.859 -1.0597 -0.0252  1.1851
  150MOL    C3448012   1.578   5.783   5.709 -0.1098  0.2286 -0.7192
  150MOL    O3548013   1.613   5.886   5.612  0.0320  0.1769 -0.1055
  150MOL    C3648014   1.516   5.919   5.514  0.3446  0.3340 -1.2283
  150MOL    C3748015   1.590   6.010   5.413 -0.3544 -0.6117  0.2568
  150MOL    C3848016   1.636   6.136   5.484 -0.2945 -0.2074 -0.0403
  150MOL    C3948017   1.561   5.649   5.629  0.4058 -0.9544  0.0329
  150MOL    H4048018   1.482   5.805   5.753  0.1599 -1.1965  0.6240
  150MOL    H4148019   1.466   5.845   5.452 -0.4486 -1.3069  1.3034
  150MOL    H4248020   1.429   5.975   5.547  1.0660  0.4656  0.5092
  150MOL    H4348021   1.517   6.033   5.335 -1.1995  0.9847  1.4975
  150MOL    H4448022   1.679   5.966   5.367  0.1240 -0.3278  0.9105
  150MOL    H4548023   1.725   6.117   5.544  0.7885  1.6772 -0.9734
  150MOL    H4648024   1.564   6.190   5.545  0.6028  0.1669  0.6882
  150MOL    H4748025   1.678   6.204   5.409 -1.1084 -0.1504 -0.4544
  150MOL    H4848026   1.489   5.667   5.549  0.7659  0.1016 -0.0625
  150MOL    H4948027   1.650   5.634   5.568  1.1827  1.1476  0.6197
  150MOL    C5048028   1.520   5.524   5.707 -0.4222  0.2843 -0.0170
  150MOL    O5148029   1.402   5.553   5.783  0.1608  0.4378  0.1700
  150MOL    C5248030   1.406   5.513   5.918  0.4285 -0.5853 -0.1863
  150MOL    C5348031   1.276   5.575   5.977 -0.5553 -0.1010  0.2965
  150MOL    C5448032   1.285   5.602   6.131 -0.2134  1.0201  0.1974
  150MOL    C5548033   1.483   5.412   5.612 -0.2197  0.0172 -0.6901
  150MOL    H5648034   1.606   5.493   5.768 -0.5367 -0.7446 -0.3664
  150MOL    H5748035   1.410   5.404   5.924  1.4870 -0.5995 -0.9483
  150MOL    H5848036   1.496   5.552   5.965  0.7098  0.2240 -1.3855
  150MOL    H5948037   1.192   5.511   5.950  0.3007 -0.8067 -0.7127
  150MOL    H6048038   1.258   5.675   5.937  0.0938  0.2297  0.8068
  150MOL    H6148039   1.366   5.666   6.167 -0.5232  1.5943 -0.1318
  150MOL    H6248040   1.314   5.505   6.173 -1.2005 -0.1951 -1.8592
  150MOL    H6348041   1.185   5.620   6.170 -0.7523 -3.4105  1.1249
  150MOL    H6448042   1.415   5.347   5.666  0.4176 -0.1686 -0.1031
  150MOL    H6548043   1.424   5.457   5.532 -1.1750  3.6810  1.9993
  150MOL    C6648044   1.597   5.332   5.560 -0.2230  0.2434  0.6009
  150MOL    O6748045   1.656   5.255   5.669 -0.0354  0.2907  0.0890
  150MOL    C6848046   1.801   5.232   5.666 -0.0009 -0.3359  0.3088
  150MOL    C6948047   1.838   5.163   5.793  0.6812 -0.0451  0.2682
  150MOL    C7048048   1.821   5.245   5.924 -0.1734 -0.2490  0.5239
  150MOL    C7148049   1.588   5.261   5.420  0.2452  0.1909  0.7794
  150MOL    H7248050   1.667   5.413   5.540 -0.4956  0.4759  0.5871
  150MOL    H7348051   1.806   5.148   5.597 -1.7397 -0.9326  0.8864
  150MOL    H7448052   1.873   5.309   5.635  1.2197 -1.2779  0.7409
  150MOL    H7548053   1.945   5.145   5.776  0.6640  0.9248 -0.9773
  150MOL    H7648054   1.780   5.072   5.804 -0.7933  0.9073  0.4930
  150MOL    H7748055   1.889   5.199   5.995  2.4718 -2.4749 -3.2605
  150MOL    H7848056   1.717   5.251   5.957 -0.0542  0.4111  0.7899
  150MOL    H7948057   1.846   5.346   5.892 -1.6795 -0.2666 -0.7494
  150MOL    H8048058   1.581   5.351   5.359  0.7072 -0.6194 -0.4975
  150MOL    H8148059   1.679   5.211   5.388  0.4213 -0.3393  2.0508
  150MOL    C8248060   1.457   5.182   5.412 -0.4681  0.3029 -0.4538
  150MOL    O8348061   1.444   5.130   5.279 -0.5281 -0.6092 -0.9168
  150MOL    C8448062   1.419   5.241   5.196  0.1034  0.0825  0.8106
  150MOL    C8548063   1.293   5.196   5.116  0.0731  0.1123 -0.7764
  150MOL    C8648064   1.222   5.301   5.033 -0.1433 -0.4159 -0.2181
  150MOL    C8748065   1.449   5.062   5.518 -0.9499 -0.0421  0.0375
  150MOL    H8848066   1.380   5.255   5.435  0.0119 -0.1253  2.6946
  150MOL    H8948067   1.411   5.338   5.245  1.8821  1.2304 -1.0649
  150MOL    H9048068   1.499   5.241   5.122 -1.7394 -4.0200 -1.3335
  150MOL    H9148069   1.218   5.156   5.185  0.9539 -0.9505 -0.4243
  150MOL    H9248070   1.317   5.109   5.054 -3.9600 -1.7357  0.0909
  150MOL    H9348071   1.176   5.378   5.096  2.4238  1.8916 -1.1169
  150MOL    H9448072   1.138   5.260   4.977 -1.1719 -0.0012  0.9884
  150MOL    H9548073   1.291   5.357   4.970  0.1851  1.9720  2.1627
  150MOL    H9648074   1.496   4.980   5.464  0.0180 -0.1327  0.9961
  150MOL    H9748075   1.519   5.062   5.601  1.0941 -1.5741 -1.6238
  150MOL    C9848076   1.308   5.037   5.570  0.3503  0.4481  0.1436
  150MOL    O9948077   1.267   5.148   5.640 -0.4830 -0.2614 -0.3041
  150MOL   C10048078   1.181   5.124   5.757 -0.3766  0.2819 -0.0522
  150MOL   C10148079   1.133   5.268   5.793 -0.2413  0.6034  0.3757
  150MOL   C10248080   1.060   5.334   5.671 -0.0054  0.3511 -0.9904
  150MOL   C10348081   1.199   4.992   5.461 -0.3197 -0.0333 -0.5263
  150MOL   H10448082   1.319   4.954   5.641  0.6645 -1.4873 -2.1090
  150MOL   H10548083   1.098   5.057   5.737 -0.6186  0.7823 -0.7780
  150MOL   H10648084   1.239   5.078   5.836 -1.1940 -0.2237  0.2643
  150MOL   H10748085   1.214   5.337   5.813  1.4899 -0.9927 -1.0049
  150MOL   H10848086   1.066   5.275   5.879  0.4757 -1.1535  1.0975
  150MOL   H10948087   1.118   5.321   5.580  1.8655 -0.5782  0.3033
  150MOL   H11048088   1.034   5.439   5.674 -0.6417  0.2408 -2.2401
  150MOL   H11148089   0.962   5.287   5.656 -0.8047  0.4905  3.2101
  150MOL   H11248090   1.105   4.963   5.507 -0.5557  0.2856 -0.8049
  150MOL   H11348091   1.172   5.078   5.399 -0.7932  0.6891  0.6837
  150MOL   C11448092   1.228   4.861   5.378 -0.0568  0.3772  0.4322
  150MOL   O11548093   1.240   4.741   5.458 -0.3471  0.0281 -0.1170
  150MOL   C11648094   1.364   4.674   5.460 -0.0046  0.1150  0.8693
  150MOL   C11748095   1.362   4.572   5.574 -0.3167 -1.6583  0.2275
  150MOL   C11848096   1.494   4.487   5.582  0.2146 -0.3136 -0.6180
  150MOL   C11948097   1.112   4.835   5.267  0.2402 -0.3503 -0.1151
  150MOL   H12048098   1.315   4.876   5.315 -1.2835 -0.9224 -1.6285
  150MOL   H12148099   1.383   4.621   5.366 -1.5241 -0.4482  0.8714
  150MOL   H12248100   1.436   4.752   5.486  0.5999 -0.1783  0.1199
  150MOL   H12348101   1.276   4.507   5.560 -1.7257  0.2873 -0.3718
  150MOL   H12448102   1.348   4.637   5.661 -1.0254 -0.0659 -1.0574
  150MOL   H12548103   1.500   4.436   5.678 -1.5970  0.9490  0.1928
  150MOL   H12648104   1.578   4.555   5.568  0.8987 -1.3677 -1.7847
  150MOL   H12748105   1.507   4.417   5.499 -0.9566 -2.0572  0.6195
  150MOL   H12848106   1.013   4.834   5.314  0.2525  1.6321  0.0026
  150MOL   H12948107   1.100   4.927   5.210  1.4864 -0.0788  0.0505
  150MOL   C13048108   1.118   4.721   5.166 -0.6987  0.7102  0.3262
  150MOL   O13148109   1.024   4.757   5.070 -0.0779  0.2042  0.5608
  150MOL   C13248110   0.896   4.706   5.094 -0.5390 -0.2611 -0.0158
  150MOL   C13348111   0.804   4.778   4.990  0.7435 -0.1248 -0.3158
  150MOL   C13448112   0.778   4.925   5.039 -0.2778  1.0940  0.2557
  150MOL   C13548113   1.249   4.703   5.093  0.4143  0.3408 -0.3450
  150MOL   H13648114   1.097   4.626   5.216 -0.1288 -0.2619 -1.2519
  150MOL   H13748115   0.899   4.603   5.058 -2.4809  0.0607 -1.1829
  150MOL   H13848116   0.858   4.702   5.196  1.2059  1.0029  0.7040
  150MOL   H13948117   0.707   4.727   4.995  0.2501  0.9296  0.9777
  150MOL   H14048118   0.839   4.766   4.887 -1.5394 -0.5005 -1.0968
  150MOL   H14148119   0.741   4.927   5.141  0.2480 -0.2408  0.4919
  150MOL   H14248120   0.698   4.970   4.981  0.1452 -0.2209 -1.4021
  150MOL   H14348121   0.864   4.990   5.026 -0.4113  0.9946 -1.2372
  150MOL   H14448122   1.282   4.803   5.067 -0.3799  0.6681 -0.1051
  150MOL   H14548123   1.330   4.669   5.158  0.3892  4.4102  1.9566
  150MOL   C14648124   1.244   4.608   4.978 -0.0866  0.0416 -0.6444
  150MOL   O14748125   1.376   4.589   4.928  0.7588 -0.0612  0.1075
  150MOL   C14848126   1.426   4.695   4.842  0.0643 -1.6961  0.9270
  150MOL   C14948127   1.563   4.631   4.790  0.4582  0.2292 -0.9629
  150MOL   C15048128   1.551   4.491   4.729  0.3816  0.6731  0.8151
  150MOL   C15148129   1.192   4.469   5.014 -0.5045  0.2458 -0.2160
  150MOL   H15248130   1.179   4.640   4.897  0.5808  1.2651 -0.7127
  150MOL   H15348131   1.349   4.712   4.766  1.7848 -0.3127 -0.5702
  150MOL   H15448132   1.444   4.794   4.884  0.5403 -0.6475 -1.6319
  150MOL   H15548133   1.634   4.619   4.873  0.0543  1.2522 -0.4529
  150MOL   H15648134   1.612   4.690   4.713 -0.1768  0.7244 -0.9907
  150MOL   H15748135   1.513   4.486   4.627  2.0645 -0.4197  0.2271
  150MOL   H15848136   1.491   4.424   4.789 -3.1326  0.8864 -2.2678
  150MOL   H15948137   1.654   4.458   4.720  0.9898  2.6962  0.0583
  150MOL   H16048138   1.227   4.432   5.110 -0.6900  0.2120 -0.1608
  150MOL   H16148139   1.086   4.485   5.034 -0.4764  0.0777  0.0655
  150MOL   C16248140   1.186   4.366   4.897  0.2902  0.2383 -0.0091
  150MOL   O16348141   1.118   4.251   4.945  0.2085  0.4989  0.0429
  150MOL   C16448142   1.193   4.173   5.041  0.3533 -0.1369  0.3751
  150MOL   C16548143   1.079   4.120   5.138 -0.9662  0.7998 -0.1386
  150MOL   C16648144   1.056   4.213   5.249  0.2737  0.1208 -0.0480
  150MOL   C16748145   1.113   4.416   4.770  0.3748 -0.2637 -0.4252
  150MOL   H16848146   1.291   4.356   4.868  0.3317  1.0292 -0.1286
  150MOL   H16948147   1.242   4.097   4.980  0.8153 -0.7864  1.5533
  150MOL   H17048148   1.275   4.218   5.097  0.4487  1.0347 -0.6863
  150MOL   H17148149   1.108   4.021   5.173  0.0162  0.5267 -1.6906
  150MOL   H17248150   0.987   4.095   5.085 -1.1345 -2.1307  1.4035
  150MOL   H17348151   0.979   4.173   5.315  0.8562  0.8088  1.0672
  150MOL   H17448152   1.009   4.307   5.218  0.7955  0.6636  0.7767
  150MOL   H17548153   1.150   4.241   5.296  0.2544  0.1349 -0.0165
  150MOL   H17648154   1.011   4.449   4.793  0.4571  0.2842 -0.8304
  150MOL   H17748155   1.165   4.497   4.718 -1.8657  2.0991  0.8958
  150MOL   C17848156   1.094   4.305   4.666 -0.2846  0.0098 -0.2001
  150MOL   O17948157   0.993   4.340   4.565  0.4000  0.2025 -0.1775
  150MOL   C18048158   1.020   4.463   4.500  0.9852  0.1743  0.3030
  150MOL   C18148159   0.923   4.490   4.382  0.2638 -0.6165  0.1931
  150MOL   C18248160   0.953   4.628   4.328 -0.0256 -0.0497  0.1506
  150MOL   C18348161   1.228   4.250   4.605  0.7268  0.1512 -0.1657
  150MOL   H18448162   1.039   4.228   4.720  0.5877  0.6008  1.5567
  150MOL   H18548163   1.018   4.547   4.570 -1.1381  0.5567 -0.1619
  150MOL   H18648164   1.118   4.465   4.452  1.1550  1.0212  0.6835
  150MOL   H18748165   0.823   4.516   4.416  1.2227  1.8182  1.2913
  150MOL   H18848166   0.924   4.416   4.301  0.5444  0.2302 -0.5947
  150MOL   H18948167   0.900   4.657   4.238 -0.8031 -0.5310  0.4488
  150MOL   H19048168   1.061   4.633   4.314  0.0290 -2.2910 -0.5595
  150MOL   H19148169   0.926   4.698   4.407  0.1046  0.4005 -0.2090
  150MOL   H19248170   1.293   4.331   4.573  2.7729 -0.7786  1.5135
  150MOL   H19348171   1.279   4.207   4.691 -1.1059  1.7809  1.7794
  150MOL   C19448172   1.199   4.147   4.488  0.7248 -0.2760 -0.2648
  150MOL   O19548173   1.305   4.135   4.401  0.4531 -0.2328 -0.1162
  150MOL   C19648174   1.300   4.232   4.300 -0.6052 -0.1683 -0.2397
  150MOL   C19748175   1.396   4.175   4.193  0.1855 -0.3913 -0.0040
  150MOL   C19848176   1.417   4.279   4.079  0.2197  0.2754 -0.0430
  150MOL   C19948177   1.167   4.004   4.544 -0.5326 -0.2123 -0.6651
  150MOL   H20048178   1.107   4.174   4.435 -0.3408  0.3034  1.8003
  150MOL   H20148179   1.197   4.244   4.268 -1.3035 -2.7052  0.9602
  150MOL   H20248180   1.338   4.331   4.326  2.6444 -1.5696  0.5484
  150MOL   H20348181   1.357   4.082   4.151 -0.1318 -0.8826  1.3315
  150MOL   H20448182   1.485   4.146   4.249  0.1982  0.1086  0.2314
  150MOL   H20548183   1.319   4.302   4.037  0.2620  0.0997 -0.2362
  150MOL   H20648184   1.472   4.233   3.997  0.9844  0.4920  0.3529
  150MOL   H20748185   1.467   4.367   4.120  0.3008  0.0441  0.3516
  150MOL   H20848186   1.186   3.939   4.459  0.5899 -1.5337  0.5860
  150MOL   H20948187   1.244   3.970   4.613  0.0002  0.8798 -0.6986
  150MOL   C21048188   1.023   3.983   4.596  0.0272  0.0337 -0.1761
  150MOL   O21148189   0.974   3.864   4.552 -0.4313  0.1466  0.5022
  150MOL   C21248190   0.910   3.865   4.421 -0.7336  0.3523  0.2365
  150MOL   C21348191   0.918   3.722   4.369  0.4504 -0.4436 -0.6422
  150MOL   C21448192   0.857   3.621   4.466 -0.4822  0.5812  0.1390
  150MOL   C21548193   1.019   3.948   4.746 -0.1861  0.1001 -0.3209
  150MOL   H21648194   0.957   4.065   4.569 -1.6812 -1.0069  0.7712
  150MOL   H21748195   0.805   3.893   4.421 -0.2102  2.4178  1.0029
  150MOL   H21848196   0.970   3.925   4.354 -0.2420  0.3349  0.6538
  150MOL   H21948197   1.022   3.694   4.356  0.5989  0.6243 -1.8004
  150MOL   H22048198   0.873   3.705   4.271 -0.4555 -1.7182 -0.0201
  150MOL   H22148199   0.873   3.516   4.442 -2.1421  0.1279  0.9348
  150MOL   H22248200   0.750   3.635   4.486 -0.1729 -0.5682  2.8938
  150MOL   H22348201   0.906   3.631   4.563 -0.3206 -1.4028  0.2803
  150MOL   H22448202   1.072   3.852   4.745 -0.7172 -0.2395  1.7269
  150MOL   H22548203   1.069   4.023   4.806 -0.0590 -0.0005 -0.3002
  150MOL   C22648204   0.883   3.914   4.818  0.3276  0.0735  0.5148
  150MOL   O22748205   0.917   3.853   4.941 -0.7410 -0.5027  0.7269
  150MOL   C22848206   0.934   3.716   4.930 -0.0713  0.1780 -0.0107
  150MOL   C22948207   0.935   3.660   5.070  0.4041 -0.0956 -0.6834
  150MOL   C23048208   0.964   3.513   5.085  0.1246 -0.5248  0.3558
  150MOL   C23148209   0.802   4.039   4.830  0.1118 -0.4722  0.3797
  150MOL   H23248210   0.837   3.841   4.751 -0.6933  0.1940  1.0632
  150MOL   H23348211   0.852   3.659   4.886  0.3786 -2.1369  2.0342
  150MOL   H23448212   1.028   3.687   4.882 -0.2191 -0.5401  0.1188
  150MOL   H23548213   0.838   3.692   5.107  2.0762  1.3038  2.6308
  150MOL   H23648214   1.003   3.726   5.123  0.1941  2.0588 -3.0192
  150MOL   H23748215   0.969   3.485   5.190 -0.3995  0.3444  0.6166
  150MOL   H23848216   1.060   3.490   5.038 -0.8228 -1.7152 -1.0433
  150MOL   H23948217   0.888   3.462   5.026 -0.3813  1.0536 -0.4005
  150MOL   H24048218   0.855   4.102   4.901  0.7781 -0.2697 -0.2899
  150MOL   H24148219   0.812   4.090   4.734  0.2132 -0.5184  0.3661
  150MOL   C24248220   0.653   4.014   4.865 -0.2788  0.0240  0.3520
  150MOL   O24348221   0.613   4.129   4.938 -0.0970  0.2590 -0.6630
  150MOL   C24448222   0.625   4.122   5.079  0.2137  0.0722 -0.1584
  150MOL   C24548223   0.569   4.247   5.135  0.2879  0.0116  0.1728
  150MOL   C24648224   0.648   4.372   5.097  0.0402 -0.1131 -0.9305
  150MOL   C24748225   0.568   4.005   4.737 -0.2854 -0.1900 -0.0879
  150MOL   H24848226   0.634   3.928   4.929 -4.1401 -0.7031 -1.6325
  150MOL   H24948227   0.568   4.039   5.121 -0.3811  0.2943 -0.5091
  150MOL   H25048228   0.728   4.107   5.108 -0.6661 -2.9847  1.5830
  150MOL   H25148229   0.571   4.236   5.244 -0.7798 -2.2420 -0.0114
  150MOL   H25248230   0.465   4.265   5.106 -0.0054  0.4069  1.4221
  150MOL   H25348231   0.756   4.359   5.092 -0.1369 -1.3805 -1.8152
  150MOL   H25448232   0.612   4.458   5.154 -1.4114 -1.1074 -0.2961
  150MOL   H25548233   0.617   4.392   4.995  0.4108  0.8026 -0.8581
  150MOL   H25648234   0.581   4.101   4.688 -1.3482 -0.7842 -1.5940
  150MOL   H25748235   0.612   3.933   4.669  1.3176 -0.1171  0.8528
  150MOL   C25848236   0.413   3.978   4.757  0.4698 -0.0862 -0.2424
  150MOL   O25948237   0.361   3.944   4.631 -0.4854  0.1047  0.1005
  150MOL   C26048238   0.295   4.062   4.575 -0.1932 -0.0798  0.2504
  150MOL   C26148239   0.262   4.028   4.425 -0.5942  0.2802  0.1101
  150MOL   C26248240   0.224   4.147   4.339  0.1299  0.4730  0.1476
  150MOL   C26348241   0.385   3.867   4.862  0.3270  0.2557  0.5480
  150MOL   H26448242   0.372   4.069   4.801  0.7579 -0.4919  0.8999
  150MOL   H26548243   0.198   4.078   4.621 -0.2343 -1.9497  0.8399
  150MOL   H26648244   0.352   4.153   4.592  0.6093 -0.2563 -1.3882
  150MOL   H26748245   0.195   3.943   4.411 -0.4566  0.4481 -1.6320
  150MOL   H26848246   0.355   3.993   4.381 -0.6123  1.2513 -0.7275
  150MOL   H26948247   0.266   4.240   4.377  0.4248 -0.1643  1.3779
  150MOL   H27048248   0.118   4.175   4.341 -0.7497 -2.6045 -0.2612
  150MOL   H27148249   0.251   4.124   4.236 -1.1592  0.7657 -0.2748
  150MOL   H27248250   0.427   3.897   4.958  1.1373 -0.0873  0.3013
  150MOL   H27348251   0.278   3.858   4.880  0.0729  0.8759 -0.6004
  150MOL   C27448252   0.440   3.723   4.827  1.0887 -0.1252 -0.5374
  150MOL   O27548253   0.453   3.644   4.947 -0.0487  0.7158 -0.5252
  150MOL   C27648254   0.580   3.610   4.985  0.7632 -0.7840 -0.3317
  150MOL   C27748255   0.563   3.539   5.123 -0.2398 -0.1494  0.7652
  150MOL   C27848256   0.483   3.621   5.225  0.5378 -0.0970 -0.6517
  150MOL   C27948257   0.340   3.642   4.730  0.4915 -0.0781  0.5931
  150MOL   H28048258   0.535   3.726   4.773  1.4547  0.4325  0.1191
  150MOL   H28148259   0.633   3.539   4.920 -0.7044 -0.7993 -1.5398
  150MOL   H28248260   0.647   3.695   4.993  1.7569 -1.5604 -0.2290
  150MOL   H28348261   0.665   3.530   5.160  0.2015  1.0927 -0.1071
  150MOL   H28448262   0.511   3.443   5.114 -0.0857  0.0134 -2.5022
  150MOL   H28548263   0.377   3.618   5.201  0.1035  0.7258  1.1701
  150MOL   H28648264   0.516   3.724   5.241 -0.8008  0.2065  0.1934
  150MOL   H28748265   0.502   3.574   5.321  2.6441 -0.0191 -0.9931
  150MOL   H28848266   0.292   3.564   4.789  2.4598  1.3987  4.3696
  150MOL   H28948267   0.264   3.713   4.699  0.2938 -1.1704 -1.5304
  150MOL   C29048268   0.411   3.584   4.604  0.5742  0.7160  0.0654
  150MOL   O29148269   0.501   3.487   4.656 -0.1357  0.6013  0.2624
  150MOL   C29248270   0.551   3.381   4.576  0.5218 -0.2005 -0.2569
  150MOL   C29348271   0.651   3.283   4.643  0.1859 -0.2500  0.3206
  150MOL   C29448272   0.612   3.236   4.781  0.5036 -0.7045  0.0564
  150MOL   C29548273   0.305   3.539   4.506 -0.7667 -0.0303 -0.2350
  150MOL   H29648274   0.465   3.671   4.566  1.4124  0.3933  0.5019
  150MOL   H29748275   0.474   3.310   4.543  1.0840 -1.0340  0.2084
  150MOL   H29848276   0.595   3.420   4.484 -0.3637  0.6022 -0.3429
  150MOL   H29948277   0.743   3.342   4.649  0.7414 -1.0017 -0.7307
  150MOL   H30048278   0.686   3.206   4.575  1.9667  2.0778 -1.4743
  150MOL   H30148279   0.592   3.318   4.850  0.9174 -1.0863  0.6357
  150MOL   H30248280   0.686   3.173   4.830  0.5873  0.0430  0.9194
  150MOL   H30348281   0.524   3.172   4.780 -0.0267 -0.1384  3.5027
  150MOL   H30448282   0.326   3.443   4.460 -0.3588 -0.0842  0.0612
  150MOL   H30548283   0.210   3.514   4.555  0.6041 -1.4390  1.7650
  150MOL   C30648284   0.294   3.628   4.383  0.5608 -0.8128  0.2654
  150MOL   O30748285   0.413   3.607   4.307 -0.3109  0.3436  0.1421
  150MOL   C30848286   0.475   3.734   4.270 -0.1040 -0.0548 -1.1055
  150MOL   C30948287   0.597   3.716   4.177  0.4531  0.7866 -0.3940
  150MOL   C31048288   0.633   3.854   4.119 -0.1219 -0.1299 -0.1301
  150MOL   C31148289   0.176   3.595   4.295  0.0488 -0.3449 -0.7332
  150MOL   H31248290   0.277   3.729   4.421 -0.2532 -1.5543  1.9410
  150MOL   H31348291   0.400   3.797   4.224 -2.2436 -0.7116  1.3162
  150MOL   H31448292   0.502   3.792   4.358  0.4556 -0.9381 -0.6799
  150MOL   H31548293   0.568   3.648   4.097  0.4586  0.3587 -0.0372
  150MOL   H31648294   0.680   3.673   4.233  0.3645 -0.1623 -0.9842
  150MOL   H31748295   0.554   3.905   4.064  0.7439 -0.4028 -1.6700
  150MOL   H31848296   0.719   3.828   4.057  0.4728  3.2816 -0.8238
  150MOL   H31948297   0.673   3.924   4.192  2.0432  0.9837 -2.3062
  150MOL   H32048298   0.153   3.668   4.218 -3.1289 -2.0110 -1.4790
  150MOL   H32148299   0.186   3.491   4.262 -1.0943 -0.7077  0.0233
  150MOL   H32248300   0.084   3.602   4.354  0.4439 -2.0066  0.1241
  151MOL     C148301   2.617   2.816   0.598  0.2328 -0.3146 -0.4574
  151MOL     O248302   2.572   2.731   0.702 -0.6518  0.1074 -0.2495
  151MOL     C348303   2.481   2.628   0.659  0.3177  0.5191  0.3122
  151MOL     C448304   2.338   2.699   0.684 -0.4007  0.2206  0.3630
  151MOL     C548305   2.227   2.615   0.609  0.4281  0.0584 -0.1448
  151MOL     C648306   2.714   2.926   0.633  0.0107  0.4352 -0.3189
  151MOL     H748307   2.533   2.870   0.553  0.2801  0.6622  0.6122
  151MOL     H848308   2.495   2.599   0.555 -1.5218 -0.0413  0.1987
  151MOL     H948309   2.491   2.545   0.729 -0.2073  0.7746  0.6906
  151MOL    H1048310   2.323   2.801   0.650 -0.8661 -0.0908 -0.4047
  151MOL    H1148311   2.326   2.695   0.792 -0.4805 -0.5377  0.3310
  151MOL    H1248312   2.236   2.507   0.621 -1.6550 -0.0360  0.7267
  151MOL    H1348313   2.214   2.652   0.507 -0.9731 -1.8669 -0.6855
  151MOL    H1448314   2.130   2.638   0.653  0.0428  0.1889 -1.0494
  151MOL    H1548315   2.737   2.989   0.548  0.7073  1.9490  0.9648
  151MOL    H1648316   2.664   2.998   0.697  2.6009 -0.0580  2.3691
  151MOL    H1748317   2.655   2.760   0.513  1.7901  1.9448 -1.2852
  151MOL    C1848318   2.838   2.875   0.704 -0.2353  0.5727 -0.7252
  151MOL    O1948319   2.955   2.912   0.629  0.1984 -0.0206  0.3629
  151MOL    C2048320   2.982   2.831   0.515 -0.4612  0.4048  0.3792
  151MOL    C2148321   3.095   2.911   0.435 -0.1314 -0.1344 -0.5013
  151MOL    C2248322   3.215   2.951   0.520  0.4731 -0.1631 -0.2164
  151MOL    C2348323   2.852   2.907   0.856 -0.1508  1.0155  0.0890
  151MOL    H2448324   2.835   2.766   0.704  1.0856  0.5155 -2.6543
  151MOL    H2548325   3.012   2.732   0.550 -0.0689  0.3389 -0.1469
  151MOL    H2648326   2.891   2.814   0.457  0.1670 -0.8373 -0.2655
  151MOL    H2748327   3.044   2.994   0.387 -0.1012  0.5604  0.6322
  151MOL    H2848328   3.127   2.856   0.347 -0.3695 -1.1056  0.0004
  151MOL    H2948329   3.185   3.031   0.588  0.5259 -0.4358  0.1293
  151MOL    H3048330   3.293   2.975   0.447  0.3172  1.5617  0.1507
  151MOL    H3148331   3.246   2.864   0.577  2.8023 -0.7055 -2.2377
  151MOL    H3248332   2.924   2.987   0.876  2.3015 -1.1669  0.2068
  151MOL    H3348333   2.759   2.952   0.891 -0.1281  0.7646  0.4700
  151MOL    C3448334   2.902   2.795   0.939  0.4619  0.2577  0.7499
  151MOL    O3548335   2.830   2.669   0.915 -0.4443  0.3128  0.0723
  151MOL    C3648336   2.702   2.653   0.980 -0.1325  0.0191  0.3060
  151MOL    C3748337   2.713   2.611   1.125 -0.3674 -0.2547 -0.4212
  151MOL    C3848338   2.566   2.600   1.175 -0.2366 -0.3952 -0.8527
  151MOL    C3948339   3.053   2.754   0.910  0.7325 -0.4094 -0.2985
  151MOL    H4048340   2.886   2.823   1.043 -2.7295 -1.9213  0.9149
  151MOL    H4148341   2.636   2.737   0.955 -1.0710 -1.2195 -1.5661
  151MOL    H4248342   2.640   2.579   0.929  1.4990 -2.5718  2.0152
  151MOL    H4348343   2.773   2.676   1.188 -2.3864 -0.6591  1.9953
  151MOL    H4448344   2.765   2.515   1.131 -1.6738 -1.1999 -3.1629
  151MOL    H4548345   2.573   2.601   1.284  0.8918  2.3630 -0.9116
  151MOL    H4648346   2.513   2.511   1.142  0.4578 -1.0242 -0.2968
  151MOL    H4748347   2.510   2.689   1.147  1.1729  1.6124  2.4368
  151MOL    H4848348   3.071   2.648   0.929  2.4553 -0.5532 -2.4813
  151MOL    H4948349   3.081   2.764   0.805 -1.9797  0.9887 -0.9026
  151MOL    C5048350   3.153   2.836   0.996 -0.2688 -0.1326  0.0271
  151MOL    O5148351   3.254   2.737   1.024  0.1319  0.1640  0.4795
  151MOL    C5248352   3.261   2.700   1.160 -0.2734  0.3695  0.5715
  151MOL    C5348353   3.350   2.576   1.175 -0.1469 -0.0986 -0.1590
  151MOL    C5448354   3.357   2.528   1.317 -0.4366 -0.2811 -0.3926
  151MOL    C5548355   3.220   2.954   0.921  0.3762  0.4200  1.0785
  151MOL    H5648356   3.090   2.868   1.079 -1.9517  0.8909 -1.6093
  151MOL    H5748357   3.301   2.787   1.212  2.3020 -0.0659 -0.5694
  151MOL    H5848358   3.172   2.668   1.213  2.3115 -1.5084  3.9777
  151MOL    H5948359   3.443   2.595   1.122 -1.1339 -0.9757 -2.2678
  151MOL    H6048360   3.320   2.494   1.109  0.9053 -0.2996 -0.3972
  151MOL    H6148361   3.400   2.607   1.379  0.4662 -0.6657 -0.5253
  151MOL    H6248362   3.416   2.437   1.329  1.3804  0.7906 -0.9855
  151MOL    H6348363   3.263   2.496   1.361  0.9324 -1.3227  1.8720
  151MOL    H6448364   3.266   2.921   0.828  1.0010 -0.1839  1.5999
  151MOL    H6548365   3.135   3.012   0.882  0.9992  0.5574 -0.1100
  151MOL    C6648366   3.315   3.054   0.993 -0.3452 -0.7252  0.3977
  151MOL    O6748367   3.285   3.063   1.132  0.8025  0.3027 -0.1982
  151MOL    C6848368   3.315   3.190   1.184 -0.0920  0.5080  0.1519
  151MOL    C6948369   3.277   3.192   1.332 -0.1172  0.3197 -0.0219
  151MOL    C7048370   3.382   3.116   1.415 -0.2232 -0.4741 -0.7161
  151MOL    C7148371   3.465   2.993   0.984  0.2440  0.2133 -0.2007
  151MOL    H7248372   3.311   3.151   0.944 -3.2816 -0.7935  0.4233
  151MOL    H7348373   3.412   3.229   1.152  0.1124  0.9888  1.3280
  151MOL    H7448374   3.242   3.260   1.143 -0.7089 -1.1283 -1.6057
  151MOL    H7548375   3.182   3.144   1.357  0.5976 -1.0677  0.0624
  151MOL    H7648376   3.275   3.296   1.365  2.6231  1.0514 -1.9573
  151MOL    H7748377   3.340   3.083   1.510 -2.3420 -1.7855 -2.0625
  151MOL    H7848378   3.477   3.166   1.436 -0.4705 -1.2690  2.7126
  151MOL    H7948379   3.398   3.019   1.367 -1.3635 -1.3932  0.7179
  151MOL    H8048380   3.516   3.041   1.067  1.4692 -0.3316 -0.6371
  151MOL    H8148381   3.452   2.890   1.017 -0.0706  0.6269  1.0172
  151MOL    C8248382   3.539   2.997   0.845  0.6933 -0.3403  0.1709
  151MOL    O8348383   3.549   3.136   0.814  0.1479  0.0104 -0.2017
  151MOL    C8448384   3.529   3.164   0.675 -0.1809  0.1141 -0.4773
  151MOL    C8548385   3.560   3.306   0.632  0.1512 -0.5868  0.8340
  151MOL    C8648386   3.698   3.345   0.676 -0.0576 -0.0587  0.0055
  151MOL    C8748387   3.675   2.924   0.853  0.2150  0.1255 -0.5822
  151MOL    H8848388   3.483   2.944   0.768 -1.8807  1.1885  0.9456
  151MOL    H8948389   3.577   3.083   0.620  0.5653 -2.2774  3.4886
  151MOL    H9048390   3.426   3.138   0.649  0.2662 -1.4491 -0.7589
  151MOL    H9148391   3.489   3.374   0.678 -0.5346  0.2479 -1.3922
  151MOL    H9248392   3.557   3.325   0.525 -0.0956  1.0972  1.1350
  151MOL    H9348393   3.719   3.451   0.662 -1.5392  0.2893  0.3464
  151MOL    H9448394   3.767   3.276   0.628  3.4123  3.4936 -0.3127
  151MOL    H9548395   3.705   3.333   0.784  0.2373 -1.3412 -0.1490
  151MOL    H9648396   3.723   2.933   0.756 -1.2200  2.2566 -1.1046
  151MOL    H9748397   3.743   2.973   0.923 -1.0671 -3.0471  3.1043
  151MOL    C9848398   3.666   2.771   0.881 -0.1711 -0.5080 -0.5049
  151MOL    O9948399   3.601   2.714   0.769  0.2296 -0.4441  0.0751
  151MOL   C10048400   3.466   2.676   0.789  0.4567 -0.0287  0.9387
  151MOL   C10148401   3.407   2.628   0.658  0.1818 -0.3542 -0.2339
  151MOL   C10248402   3.266   2.560   0.672  0.3331 -0.5510 -0.1249
  151MOL   C10348403   3.811   2.728   0.887  0.5507 -0.2593 -0.0312
  151MOL   H10448404   3.616   2.755   0.977 -1.1294 -0.9427 -1.0758
  151MOL   H10548405   3.466   2.602   0.870  1.2635  1.1097  1.9917
  151MOL   H10648406   3.402   2.759   0.821 -0.4823 -0.4421  0.1837
  151MOL   H10748407   3.476   2.552   0.621  0.4558 -0.2990  0.1542
  151MOL   H10848408   3.404   2.714   0.591  0.6016 -0.6416 -0.6244
  151MOL   H10948409   3.206   2.609   0.749 -0.6341  1.5449 -2.1646
  151MOL   H11048410   3.272   2.457   0.709  1.0076 -0.0133  1.3099
  151MOL   H11148411   3.202   2.559   0.583 -1.0990  2.0703  0.8251
  151MOL   H11248412   3.861   2.748   0.792  0.6666  2.1551  0.5068
  151MOL   H11348413   3.864   2.793   0.957  2.3211 -0.7347 -0.8848
  151MOL   C11448414   3.825   2.577   0.931  0.3787  0.6789 -0.0593
  151MOL   O11548415   3.961   2.551   0.943  0.0025  0.0804 -0.1602
  151MOL   C11648416   4.026   2.486   0.828  0.6805 -0.5211 -0.0226
  151MOL   C11748417   4.167   2.473   0.861  0.7253  0.0672  0.9576
  151MOL   C11848418   4.207   2.391   0.982 -0.0264 -0.1355 -0.1773
  151MOL   C11948419   3.759   2.559   1.067  0.2116 -0.3446  0.5492
  151MOL   H12048420   3.780   2.504   0.863 -1.4002  0.3042  1.4788
  151MOL   H12148421   3.991   2.385   0.804 -2.2101  0.2203  0.8852
  151MOL   H12248422   4.014   2.551   0.742  2.1672 -2.5468 -1.8326
  151MOL   H12348423   4.215   2.571   0.868  1.8193 -0.4557  0.9758
  151MOL   H12448424   4.209   2.426   0.772 -0.9749  0.0498  0.1439
  151MOL   H12548425   4.167   2.437   1.072  0.6659  0.3968 -0.1364
  151MOL   H12648426   4.314   2.385   0.997 -0.3395  1.2402  2.9230
  151MOL   H12748427   4.158   2.293   0.980  0.9389 -0.6133 -0.5010
  151MOL   H12848428   3.797   2.645   1.122  0.5760  1.8601 -2.9615
  151MOL   H12948429   3.651   2.565   1.069  0.2993  1.3375  0.9622
  151MOL   C13048430   3.786   2.425   1.130  0.3378  0.1039 -0.5751
  151MOL   O13148431   3.732   2.440   1.264  0.2452  0.5762 -0.0835
  151MOL   C13248432   3.804   2.514   1.353 -0.0415 -0.9164 -0.5415
  151MOL   C13348433   3.728   2.511   1.484  0.8651  0.0264  0.2068
  151MOL   C13448434   3.734   2.375   1.553 -0.4341 -0.1525 -0.1353
  151MOL   C13548435   3.714   2.305   1.059 -0.1012  0.4682  0.4153
  151MOL   H13648436   3.891   2.397   1.135 -0.8071 -4.6959 -1.3417
  151MOL   H13748437   3.905   2.474   1.364 -0.3073 -0.7495  3.4364
  151MOL   H13848438   3.810   2.619   1.326  0.3996 -0.7804  0.0669
  151MOL   H13948439   3.621   2.530   1.471  1.0274 -0.0832 -1.4380
  151MOL   H14048440   3.772   2.574   1.561  0.1189  0.4428  0.3032
  151MOL   H14148441   3.688   2.300   1.490  0.9997 -0.1935 -1.1599
  151MOL   H14248442   3.677   2.381   1.646  1.0796  1.1642  0.7307
  151MOL   H14348443   3.839   2.350   1.571 -0.5895 -0.8308 -0.1583
  151MOL   H14448444   3.608   2.319   1.079 -0.3595 -0.1059 -0.5039
  151MOL   H14548445   3.724   2.299   0.951 -1.5606 -1.5408  0.3549
  151MOL   C14648446   3.763   2.172   1.121 -0.0854 -1.4249 -0.5111
  151MOL   O14748447   3.656   2.076   1.124 -0.1279 -0.1565 -0.0432
  151MOL   C14848448   3.590   2.064   1.255 -0.1104  0.1933 -0.3857
  151MOL   C14948449   3.672   1.992   1.367  0.2593 -0.5619 -1.1288
  151MOL   C15048450   3.693   1.845   1.342 -0.1169  0.1825  0.7814
  151MOL   C15148451   3.876   2.119   1.030 -0.0540 -0.7203 -1.1107
  151MOL   H15248452   3.791   2.193   1.224 -1.8645  2.4484 -0.7266
  151MOL   H15348453   3.566   2.164   1.289 -0.1925  0.4294 -1.1516
  151MOL   H15448454   3.497   2.009   1.239  1.3018 -1.8688 -1.8635
  151MOL   H15548455   3.617   1.997   1.461 -1.7363 -0.9001 -2.2359
  151MOL   H15648456   3.764   2.046   1.389 -2.8130  4.9635 -0.9311
  151MOL   H15748457   3.603   1.809   1.292 -0.1266  1.4687 -0.1580
  151MOL   H15848458   3.715   1.790   1.434 -2.5514 -1.2516  0.5320
  151MOL   H15948459   3.768   1.827   1.265 -2.8842  0.2006 -2.0243
  151MOL   H16048460   3.827   2.072   0.945 -1.4230 -1.1240 -0.1232
  151MOL   H16148461   3.936   2.206   1.003  1.4838 -1.1729  0.6852
  151MOL   C16248462   3.973   2.020   1.096  0.1513  0.8248 -0.0854
  151MOL   O16348463   4.078   1.981   1.008 -0.2253 -0.7001  0.6744
  151MOL   C16448464   4.049   1.899   0.903  0.1231 -0.4827 -0.0997
  151MOL   C16548465   4.172   1.821   0.847 -0.8503  0.7054  1.1399
  151MOL   C16648466   4.228   1.725   0.958  0.6536  0.8047  0.6320
  151MOL   C16748467   4.041   2.076   1.219  0.6651 -0.0869 -0.2439
  151MOL   H16848468   3.916   1.931   1.119 -1.1894  1.8597  0.6725
  151MOL   H16948469   3.981   1.823   0.942  0.6424  0.5369  2.8947
  151MOL   H17048470   4.009   1.953   0.817  1.9837 -0.0921 -0.7457
  151MOL   H17148471   4.249   1.895   0.826 -1.2544  0.4956 -1.1663
  151MOL   H17248472   4.150   1.761   0.759  0.9247 -0.4641  1.4583
  151MOL   H17348473   4.308   1.662   0.919 -0.9839 -1.0251  0.0865
  151MOL   H17448474   4.149   1.652   0.979  0.4630  0.6427 -0.6207
  151MOL   H17548475   4.259   1.777   1.048  1.1333  0.9262  0.3990
  151MOL   H17648476   4.090   2.166   1.182  0.6044  0.2702  0.5455
  151MOL   H17748477   3.967   2.107   1.292  2.7919  0.6961  1.6164
  151MOL   C17848478   4.145   1.994   1.296 -0.3066 -0.1229 -0.0947
  151MOL   O17948479   4.211   2.081   1.393 -0.1709 -0.6894  0.4118
  151MOL   C18048480   4.335   2.123   1.346 -0.5334 -0.1220  0.1635
  151MOL   C18148481   4.385   2.237   1.424 -0.3362  0.2090 -0.1169
  151MOL   C18248482   4.297   2.355   1.401 -0.2934 -0.7494  0.5748
  151MOL   C18348483   4.088   1.887   1.389  0.3194  0.0489  0.4816
  151MOL   H18448484   4.214   1.955   1.221  2.6399  4.7675 -0.1363
  151MOL   H18548485   4.412   2.046   1.351 -1.7944 -1.4948 -1.1491
  151MOL   H18648486   4.333   2.153   1.241  1.8608 -2.4815 -0.6295
  151MOL   H18748487   4.487   2.266   1.398  0.6579 -2.0268  1.1702
  151MOL   H18848488   4.396   2.219   1.531  2.5408 -0.3733 -0.4786
  151MOL   H18948489   4.189   2.337   1.408 -0.4758  0.4523  0.9798
  151MOL   H19048490   4.309   2.405   1.305 -1.5023 -2.0832 -0.2936
  151MOL   H19148491   4.307   2.427   1.483 -0.6209  2.3921 -2.0656
  151MOL   H19248492   4.041   1.937   1.473 -0.0701 -0.1532  0.3879
  151MOL   H19348493   4.003   1.828   1.354 -0.7211  1.6174  0.3181
  151MOL   C19448494   4.198   1.798   1.450 -0.3948 -0.3831 -0.1504
  151MOL   O19548495   4.153   1.745   1.575 -0.4198  0.4927  0.2543
  151MOL   C19648496   4.215   1.816   1.683 -0.1219  0.8807  0.0703
  151MOL   C19748497   4.186   1.767   1.826 -0.1120  0.3472  0.4729
  151MOL   C19848498   4.256   1.853   1.938 -0.0409  0.2189 -0.1100
  151MOL   C19948499   4.223   1.685   1.362  0.1477 -0.2984 -0.0981
  151MOL   H20048500   4.294   1.847   1.465  0.1309 -0.9820 -1.4602
  151MOL   H20148501   4.323   1.799   1.678 -0.4578 -2.4624  2.4373
  151MOL   H20248502   4.208   1.924   1.673 -2.7432  0.5086 -2.6193
  151MOL   H20348503   4.214   1.663   1.812  0.0624  0.5194 -0.4656
  151MOL   H20448504   4.078   1.785   1.833 -0.2874 -1.0794  1.5971
  151MOL   H20548505   4.237   1.820   2.040 -2.1888  1.2391 -0.1509
  151MOL   H20648506   4.219   1.956   1.941  0.6366  0.4410  0.7241
  151MOL   H20748507   4.363   1.839   1.925  0.0153  0.9707 -0.5216
  151MOL   H20848508   4.133   1.624   1.352 -0.5658  0.4715  1.3995
  151MOL   H20948509   4.248   1.714   1.260 -2.6963  0.2988 -0.6769
  151MOL   C21048510   4.342   1.589   1.420  0.7624  0.1178  0.1927
  151MOL   O21148511   4.280   1.463   1.416  0.3708 -0.3270 -0.0431
  151MOL   C21248512   4.201   1.417   1.527  0.1555  0.0583 -0.2696
  151MOL   C21348513   4.281   1.358   1.639  0.2114  0.6312  0.7068
  151MOL   C21448514   4.194   1.318   1.766 -0.3071 -0.0270  0.1596
  151MOL   C21548515   4.471   1.593   1.331  0.5216 -0.3073  0.4913
  151MOL   H21648516   4.360   1.619   1.523 -2.0384  0.9839  0.4683
  151MOL   H21748517   4.148   1.505   1.564 -0.0024  0.5248 -1.5649
  151MOL   H21848518   4.113   1.364   1.492 -0.0861  0.4483 -0.2517
  151MOL   H21948519   4.352   1.429   1.681  0.7801  1.0131 -0.8712
  151MOL   H22048520   4.341   1.272   1.609 -0.3543 -0.8369  3.5787
  151MOL   H22148521   4.135   1.408   1.784  3.3611  2.5204  0.1190
  151MOL   H22248522   4.249   1.298   1.858 -1.0532 -1.1963  0.3466
  151MOL   H22348523   4.121   1.245   1.733 -0.5213 -0.7989  2.3210
  151MOL   H22448524   4.523   1.502   1.360 -1.3245 -1.0773  1.4549
  151MOL   H22548525   4.444   1.569   1.228 -1.4015 -1.6003  1.2801
  151MOL   C22648526   4.567   1.715   1.337  0.2670 -0.0767  0.3656
  151MOL   O22748527   4.601   1.736   1.476 -0.3424 -0.3318  0.4542
  151MOL   C22848528   4.694   1.845   1.489 -0.3031  0.3837  0.0615
  151MOL   C22948529   4.705   1.891   1.637  0.2595 -0.8014  0.3667
  151MOL   C23048530   4.591   1.977   1.682  0.0439 -0.1363  0.7776
  151MOL   C23148531   4.684   1.696   1.235 -0.1775 -0.0656 -0.4223
  151MOL   H23248532   4.510   1.798   1.294  0.8793  1.0729  1.7221
  151MOL   H23348533   4.798   1.822   1.467 -0.8160 -0.5032 -1.4676
  151MOL   H23448534   4.664   1.924   1.420 -0.9030  0.9400  0.9578
  151MOL   H23548535   4.792   1.956   1.646 -1.1479  1.4574 -1.5404
  151MOL   H23648536   4.714   1.809   1.708  1.4290 -0.3684  0.7382
  151MOL   H23748537   4.494   1.936   1.652 -0.0832 -0.1558  1.2141
  151MOL   H23848538   4.609   2.081   1.654  1.0067 -0.6823 -0.6989
  151MOL   H23948539   4.576   1.970   1.789 -1.0571 -0.7226  0.5951
  151MOL   H24048540   4.775   1.747   1.265 -0.1777  1.3953 -2.8013
  151MOL   H24148541   4.721   1.593   1.240  2.1596  0.8131  0.9357
  151MOL   C24248542   4.649   1.738   1.088 -0.2544  0.1231 -0.0700
  151MOL   O24348543   4.666   1.882   1.068  0.0003  0.1131  0.4378
  151MOL   C24448544   4.542   1.955   1.070 -0.0366 -0.2675 -0.3993
  151MOL   C24548545   4.571   2.067   0.966  0.6334  0.7097  0.0752
  151MOL   C24648546   4.449   2.152   0.935 -0.2801  0.0997  0.2946
  151MOL   C24748547   4.735   1.664   0.979  0.4544  0.1823 -0.3024
  151MOL   H24848548   4.546   1.706   1.077  0.1057 -1.0045 -0.2614
  151MOL   H24948549   4.455   1.899   1.036 -0.9403  1.6016 -1.2502
  151MOL   H25048550   4.518   1.985   1.172 -0.0091  0.4359 -0.5990
  151MOL   H25148551   4.608   2.028   0.871 -2.6189 -0.0488 -0.9506
  151MOL   H25248552   4.650   2.131   1.005  0.2608  1.0284  0.3042
  151MOL   H25348553   4.429   2.198   1.031  1.1761 -1.6483  1.4672
  151MOL   H25448554   4.370   2.094   0.888 -1.3549  2.0165 -0.3154
  151MOL   H25548555   4.480   2.232   0.868  1.4958  1.1940  2.3340
  151MOL   H25648556   4.835   1.686   1.016 -1.1680  1.2395  3.7607
  151MOL   H25748557   4.727   1.556   0.987 -0.1273  0.2256 -0.2103
  151MOL   C25848558   4.712   1.703   0.831 -0.1261  0.2247 -0.5054
  151MOL   O25948559   4.823   1.666   0.739 -0.3971 -0.1843 -0.1793
  151MOL   C26048560   4.897   1.769   0.683  0.2792 -0.5665 -0.1485
  151MOL   C26148561   5.019   1.694   0.629 -0.1754 -0.3851  0.6022
  151MOL   C26248562   5.099   1.766   0.523  0.1510  0.5237 -0.2776
  151MOL   C26348563   4.579   1.653   0.786  0.6493  0.4866 -0.4349
  151MOL   H26448564   4.709   1.812   0.845 -0.0570 -0.1482  3.0305
  151MOL   H26548565   4.838   1.811   0.601 -0.4255  0.6165  0.9367
  151MOL   H26648566   4.923   1.844   0.758  2.2392 -1.0708 -0.3013
  151MOL   H26748567   4.994   1.594   0.595 -1.1659  0.4543 -1.2368
  151MOL   H26848568   5.084   1.672   0.714 -0.3727  0.1806  0.9044
  151MOL   H26948569   5.167   1.692   0.482  0.9758  2.2984 -2.2212
  151MOL   H27048570   5.169   1.835   0.571  0.4028 -0.4150  0.7054
  151MOL   H27148571   5.040   1.812   0.444  0.9584 -0.6459 -1.5751
  151MOL   H27248572   4.576   1.547   0.811  2.5392  0.9072  1.6854
  151MOL   H27348573   4.499   1.700   0.844  2.1434  1.3916  0.9420
  151MOL   C27448574   4.543   1.678   0.638  1.2797 -1.0391 -0.8360
  151MOL   O27548575   4.412   1.623   0.612 -0.8408  1.1145 -0.6009
  151MOL   C27648576   4.406   1.475   0.609 -0.5552  0.2436 -0.5988
  151MOL   C27748577   4.256   1.442   0.585 -0.3476 -0.1982 -0.1829
  151MOL   C27848578   4.221   1.292   0.578 -0.1663  0.3312 -0.9658
  151MOL   C27948579   4.528   1.836   0.630  0.2224 -0.5693 -0.3049
  151MOL   H28048580   4.626   1.649   0.573  1.2583 -0.6578 -1.0349
  151MOL   H28148581   4.468   1.432   0.530  0.1846  0.6862 -0.2582
  151MOL   H28248582   4.436   1.430   0.704 -2.4088  0.9960  0.3650
  151MOL   H28348583   4.221   1.486   0.491  1.0935  1.1612 -0.1109
  151MOL   H28448584   4.185   1.490   0.652 -2.6030 -1.4265 -1.6226
  151MOL   H28548585   4.114   1.278   0.560 -0.6809  0.1565  1.9432
  151MOL   H28648586   4.247   1.246   0.674 -0.1074  0.1221 -1.0829
  151MOL   H28748587   4.282   1.249   0.499 -0.8607 -0.2016 -1.2196
  151MOL   H28848588   4.479   1.877   0.718  0.0544  0.4954 -0.8809
  151MOL   H28948589   4.627   1.883   0.631  0.6562 -1.4401 -1.4014
  151MOL   C29048590   4.473   1.889   0.490  0.5273 -0.3993 -0.1599
  151MOL   O29148591   4.459   2.033   0.500  0.2753  0.1323 -0.3129
  151MOL   C29248592   4.336   2.077   0.548 -0.4727 -0.1841 -0.0719
  151MOL   C29348593   4.360   2.219   0.588  0.2922  0.6248 -0.3245
  151MOL   C29448594   4.385   2.311   0.466 -0.3528 -0.3419  0.6555
  151MOL   C29548595   4.570   1.867   0.370 -0.3035  0.7608 -0.5347
  151MOL   H29648596   4.378   1.840   0.468  0.1181 -0.8541  2.3661
  151MOL   H29748597   4.248   2.059   0.486  0.4313  0.0743 -1.4472
  151MOL   H29848598   4.313   2.022   0.639 -0.8136 -1.8221 -1.1299
  151MOL   H29948599   4.440   2.215   0.662 -0.8960 -1.0068  0.9203
  151MOL   H30048600   4.278   2.260   0.647 -0.4713  1.0833 -1.6943
  151MOL   H30148601   4.479   2.287   0.417  0.0990 -3.3801  2.8559
  151MOL   H30248602   4.391   2.417   0.491 -0.3906  0.0567 -1.0036
  151MOL   H30348603   4.302   2.311   0.395 -0.8009  0.3817  1.1726
  151MOL   H30448604   4.674   1.879   0.402  0.0422  0.1479 -1.3835
  151MOL   H30548605   4.567   1.761   0.344 -0.4573  0.8348 -0.8188
  151MOL   C30648606   4.555   1.951   0.242  0.1206  0.4707 -0.6101
  151MOL   O30748607   4.648   1.901   0.140  0.2740  0.1860 -0.0105
  151MOL   C30848608   4.769   1.977   0.132  0.0539 -0.1235 -0.3999
  151MOL   C30948609   4.882   1.894   0.054 -0.0862 -0.4931 -0.5267
  151MOL   C31048610   5.017   1.973   0.042 -0.0770  0.2615  0.3201
  151MOL   C31148611   4.413   1.925   0.185  0.1278  0.0170  0.1108
  151MOL   H31248612   4.550   2.057   0.267  2.7530 -0.2620  3.6254
  151MOL   H31348613   4.744   2.066   0.075 -0.4744 -1.8154 -2.9188
  151MOL   H31448614   4.796   1.997   0.235 -2.3168 -0.6620  0.3620
  151MOL   H31548615   4.844   1.882   7.781 -0.6364 -1.6505 -0.1841
  151MOL   H31648616   4.901   1.802   0.109  0.0355 -1.1298 -1.6111
  151MOL   H31748617   5.069   1.973   0.138  2.9123  1.6086 -1.2337
  151MOL   H31848618   5.002   2.078   0.015  3.1113  0.7170  0.0997
  151MOL   H31948619   5.085   1.929   7.797  1.2872  0.7173  1.2796
  151MOL   H32048620   4.334   1.968   0.246  1.7078 -0.5262  2.6344
  151MOL   H32148621   4.388   1.965   0.087 -0.4569  0.4608  0.4398
  151MOL   H32248622   4.392   1.819   0.194  0.4302 -0.1275 -0.8054
  152MOL     C148623   6.301   3.519   7.554  0.1640 -0.0753  0.5192
  152MOL     O248624   6.273   3.426   7.648 -0.5655  0.4298  0.1895
  152MOL     C348625   6.370   3.422   7.758  0.1284 -0.2536 -0.3938
  152MOL     C448626   6.327   3.300   0.015  0.5953  0.0905  1.5626
  152MOL     C548627   6.404   3.279   0.143 -0.2289  0.0473 -0.3247
  152MOL     C648628   6.201   3.502   7.431 -0.4968 -0.6970 -0.3547
  152MOL     H748629   6.396   3.491   7.508 -1.3703 -4.4277 -0.2604
  152MOL     H848630   6.467   3.413   7.710 -0.1045  2.5065 -1.4359
  152MOL     H948631   6.357   3.516   7.812 -1.1876 -0.6853  0.0797
  152MOL    H1048632   6.316   3.204   7.792 -0.4506  1.5521 -1.1258
  152MOL    H1148633   6.223   3.327   0.038 -1.1267 -3.7430 -1.0996
  152MOL    H1248634   6.501   3.319   0.117  0.3227 -0.7359  0.4875
  152MOL    H1348635   6.431   3.180   0.180  1.7294 -0.2554 -2.5066
  152MOL    H1448636   6.377   3.341   0.229 -0.6496 -0.4004 -0.1348
  152MOL    H1548637   6.239   3.407   7.391 -0.0793 -0.1612 -1.2389
  152MOL    H1648638   6.101   3.478   7.468 -0.7477 -1.4648 -1.5060
  152MOL    H1748639   6.309   3.623   7.585 -2.8570  0.1063  0.8583
  152MOL    C1848640   6.218   3.615   7.326 -0.1430 -0.1062  0.0165
  152MOL    O1948641   6.166   3.734   7.386  0.4385  0.5158 -0.0345
  152MOL    C2048642   6.034   3.755   7.367 -0.0661 -0.3632 -0.6627
  152MOL    C2148643   6.027   3.886   7.440  0.1347  0.2277  0.5063
  152MOL    C2248644   5.878   3.935   7.445  0.1041  0.1229 -0.1830
  152MOL    C2348645   6.369   3.656   7.292  0.7105 -0.2504 -0.6022
  152MOL    H2448646   6.168   3.587   7.233 -0.9189  0.7802  0.1643
  152MOL    H2548647   6.010   3.772   7.262 -2.5467 -3.4373 -0.6735
  152MOL    H2648648   5.973   3.672   7.403 -0.9466 -0.0120 -1.3074
  152MOL    H2748649   6.095   3.957   7.391 -0.0973 -1.1356 -1.8781
  152MOL    H2848650   6.075   3.882   7.538  0.6335  0.4934  0.2757
  152MOL    H2948651   5.830   3.935   7.347 -0.4290  0.5828  0.0730
  152MOL    H3048652   5.863   4.029   7.498  0.4161  0.3998 -0.5795
  152MOL    H3148653   5.819   3.861   7.499 -2.7622  1.2022 -1.6787
  152MOL    H3248654   6.358   3.743   7.227  1.1832  1.1108  1.1029
  152MOL    H3348655   6.421   3.690   7.382 -3.3446  2.0739  0.9962
  152MOL    C3448656   6.443   3.537   7.224 -0.2888  0.0854 -0.7231
  152MOL    O3548657   6.379   3.507   7.097  0.1162 -0.2000  0.5260
  152MOL    C3648658   6.431   3.392   7.041 -0.0310  0.9022 -0.2923
  152MOL    C3748659   6.320   3.305   6.986  0.5300  0.0698 -0.3064
  152MOL    C3848660   6.234   3.225   7.089 -0.3759  1.1411  0.1481
  152MOL    C3948661   6.595   3.560   7.209  0.3192  0.0118 -0.1618
  152MOL    H4048662   6.433   3.446   7.283  0.1076  1.1017  0.9576
  152MOL    H4148663   6.490   3.423   6.955 -0.6470  0.4771 -0.8631
  152MOL    H4248664   6.492   3.332   7.109 -0.7538  0.0871 -0.3699
  152MOL    H4348665   6.373   3.234   6.922  0.9885 -0.6739  0.8834
  152MOL    H4448666   6.263   3.368   6.919 -0.4537 -0.6425 -0.1515
  152MOL    H4548667   6.182   3.286   7.163 -1.5795 -1.5553  1.5994
  152MOL    H4648668   6.285   3.142   7.138 -2.3342 -1.5292 -2.0974
  152MOL    H4748669   6.148   3.173   7.046 -0.2245 -0.3222  1.5277
  152MOL    H4848670   6.631   3.529   7.111  1.1668 -0.4496  0.2985
  152MOL    H4948671   6.608   3.668   7.213  0.4034  0.0621 -1.7333
  152MOL    C5048672   6.673   3.490   7.320 -0.2260  0.7180 -0.2294
  152MOL    O5148673   6.680   3.346   7.307 -0.0171  0.3492  0.3553
  152MOL    C5248674   6.621   3.276   7.412 -0.6146  0.5037 -0.0673
  152MOL    C5348675   6.591   3.135   7.360  0.6839  0.1005  0.0319
  152MOL    C5448676   6.714   3.051   7.327 -0.0413 -0.0997 -0.2446
  152MOL    C5548677   6.816   3.528   7.307 -0.5373 -0.3167 -0.1637
  152MOL    H5648678   6.631   3.507   7.419 -1.2939 -1.6812 -0.2189
  152MOL    H5748679   6.681   3.288   7.502  0.2219 -1.4951 -0.3370
  152MOL    H5848680   6.521   3.313   7.435 -0.9108 -0.6721  0.5973
  152MOL    H5948681   6.529   3.137   7.271  0.2253 -0.2062  0.3441
  152MOL    H6048682   6.540   3.070   7.431 -1.2987  2.0650  0.4292
  152MOL    H6148683   6.773   3.090   7.244  0.3290  1.8401  0.9080
  152MOL    H6248684   6.686   2.946   7.314 -0.1367  0.1857 -2.4730
  152MOL    H6348685   6.779   3.050   7.415 -1.3922 -0.2220  0.7513
  152MOL    H6448686   6.865   3.462   7.379  2.4861  0.9551 -1.0109
  152MOL    H6548687   6.843   3.491   7.208 -1.5011 -0.7988 -0.2540
  152MOL    C6648688   6.862   3.666   7.330  0.3961 -0.9420 -0.0757
  152MOL    O6748689   6.836   3.686   7.473 -0.5566  0.2218  0.0557
  152MOL    C6848690   6.765   3.802   7.516  0.6143 -0.3742  0.4732
  152MOL    C6948691   6.738   3.788   7.669  0.5839 -0.1550 -0.2280
  152MOL    C7048692   6.624   3.693   7.712 -0.2804 -0.1720 -0.1696
  152MOL    C7148693   7.019   3.678   7.292  0.5751 -0.3643  0.3413
  152MOL    H7248694   6.815   3.746   7.272 -3.0053 -2.9210 -0.1756
  152MOL    H7348695   6.832   3.888   7.515  0.8498 -0.5560 -1.7124
  152MOL    H7448696   6.674   3.813   7.455 -0.2398 -0.0480  1.7867
  152MOL    H7548697   6.709   3.887   7.702  2.8040  0.1233  0.9925
  152MOL    H7648698   6.831   3.757   7.717  1.0345 -0.6585 -1.3872
  152MOL    H7748699   6.651   3.589   7.698  1.2989  0.4332 -1.7846
  152MOL    H7848700   6.539   3.724   7.651 -0.0024  0.1804 -0.3827
  152MOL    H7948701   6.602   3.706   7.818  1.4260 -0.5300  0.2331
  152MOL    H8048702   7.072   3.746   7.360  1.2090 -0.1293 -0.3821
  152MOL    H8148703   7.064   3.580   7.304  3.0765  0.7990  0.9048
  152MOL    C8248704   7.046   3.724   7.147 -0.0580 -0.0174 -0.1155
  152MOL    O8348705   7.107   3.855   7.153 -0.0970  0.2545 -0.2677
  152MOL    C8448706   7.083   3.944   7.040  0.3407 -0.1155  1.2547
  152MOL    C8548707   7.156   4.077   7.052 -0.4524  0.0351  0.2574
  152MOL    C8648708   7.109   4.185   6.953 -0.6531  0.3467 -0.0904
  152MOL    C8748709   7.142   3.634   7.064  0.1085  0.0917 -0.0703
  152MOL    H8848710   6.952   3.736   7.093 -0.4439 -0.8487  0.3691
  152MOL    H8948711   7.101   3.895   6.945 -1.9909  0.8467  0.2750
  152MOL    H9048712   6.975   3.956   7.044 -0.1134 -1.6428 -3.7273
  152MOL    H9148713   7.264   4.065   7.051 -0.5219 -0.8448  2.0202
  152MOL    H9248714   7.147   4.115   7.153 -0.2933  2.1454 -0.4916
  152MOL    H9348715   7.162   4.173   6.859  2.2445 -0.6170  1.5858
  152MOL    H9448716   7.133   4.282   6.997 -4.1712  1.0805  0.3464
  152MOL    H9548717   7.000   4.181   6.955 -0.6173 -0.6946 -0.2119
  152MOL    H9648718   7.171   3.693   6.977  0.0366  1.9494  1.1155
  152MOL    H9748719   7.241   3.630   7.109 -0.7449 -0.0491  1.8740
  152MOL    C9848720   7.071   3.510   7.004  0.1517  0.3569  0.1470
  152MOL    O9948721   6.958   3.554   6.929 -0.3246 -0.0655  0.6866
  152MOL   C10048722   6.968   3.631   6.812  0.2593  0.0657 -0.4763
  152MOL   C10148723   6.838   3.650   6.742 -0.3545 -0.1307  0.3517
  152MOL   C10248724   6.729   3.707   6.830  0.2342  0.8156  0.3783
  152MOL   C10348725   7.151   3.406   6.917 -0.3417 -0.0061  0.0898
  152MOL   H10448726   7.029   3.453   7.086  0.7901  1.8887  1.5806
  152MOL   H10548727   7.013   3.729   6.827  0.1959 -0.0931  0.7808
  152MOL   H10648728   7.036   3.570   6.752  0.2207 -1.9453  1.4328
  152MOL   H10748729   6.805   3.559   6.691  1.7898 -0.3326 -0.7686
  152MOL   H10848730   6.848   3.730   6.669 -2.7450  1.5517  1.7956
  152MOL   H10948731   6.762   3.806   6.859 -0.3446  2.0455 -2.9647
  152MOL   H11048732   6.692   3.648   6.915  1.2069  2.1042  1.7079
  152MOL   H11148733   6.636   3.735   6.780 -0.3756  1.0871  1.6171
  152MOL   H11248734   7.077   3.335   6.880 -0.3835  0.0861 -0.0028
  152MOL   H11348735   7.202   3.468   6.843 -1.2236  1.4204  0.6659
  152MOL   C11448736   7.264   3.331   6.998 -0.3924  0.2234  0.3958
  152MOL   O11548737   7.188   3.259   7.095  0.2151 -0.3232 -0.6814
  152MOL   C11648738   7.212   3.280   7.232  0.0771  0.6968  0.0296
  152MOL   C11748739   7.078   3.243   7.308 -0.3539 -0.3955  0.6734
  152MOL   C11848740   7.091   3.224   7.460 -0.6188 -0.5652 -0.4260
  152MOL   C11948741   7.335   3.221   6.919  0.4052  0.6969  0.0127
  152MOL   H12048742   7.336   3.396   7.047 -0.0577 -1.0223  1.5806
  152MOL   H12148743   7.296   3.219   7.266  0.2242  0.5785 -0.5565
  152MOL   H12248744   7.232   3.385   7.254  1.6672  0.1965  1.0956
  152MOL   H12348745   7.054   3.144   7.268  0.3297 -0.9358  1.5838
  152MOL   H12448746   7.002   3.310   7.269 -0.2788  0.7882  2.5114
  152MOL   H12548747   7.007   3.187   7.518 -0.8028 -0.7054 -0.7798
  152MOL   H12648748   7.111   3.320   7.506  0.3431 -1.8665  1.9516
  152MOL   H12748749   7.178   3.160   7.475  0.4527  0.9319 -0.1761
  152MOL   H12848750   7.256   3.151   6.890  0.9887  0.6681 -1.5608
  152MOL   H12948751   7.360   3.246   6.816  0.5422 -1.4243 -0.4916
  152MOL   C13048752   7.463   3.163   6.991  0.2599  0.3198 -0.4624
  152MOL   O13148753   7.517   3.050   6.932  0.1710 -0.1760 -0.1232
  152MOL   C13248754   7.426   2.942   6.932 -0.4508  0.4172 -0.1075
  152MOL   C13348755   7.525   2.834   6.957 -0.2595 -0.2448 -0.0208
  152MOL   C13448756   7.470   2.695   6.992 -0.0368  0.0699  0.5651
  152MOL   C13548757   7.583   3.264   6.982 -0.2446  0.5881  0.7343
  152MOL   H13648758   7.446   3.150   7.097  0.0803 -0.5592 -0.5969
  152MOL   H13748759   7.354   2.925   7.013  1.3587 -3.3085  0.8261
  152MOL   H13848760   7.380   2.937   6.833 -1.9901 -1.6484  0.6685
  152MOL   H13948761   7.595   2.856   7.038 -1.1704  1.1351  0.4194
  152MOL   H14048762   7.591   2.828   6.870 -0.1174  1.4154 -0.0593
  152MOL   H14148763   7.394   2.704   7.069 -0.4829 -0.0988  0.1408
  152MOL   H14248764   7.550   2.626   7.020  1.8185  1.7433 -0.4559
  152MOL   H14348765   7.423   2.651   6.905  1.1634 -0.6469  0.2733
  152MOL   H14448766   7.607   3.275   6.876 -0.3312 -1.1429  0.5278
  152MOL   H14548767   7.554   3.365   7.013  3.9609  1.4745  2.2259
  152MOL   C14648768   7.712   3.226   7.053  0.7170  0.0210 -0.0074
  152MOL   O14748769   7.802   3.329   7.033  0.2119 -0.3486  0.1158
  152MOL   C14848770   0.059   3.306   6.914  0.1503 -0.0514  0.6539
  152MOL   C14948771   0.157   3.425   6.910 -0.8214  0.1358  0.1524
  152MOL   C15048772   0.275   3.409   7.003 -1.1868 -0.3559 -0.4655
  152MOL   C15148773   7.704   3.219   7.207  0.2716  0.0702  0.2097
  152MOL   H15248774   7.752   3.134   7.009  2.5479  0.3612  0.9043
  152MOL   H15348775   0.111   3.210   6.914 -0.6158 -0.5040 -1.0883
  152MOL   H15448776   7.821   3.319   6.827  0.8972  1.5415  0.2999
  152MOL   H15548777   0.103   3.516   6.936  0.5500  0.8444  0.5385
  152MOL   H15648778   0.200   3.441   6.811 -1.9798  1.6532 -0.1264
  152MOL   H15748779   0.247   3.385   7.105 -0.0976  0.5426  0.0569
  152MOL   H15848780   0.334   3.501   7.002  0.0768 -1.1411  0.0275
  152MOL   H15948781   0.328   3.325   6.958 -2.2570 -1.0234 -0.4840
  152MOL   H16048782   7.798   3.261   7.243 -0.0699  0.6410  0.4292
  152MOL   H16148783   7.631   3.294   7.237  0.4029  0.6300 -0.8446
  152MOL   C16248784   7.657   3.087   7.274  0.3431  0.4442 -0.5843
  152MOL   O16348785   7.773   3.016   7.324 -0.6331 -0.4619  0.3682
  152MOL   C16448786   0.043   2.982   7.230  0.3822  0.6069  0.5363
  152MOL   C16548787   0.126   2.866   7.285 -0.2640 -0.6772 -0.3623
  152MOL   C16648788   0.038   2.743   7.315 -0.3964  0.5361 -0.2180
  152MOL   C16748789   7.570   3.105   7.399 -0.1750  0.7198 -0.9388
  152MOL   H16848790   7.607   3.016   7.208  0.3095 -0.8800  0.8545
  152MOL   H16948791   0.009   2.944   7.134  1.6574  2.0444 -0.5178
  152MOL   H17048792   0.115   3.062   7.212  0.5799  0.3943  0.3846
  152MOL   H17148793   0.177   2.898   7.376  1.4527 -1.2620 -1.0847
  152MOL   H17248794   0.214   2.837   7.227  0.0481  1.3606 -0.9462
  152MOL   H17348795   0.113   2.670   7.348  0.1185  1.0344 -0.2673
  152MOL   H17448796   7.810   2.716   7.226 -3.0041  1.6016  1.0617
  152MOL   H17548797   7.791   2.761   7.392 -0.3620 -1.0629  0.2118
  152MOL   H17648798   7.638   3.129   7.481 -0.5190 -0.9731 -0.1217
  152MOL   H17748799   7.499   3.188   7.401  3.7681  4.2720  1.7276
  152MOL   C17848800   7.493   2.983   7.440  0.0277 -0.1250  0.1939
  152MOL   O17948801   7.447   2.997   7.573 -0.2658  0.3404 -0.2419
  152MOL   C18048802   7.539   2.980   7.678 -0.0639  0.2261  0.1040
  152MOL   C18148803   7.494   2.849   7.743 -1.0676 -0.3770  0.1491
  152MOL   C18248804   7.353   2.833   7.791  0.0834  0.6762 -0.2071
  152MOL   C18348805   7.374   2.951   7.347 -0.1996  0.2893 -0.4604
  152MOL   H18448806   7.570   2.907   7.431  2.0601  2.1112 -1.9752
  152MOL   H18548807   7.643   2.969   7.645 -0.8187 -2.1354 -1.5819
  152MOL   H18648808   7.526   3.067   7.742  2.2524  0.8172 -0.1699
  152MOL   H18748809   7.551   2.823   0.005  0.1289  0.7636 -0.2541
  152MOL   H18848810   7.519   2.770   7.672  1.8671  0.5008  0.1177
  152MOL   H18948811   7.308   2.929   7.817  0.8645  0.8330  0.5894
  152MOL   H19048812   7.367   2.771   0.051  0.2947 -0.5079 -1.0675
  152MOL   H19148813   7.290   2.783   7.718 -0.8314 -0.8369  1.5757
  152MOL   H19248814   7.296   3.027   7.346  0.1127  0.6065 -0.9835
  152MOL   H19348815   7.417   2.944   7.247  1.4414 -0.2600  0.2640
  152MOL   C19448816   7.282   2.825   7.367  0.0947 -0.5686 -0.3211
  152MOL   O19548817   7.217   2.807   7.244 -0.5438 -0.1165  0.5710
  152MOL   C19648818   7.080   2.817   7.258 -0.6903  0.5979 -0.1377
  152MOL   C19748819   7.031   2.826   7.115 -0.0323  0.4138  0.3284
  152MOL   C19848820   7.054   2.704   7.031 -0.4872  0.5574  0.0934
  152MOL   C19948821   7.365   2.702   7.397 -0.4068 -0.0104  0.2141
  152MOL   H20048822   7.204   2.853   7.438 -1.6141 -0.6668 -2.1210
  152MOL   H20148823   7.046   2.733   7.320  0.9900  0.6954  0.9604
  152MOL   H20248824   7.054   2.912   7.305  2.9701  0.8656  1.4588
  152MOL   H20348825   7.075   2.914   7.068  0.7923 -0.2163 -0.0994
  152MOL   H20448826   6.925   2.844   7.131  0.1277 -0.2145  2.1805
  152MOL   H20548827   7.003   2.613   7.062  0.8304 -0.1031  0.3893
  152MOL   H20648828   7.159   2.681   7.048 -0.4885  0.6873  0.2860
  152MOL   H20748829   7.035   2.725   6.926  2.6337  1.2347 -0.3952
  152MOL   H20848830   7.445   2.693   7.324  1.0340  0.9931  1.6592
  152MOL   H20948831   7.408   2.717   7.496  1.6770 -1.6593 -0.4177
  152MOL   C21048832   7.285   2.567   7.402 -0.4622 -0.0733  0.3163
  152MOL   O21148833   7.373   2.461   7.388 -0.2238  0.1201 -0.2304
  152MOL   C21248834   7.412   2.437   7.258  0.0890 -0.7534  0.3558
  152MOL   C21348835   7.530   2.339   7.268  0.0916 -0.1646  0.1393
  152MOL   C21448836   7.657   2.409   7.310  0.4118 -0.2434  0.0845
  152MOL   C21548837   7.214   2.544   7.535  0.3530  0.3821  0.2055
  152MOL   H21648838   7.222   2.570   7.313 -0.9466 -0.4823  0.6439
  152MOL   H21748839   7.329   2.398   7.199  0.9383 -0.8153 -0.8067
  152MOL   H21848840   7.441   2.526   7.203  0.7676 -1.1536  0.0642
  152MOL   H21948841   7.545   2.288   7.173  1.5521  1.1717 -0.3661
  152MOL   H22048842   7.500   2.255   7.331 -3.3661  0.0891 -1.0250
  152MOL   H22148843   7.657   2.443   7.413 -2.3927 -0.9871  0.3698
  152MOL   H22248844   7.678   2.494   7.244 -0.4471 -0.7881 -0.9189
  152MOL   H22348845   7.738   2.339   7.290 -0.9649 -1.2572 -2.3189
  152MOL   H22448846   7.287   2.516   7.610 -0.1684 -0.6146  0.3491
  152MOL   H22548847   7.170   2.637   7.572 -0.2081  0.0731  0.3303
  152MOL   C22648848   7.094   2.439   7.544 -0.0776 -0.0852  0.3949
  152MOL   O22748849   7.125   2.317   7.478  0.1205  0.0301  0.1270
  152MOL   C22848850   7.030   2.274   7.378 -0.0500  0.8209 -0.2122
  152MOL   C22948851   7.064   2.129   7.341 -0.7118 -0.5554 -0.0339
  152MOL   C23048852   7.211   2.112   7.299 -0.6507  0.1162 -0.1058
  152MOL   C23148853   7.054   2.397   7.683  0.1581 -0.2198 -0.0262
  152MOL   H23248854   7.009   2.491   7.500  0.4310 -1.1269 -1.8722
  152MOL   H23348855   6.930   2.285   7.420  0.1300 -0.1984  0.4854
  152MOL   H23448856   7.038   2.344   7.295 -1.2158  0.5993 -0.5282
  152MOL   H23548857   6.987   2.108   7.266 -1.0643 -0.9332  0.4369
  152MOL   H23648858   7.034   2.070   7.427 -0.5579 -0.5901 -0.0042
  152MOL   H23748859   7.223   2.168   7.207  0.3405  0.0257 -0.0353
  152MOL   H23848860   7.248   2.010   7.309 -0.6814  0.0385 -0.8274
  152MOL   H23948861   7.282   2.157   7.369  0.9308  0.2394 -1.7606
  152MOL   H24048862   7.038   2.491   7.737 -1.0727 -0.2158 -0.3933
  152MOL   H24148863   6.956   2.350   7.681 -0.8225  1.7830 -0.6571
  152MOL   C24248864   7.141   2.320   7.774  0.2774 -0.6843  0.9196
  152MOL   O24348865   7.094   2.346   0.076  0.9173 -0.7730  0.4977
  152MOL   C24448866   7.182   2.398   0.167  0.0403 -0.0086  0.1017
  152MOL   C24548867   7.131   2.407   0.308  0.2819  0.1530  0.0125
  152MOL   C24648868   7.036   2.525   0.311 -0.1867  0.3814  0.1633
  152MOL   C24748869   7.121   2.166   7.750  0.0350  1.3572 -0.3750
  152MOL   H24848870   7.246   2.337   7.750 -0.0123 -0.5612 -0.2992
  152MOL   H24948871   7.258   2.320   0.169 -0.9144 -0.9478  3.2887
  152MOL   H25048872   7.222   2.491   0.126 -0.0336  1.2310  2.7370
  152MOL   H25148873   7.207   2.435   0.381  0.1533 -0.8126  0.5257
  152MOL   H25248874   7.075   2.319   0.339 -0.4699  0.6215 -0.0115
  152MOL   H25348875   7.097   2.615   0.305  0.4611 -0.0032  0.7559
  152MOL   H25448876   6.990   2.533   0.409 -0.4218 -0.1995  0.1015
  152MOL   H25548877   6.954   2.531   0.240  1.3126 -0.1889 -1.6636
  152MOL   H25648878   7.039   2.143   7.818  1.1843  1.8354  1.2026
  152MOL   H25748879   7.083   2.152   7.649 -0.1206  1.4801 -0.3336
  152MOL   C25848880   7.241   2.081   7.780 -0.7051  0.2335 -0.3661
  152MOL   O25948881   7.209   1.946   7.798 -0.3673 -0.0194 -0.1889
  152MOL   C26048882   7.216   1.908   0.108  0.1254 -0.0484  0.1606
  152MOL   C26148883   7.179   1.759   0.135  0.4123  0.3382  0.4201
  152MOL   C26248884   7.035   1.721   0.089 -0.0926  0.2921  0.3980
  152MOL   C26348885   7.336   2.086   7.661  0.5327  0.0379  0.4864
  152MOL   H26448886   7.296   2.115   0.040  0.3964 -1.1956 -0.4873
  152MOL   H26548887   7.318   1.916   0.146  0.0286 -1.6197  0.8064
  152MOL   H26648888   7.149   1.976   0.161  2.1204  0.7124  1.7800
  152MOL   H26748889   7.187   1.729   0.239  1.5304  1.8720  0.7926
  152MOL   H26848890   7.245   1.695   0.077 -2.6482 -1.8164 -0.8403
  152MOL   H26948891   6.964   1.794   0.126  1.0505  1.6815 -0.0840
  152MOL   H27048892   7.008   1.626   0.135 -0.1277  0.6511  1.1274
  152MOL   H27148893   7.031   1.723   7.808  0.5457  1.7654  0.3934
  152MOL   H27248894   7.319   1.996   7.601 -2.0064  0.8424 -0.0674
  152MOL   H27348895   7.312   2.167   7.593  0.4721 -0.2526  0.1572
  152MOL   C27448896   7.488   2.105   7.702 -0.1253  0.4043  0.2412
  152MOL   O27548897   7.505   2.228   7.769 -0.3363  0.8970 -0.2256
  152MOL   C27648898   7.564   2.324   7.685  0.6198  0.5171 -0.4363
  152MOL   C27748899   7.563   2.467   7.755  0.1367 -0.2902  0.3705
  152MOL   C27848900   7.666   2.498   0.034  0.1857 -0.1641  0.0567
  152MOL   C27948901   7.539   2.002   7.809  0.1675 -0.0175  0.5868
  152MOL   H28048902   7.538   2.102   7.606  1.6404 -2.8162  1.1571
  152MOL   H28148903   7.665   2.285   7.673  0.1145 -0.6979 -0.7769
  152MOL   H28248904   7.511   2.337   7.591  0.2443 -1.7294 -0.5522
  152MOL   H28348905   7.461   2.475   7.794 -0.2754  0.4692 -0.8548
  152MOL   H28448906   7.564   2.543   7.677 -0.6560 -0.1822  0.4628
  152MOL   H28548907   7.643   2.596   0.078  1.0276 -0.1239  0.4190
  152MOL   H28648908   7.760   2.489   7.809  0.3232  0.4217  0.1941
  152MOL   H28748909   7.674   2.419   0.108 -1.7777 -1.0450 -0.6358
  152MOL   H28848910   7.499   2.021   0.080 -0.4836  2.3667 -0.0834
  152MOL   H28948911   7.499   1.905   7.780  1.8559 -0.8306  0.9013
  152MOL   C29048912   7.700   2.003   7.811  0.0617  0.0523  0.2382
  152MOL   O29148913   7.752   1.933   0.095  0.2136  0.4532  0.2156
  152MOL   C29248914   0.009   2.008   0.184 -0.1018  0.3489  0.7097
  152MOL   C29348915   0.045   1.912   0.295 -0.4733 -0.8198  0.3856
  152MOL   C29448916   0.114   1.783   0.242  0.1579  0.4834  0.1389
  152MOL   C29548917   7.759   1.945   7.682  0.4784  0.4088 -0.3563
  152MOL   H29648918   7.730   2.107   7.824 -0.0099 -0.0037  0.8659
  152MOL   H29748919   0.097   2.041   0.129 -1.6054  0.3676 -1.7511
  152MOL   H29848920   7.783   2.095   0.221 -3.4208 -1.1857 -0.3088
  152MOL   H29948921   7.787   1.878   0.353  0.7562 -2.6452  1.1911
  152MOL   H30048922   0.119   1.957   0.361 -0.8304  0.5928 -0.1648
  152MOL   H30148923   0.202   1.801   0.181  0.7893 -1.8768  0.3085
  152MOL   H30248924   0.054   1.714   0.183 -0.4083  0.5944  0.5742
  152MOL   H30348925   0.150   1.730   0.330 -0.4197  0.7944  0.5712
  152MOL   H30448926   7.733   2.008   7.597 -0.2645 -1.5169 -1.5757
  152MOL   H30548927   0.040   1.953   7.683  0.5787 -0.8795  0.6572
  152MOL   C30648928   7.724   1.796   7.632  0.1728 -0.4680  0.3654
  152MOL   O30748929   7.591   1.791   7.574 -0.1758  0.1289 -0.0843
  152MOL   C30848930   7.519   1.674   7.601  0.0619  0.0350 -0.0612
  152MOL   C30948931   7.367   1.698   7.595 -0.8901 -0.1713 -0.1582
  152MOL   C31048932   7.284   1.576   7.629  0.3851  0.6015  1.5623
  152MOL   C31148933   7.813   1.729   7.526  0.2545  0.5126  0.4956
  152MOL   H31248934   7.720   1.734   7.721  1.2532 -1.2547 -0.1129
  152MOL   H31348935   7.558   1.593   7.539 -2.1264 -2.5833  1.8497
  152MOL   H31448936   7.542   1.648   7.704  2.3067 -0.9102 -0.7655
  152MOL   H31548937   7.345   1.741   7.498  3.4402  0.6492 -0.9061
  152MOL   H31648938   7.335   1.759   7.679 -0.6774 -0.7289  0.3353
  152MOL   H31748939   7.273   1.514   7.540  0.6574  1.2141  1.1013
  152MOL   H31848940   7.181   1.600   7.659 -0.0188  1.2892 -0.3447
  152MOL   H31948941   7.328   1.516   7.708  1.1884 -0.1866  0.5153
  152MOL   H32048942   7.781   1.742   7.423  0.1991  0.2455  0.4787
  152MOL   H32148943   0.085   1.774   7.531  0.6182  0.0022 -1.6540
  152MOL   H32248944   0.014   1.625   7.543  0.1922 -0.0960 -2.7859
  153MOL     C148945   0.222   5.371   5.726  0.0570  0.2094 -0.4157
  153MOL     O248946   0.188   5.246   5.760 -0.4832 -0.2215 -0.5427
  153MOL     C348947   0.118   5.237   5.885 -0.4416 -0.3635  0.4974
  153MOL     C448948   0.174   5.125   5.965 -0.2467 -0.7596 -0.2917
  153MOL     C548949   0.086   5.088   6.082 -0.1763  0.2215 -0.8655
  153MOL     C648950   0.317   5.351   5.613  0.3439 -0.2929 -0.0121
  153MOL     H748951   0.259   5.427   5.812 -0.1433  0.3456 -0.4168
  153MOL     H848952   0.123   5.327   5.945  2.0685 -0.5832  0.6599
  153MOL     H948953   0.012   5.220   5.861  0.2805 -2.3114 -1.5128
  153MOL    H1048954   0.271   5.163   5.997 -0.5368  0.1388 -0.4633
  153MOL    H1148955   0.201   5.034   5.910  0.2387 -0.9841  0.3066
  153MOL    H1248956   0.006   5.030   6.037  0.7028 -1.5437 -0.1991
  153MOL    H1348957   0.045   5.177   6.130  0.1069 -0.3596  0.4760
  153MOL    H1448958   0.140   5.032   6.158 -0.5494  0.2305 -0.5882
  153MOL    H1548959   0.260   5.295   5.539 -0.7410 -1.4003  1.6290
  153MOL    H1648960   0.340   5.448   5.569  0.3330  0.0066  0.6496
  153MOL    H1748961   0.129   5.424   5.702 -0.9606 -1.1237  0.5061
  153MOL    C1848962   0.459   5.296   5.658  0.3998 -0.4961 -0.2525
  153MOL    O1948963   0.550   5.265   5.549  0.0936 -0.6081  0.8533
  153MOL    C2048964   0.504   5.159   5.464  0.1011  0.4643 -0.2491
  153MOL    C2148965   0.603   5.122   5.355  0.2147 -0.3458 -0.0995
  153MOL    C2248966   0.726   5.036   5.410  0.6433 -0.1665  0.4133
  153MOL    C2348967   0.540   5.402   5.745 -0.0181 -0.0884 -0.5643
  153MOL    H2448968   0.443   5.202   5.710 -1.0932  0.5625  1.2391
  153MOL    H2548969   0.486   5.066   5.519  0.5093  0.3941 -0.2371
  153MOL    H2648970   0.410   5.182   5.413  0.0341  0.3981 -0.1583
  153MOL    H2748971   0.636   5.216   5.310  0.1153  0.6669  1.8744
  153MOL    H2848972   0.557   5.089   5.262  0.2196  1.4971 -0.7742
  153MOL    H2948973   0.765   5.087   5.498  2.2031 -0.5223 -0.0667
  153MOL    H3048974   0.809   5.031   5.339  1.3378 -1.8025  1.3277
  153MOL    H3148975   0.693   4.935   5.435  2.4143 -0.7154  0.5553
  153MOL    H3248976   0.587   5.472   5.676  0.9411 -0.0858  0.0742
  153MOL    H3348977   0.479   5.461   5.815 -0.0610 -0.0254 -0.6547
  153MOL    C3448978   0.658   5.340   5.828 -0.3567 -0.3121 -0.9147
  153MOL    O3548979   0.723   5.442   5.908  0.2999  0.2552  0.2351
  153MOL    C3648980   0.836   5.498   5.845  0.5452 -1.1975 -0.1547
  153MOL    C3748981   0.879   5.611   5.936 -1.1885 -0.6193 -0.4176
  153MOL    C3848982   0.913   5.563   6.079 -0.6064  0.1056  0.2447
  153MOL    C3948983   0.609   5.248   5.934  0.6040 -0.2811 -0.3794
  153MOL    H4048984   0.732   5.287   5.768  0.9791  0.0969  0.3398
  153MOL    H4148985   0.918   5.427   5.849  0.6241 -1.0844  0.2465
  153MOL    H4248986   0.819   5.523   5.740  2.8109  1.8211  0.1340
  153MOL    H4348987   0.798   5.683   5.929 -1.6364 -1.0797  0.0297
  153MOL    H4448988   0.966   5.670   5.906 -0.9289  0.3117  2.0263
  153MOL    H4548989   0.822   5.533   6.132 -0.3670 -1.8009 -0.3635
  153MOL    H4648990   0.950   5.644   6.142 -0.9720 -0.5719  1.3435
  153MOL    H4748991   0.987   5.483   6.082 -0.8598 -0.1118  0.8921
  153MOL    H4848992   0.544   5.306   6.000  0.3927 -1.0498  0.0993
  153MOL    H4948993   0.539   5.176   5.893 -0.9502  1.0547 -0.1249
  153MOL    C5048994   0.709   5.165   6.025 -0.2292 -0.2755 -0.3637
  153MOL    O5148995   0.644   5.072   6.117 -0.2231  0.6126  0.3801
  153MOL    C5248996   0.581   5.129   6.223  0.5529  0.6036  0.4302
  153MOL    C5348997   0.553   5.020   6.331 -0.0054  0.3304 -0.5528
  153MOL    C5448998   0.441   4.913   6.290  0.7074 -0.3678  0.1737
  153MOL    C5548999   0.811   5.090   5.940 -0.2653 -0.5913 -0.5417
  153MOL    H5649000   0.771   5.238   6.078 -0.6375  0.2354 -0.5823
  153MOL    H5749001   0.647   5.206   6.262  0.2634 -0.0618  2.2956
  153MOL    H5849002   0.495   5.189   6.194  0.3792  0.0607 -0.2019
  153MOL    H5949003   0.516   5.063   6.424 -0.2645 -1.5641  0.2331
  153MOL    H6049004   0.652   4.979   6.352  0.3910  2.1698  1.3668
  153MOL    H6149005   0.347   4.964   6.268 -0.7955 -2.6671  1.1158
  153MOL    H6249006   0.433   4.839   6.370  0.2138  0.0960  0.5628
  153MOL    H6349007   0.467   4.860   6.199  3.1754 -1.2088  1.3431
  153MOL    H6449008   0.756   5.035   5.864 -0.8006  3.3419 -3.1010
  153MOL    H6549009   0.878   5.161   5.892  0.6142 -1.4796 -0.6551
  153MOL    C6649010   0.897   4.987   6.013 -0.8300 -0.9799  0.0035
  153MOL    O6749011   0.986   4.923   5.923 -0.3123 -0.1662 -0.0267
  153MOL    C6849012   0.964   4.779   5.911  0.2095  0.1542  0.2754
  153MOL    C6949013   1.072   4.732   5.814  0.3756  1.1169 -0.2212
  153MOL    C7049014   1.054   4.581   5.793 -0.4729  0.2537  0.1065
  153MOL    C7149015   0.997   5.054   6.111  0.0521  0.1177  0.5639
  153MOL    H7249016   0.828   4.918   6.063 -1.7337  0.9767  1.5147
  153MOL    H7349017   0.981   4.724   6.003 -0.4796 -0.5869 -0.0323
  153MOL    H7449018   0.864   4.754   5.873  1.1307  0.3587 -2.3862
  153MOL    H7549019   1.168   4.764   5.856  0.0656 -0.4419  1.7632
  153MOL    H7649020   1.057   4.780   5.717 -0.5511  0.3942 -0.4454
  153MOL    H7749021   1.125   4.555   5.715 -0.9239  0.2864 -0.3103
  153MOL    H7849022   0.949   4.572   5.766 -0.6032 -1.7326  1.1987
  153MOL    H7949023   1.087   4.537   5.887  0.2991 -0.4058 -0.4664
  153MOL    H8049024   1.065   5.112   6.049 -0.5706 -0.4374 -0.6536
  153MOL    H8149025   0.943   5.134   6.160 -0.7752 -0.2958  0.3389
  153MOL    C8249026   1.073   4.964   6.202 -0.1791  0.2016 -0.2175
  153MOL    O8349027   1.178   5.037   6.259  0.4651 -0.2699  0.0683
  153MOL    C8449028   1.292   5.026   6.172 -0.4313 -0.9136 -0.3122
  153MOL    C8549029   1.392   5.138   6.207  0.5423 -0.9169 -0.8875
  153MOL    C8649030   1.511   5.150   6.113 -0.4796  0.0170  0.6277
  153MOL    C8749031   0.996   4.899   6.317 -1.1801  0.1640  0.3391
  153MOL    H8849032   1.116   4.878   6.149 -1.9391 -0.0966 -1.1997
  153MOL    H8949033   1.352   4.936   6.166 -1.1716 -1.3241 -1.8393
  153MOL    H9049034   1.264   5.050   6.069  3.2275  1.2670 -0.8717
  153MOL    H9149035   1.426   5.117   6.309  1.1266  1.6585 -0.5037
  153MOL    H9249036   1.336   5.232   6.207 -2.0696 -2.3561  2.0062
  153MOL    H9349037   1.484   5.167   6.009  2.2026  0.1607 -0.0647
  153MOL    H9449038   1.563   5.054   6.114 -3.6469 -1.9117 -3.7067
  153MOL    H9549039   1.571   5.231   6.154  1.5280 -1.2060  0.1759
  153MOL    H9649040   0.976   4.985   6.381  1.3880 -0.6392  2.2985
  153MOL    H9749041   0.899   4.857   6.291 -1.2543  1.9504 -2.4794
  153MOL    C9849042   1.077   4.815   6.421  0.2740 -0.2856  0.0024
  153MOL    O9949043   1.000   4.804   6.538  0.1611  0.3013  0.1205
  153MOL   C10049044   1.049   4.875   6.652  1.1501 -0.2367  0.1854
  153MOL   C10149045   0.951   4.832   6.766 -0.2090 -0.0683  0.2028
  153MOL   C10249046   0.951   4.923   6.894 -0.1393 -0.0027  0.7058
  153MOL   C10349047   1.106   4.673   6.369  0.0202 -0.0269 -0.5129
  153MOL   H10449048   1.172   4.861   6.446 -1.1219  2.4759  0.4306
  153MOL   H10549049   1.149   4.842   6.681  0.8272 -1.2090  0.2090
  153MOL   H10649050   1.041   4.982   6.633  0.7252 -0.0761  1.2489
  153MOL   H10749051   0.970   4.734   6.809 -0.3783  0.6782  2.0072
  153MOL   H10849052   0.846   4.841   6.741 -0.4459  0.0334  1.2324
  153MOL   H10949053   1.049   4.940   6.940  0.5107  2.2353 -1.3770
  153MOL   H11049054   0.880   4.884   6.966 -0.5704 -0.1165  0.2179
  153MOL   H11149055   0.903   5.013   6.858  2.2695 -0.0608 -2.9856
  153MOL   H11249056   1.015   4.621   6.341 -0.9173  1.5542 -0.4870
  153MOL   H11349057   1.152   4.687   6.272  0.9104  0.4592 -0.0276
  153MOL   C11449058   1.203   4.582   6.451 -0.5995  0.0284  0.4635
  153MOL   O11549059   1.129   4.463   6.497  0.7598 -0.1090  0.5423
  153MOL   C11649060   1.050   4.479   6.624 -0.5337  0.4658  0.1524
  153MOL   C11749061   0.975   4.347   6.652  0.1082 -0.3925  0.4275
  153MOL   C11849062   0.917   4.348   6.795  0.0664 -0.1660  0.2703
  153MOL   C11949063   1.325   4.527   6.378  0.4265 -0.1378  0.2467
  153MOL   H12049064   1.239   4.635   6.540  0.2057  1.7680 -0.8771
  153MOL   H12149065   1.124   4.494   6.702 -2.5794  2.8419  1.7134
  153MOL   H12249066   0.985   4.566   6.632 -1.4436 -0.4133  2.6982
  153MOL   H12349067   1.039   4.259   6.643  1.1862  0.5807 -1.9975
  153MOL   H12449068   0.896   4.321   6.582 -0.2452 -0.1620  0.7401
  153MOL   H12549069   0.827   4.410   6.795  0.5564  0.5434 -0.3282
  153MOL   H12649070   0.989   4.391   6.864 -1.6428  1.6564  0.9708
  153MOL   H12749071   0.879   4.252   6.832  1.1837 -1.0225 -0.7529
  153MOL   H12849072   1.368   4.440   6.429 -0.3035  0.2551  1.5485
  153MOL   H12949073   1.292   4.478   6.286  0.5102  0.0990  0.0916
  153MOL   C13049074   1.433   4.633   6.335 -0.2033 -0.0081 -0.5886
  153MOL   O13149075   1.486   4.692   6.451 -0.1876 -0.1445 -0.0774
  153MOL   C13249076   1.543   4.814   6.429  0.6521  0.3218 -0.0517
  153MOL   C13349077   1.582   4.859   6.572 -0.1997 -0.4834  0.7980
  153MOL   C13449078   1.461   4.896   6.658 -0.0138  0.2306 -0.0849
  153MOL   C13549079   1.551   4.556   6.266  0.1288 -0.1968  0.1676
  153MOL   H13649080   1.372   4.698   6.273  0.2667  0.9842 -0.0289
  153MOL   H13749081   1.632   4.811   6.366  0.9479 -0.8855  0.4205
  153MOL   H13849082   1.479   4.884   6.375 -0.4332  0.3823  1.2822
  153MOL   H13949083   1.638   4.950   6.551 -2.5553  1.1572  1.5042
  153MOL   H14049084   1.647   4.790   6.626  1.8003  1.3268  0.7849
  153MOL   H14149085   1.497   4.928   6.756  2.9533 -0.6323 -0.8512
  153MOL   H14249086   1.392   4.812   6.668  0.3644 -0.3344 -2.0737
  153MOL   H14349087   1.406   4.986   6.630 -3.7040 -1.6113  0.8600
  153MOL   H14449088   1.646   4.609   6.269 -0.0244  0.0598  0.4650
  153MOL   H14549089   1.573   4.465   6.321  0.5473  1.0897  2.1764
  153MOL   C14649090   1.534   4.532   6.115  0.9217 -0.6725 -0.4031
  153MOL   O14749091   1.532   4.663   6.056  0.0197  0.1178  0.1988
  153MOL   C14849092   1.439   4.681   5.954  0.3350 -0.2519 -0.0538
  153MOL   C14949093   1.465   4.821   5.883  0.0523  0.1628 -0.1998
  153MOL   C15049094   1.608   4.849   5.829  0.2840 -0.0155  0.5173
  153MOL   C15149095   1.639   4.447   6.038  0.6555  0.5253 -0.0773
  153MOL   H15249096   1.437   4.483   6.113 -0.1209  1.3172  0.1764
  153MOL   H15349097   1.448   4.597   5.884  2.9550 -0.6834  0.7415
  153MOL   H15449098   1.337   4.679   5.991  0.6957  0.6840  1.0004
  153MOL   H15549099   1.436   4.903   5.950  0.5505  1.6074 -1.7196
  153MOL   H15649100   1.397   4.824   5.798 -0.8491 -0.4452  0.4918
  153MOL   H15749101   1.683   4.815   5.901  0.8877  0.6226  0.1956
  153MOL   H15849102   1.625   4.957   5.819  0.6334 -0.1417 -0.2871
  153MOL   H15949103   1.613   4.794   5.736 -1.7191  0.9431 -0.1911
  153MOL   H16049104   1.610   4.472   5.936  0.4540  0.1388 -0.1135
  153MOL   H16149105   1.737   4.495   6.048 -0.1692  1.5819  3.3906
  153MOL   C16249106   1.653   4.292   6.074  0.1235 -1.0895  0.3517
  153MOL   O16349107   1.733   4.259   6.182 -0.0861 -0.3559  0.1134
  153MOL   C16449108   1.868   4.297   6.176 -0.4287  0.7115  0.4206
  153MOL   C16549109   1.951   4.228   6.276 -0.6319 -0.0902  0.4249
  153MOL   C16649110   2.103   4.259   6.260 -0.1254 -0.4829  0.0933
  153MOL   C16749111   1.521   4.222   6.102  0.0294  0.2993 -0.3556
  153MOL   H16849112   1.696   4.235   5.992 -1.0317 -0.3825 -0.7595
  153MOL   H16949113   1.912   4.266   6.081  1.3815  2.3431  0.6922
  153MOL   H17049114   1.876   4.405   6.190  0.9446  0.8417 -1.1764
  153MOL   H17149115   1.927   4.122   6.276  0.3466 -0.3260  1.2967
  153MOL   H17249116   1.917   4.258   6.375  0.5876  0.7730  0.6007
  153MOL   H17349117   2.170   4.222   6.338  0.7910 -3.1177 -1.8680
  153MOL   H17449118   2.119   4.367   6.259  0.2120 -0.5389 -0.5163
  153MOL   H17549119   2.143   4.229   6.163 -1.2032  2.0351 -1.1612
  153MOL   H17649120   1.545   4.119   6.125  0.7303  0.2165 -1.4257
  153MOL   H17749121   1.469   4.257   6.191  2.7110 -0.5396  1.5823
  153MOL   C17849122   1.434   4.200   5.976  0.2743  0.3692  0.1294
  153MOL   O17949123   1.491   4.128   5.865  0.2939 -0.2948  0.1165
  153MOL   C18049124   1.580   4.014   5.875  0.5780  0.2943  0.2771
  153MOL   C18149125   1.575   3.910   5.769  0.0493 -0.1415  0.2481
  153MOL   C18249126   1.619   3.960   5.631  0.4627 -0.4073  0.3868
  153MOL   C18349127   1.297   4.141   6.013  0.0663  0.8423 -0.2709
  153MOL   H18449128   1.427   4.301   5.937  0.8622  1.0899  1.8422
  153MOL   H18549129   1.684   4.042   5.889  1.5505 -1.8615 -2.1741
  153MOL   H18649130   1.558   3.968   5.971  0.3149  2.9176  1.5119
  153MOL   H18749131   1.478   3.863   5.755 -0.2542 -0.2208  2.4197
  153MOL   H18849132   1.653   3.840   5.800 -0.9748 -0.1932  2.7942
  153MOL   H18949133   1.543   4.034   5.607 -0.3369 -1.6159 -0.8529
  153MOL   H19049134   1.626   3.884   5.554 -1.5728 -4.0901  3.6694
  153MOL   H19149135   1.713   4.015   5.631 -0.5507  1.3700  0.5732
  153MOL   H19249136   1.324   4.044   6.055 -4.2081  0.8376  2.7940
  153MOL   H19349137   1.252   4.197   6.095 -1.9359  0.4117 -1.0468
  153MOL   C19449138   1.197   4.115   5.892 -1.0235 -0.1664  0.4218
  153MOL   O19549139   1.068   4.091   5.950 -0.4197  0.4245  0.7590
  153MOL   C19649140   1.048   3.964   6.011  0.2037 -0.2990  0.3674
  153MOL   C19749141   0.904   3.962   6.067  0.0473  0.6064  0.3933
  153MOL   C19849142   0.793   3.943   5.959  0.0456 -0.1923 -0.0778
  153MOL   C19949143   1.188   4.239   5.799 -0.1504 -0.6876 -0.1818
  153MOL   H20049144   1.238   4.030   5.837 -1.9664 -0.8019  0.6848
  153MOL   H20149145   1.053   3.876   5.946  0.1421  0.6351 -0.9194
  153MOL   H20249146   1.117   3.957   6.095  0.3289  1.0047  0.3798
  153MOL   H20349147   0.880   4.049   6.129  1.6094  0.5787  1.0451
  153MOL   H20449148   0.905   3.880   6.139  0.5181  3.4453  3.7628
  153MOL   H20549149   0.774   4.042   5.918  1.6458  0.9013  1.6957
  153MOL   H20649150   0.697   3.908   5.995  0.5853 -3.6069 -1.7343
  153MOL   H20749151   0.812   3.880   5.872  0.6746 -2.5490  1.7236
  153MOL   H20849152   1.140   4.327   5.840  0.1418 -0.3541 -0.5597
  153MOL   H20949153   1.292   4.255   5.771  0.2049 -0.8337  1.0200
  153MOL   C21049154   1.115   4.207   5.664  0.3978  0.2503  0.3907
  153MOL   O21149155   1.104   4.323   5.580  0.3281  0.0015  0.1507
  153MOL   C21249156   0.965   4.360   5.553  0.2755  0.8979  0.1557
  153MOL   C21349157   0.969   4.489   5.467 -0.3092  0.3422 -0.3910
  153MOL   C21449158   0.834   4.564   5.458 -0.3924  0.4166 -0.3163
  153MOL   C21549159   1.187   4.098   5.585 -0.6650 -0.1635  0.0520
  153MOL   H21649160   1.016   4.168   5.690  0.3686 -0.1329 -0.2975
  153MOL   H21749161   0.904   4.282   5.507  2.3174 -0.6318 -0.0906
  153MOL   H21849162   0.909   4.385   5.643 -0.2778 -0.5290  0.2248
  153MOL   H21949163   1.004   4.465   5.367  0.7848 -2.6934  0.6701
  153MOL   H22049164   1.040   4.563   5.506  2.6887 -2.7964  0.3320
  153MOL   H22149165   0.851   4.662   5.412  1.5408  1.4147  2.4252
  153MOL   H22249166   0.791   4.578   5.557 -1.0559  1.0271 -0.6819
  153MOL   H22349167   0.759   4.518   5.393  0.0620  0.3167 -0.7785
  153MOL   H22449168   1.204   4.139   5.485 -1.8274  0.6688  0.1749
  153MOL   H22549169   1.284   4.083   5.632 -1.0502  0.2609  0.9939
  153MOL   C22649170   1.116   3.958   5.577 -0.1952  0.2076  0.1379
  153MOL   O22749171   0.997   3.963   5.500 -0.5310 -0.4296  0.3457
  153MOL   C22849172   0.872   3.938   5.567  0.1784 -0.0408 -0.2437
  153MOL   C22949173   0.756   3.968   5.477  0.8802 -0.3750  0.2604
  153MOL   C23049174   0.740   3.873   5.360  0.1902  0.6286  0.4473
  153MOL   C23149175   1.206   3.842   5.540  0.6899 -0.2918 -0.8438
  153MOL   H23249176   1.092   3.936   5.680  3.2771  2.2663  1.4976
  153MOL   H23349177   0.865   3.837   5.607 -0.2842  1.2770  3.2566
  153MOL   H23449178   0.857   4.013   5.646 -1.8098  0.6718 -1.2774
  153MOL   H23549179   0.756   4.070   5.439 -0.1873  0.4333  2.3756
  153MOL   H23649180   0.663   3.971   5.534 -0.1775 -0.8335 -1.3865
  153MOL   H23749181   0.829   3.867   5.298 -1.1049 -0.4151 -1.3386
  153MOL   H23849182   0.659   3.914   5.301  0.0154  0.2004  0.3919
  153MOL   H23949183   0.722   3.771   5.395 -0.2179  0.8616  0.9305
  153MOL   H24049184   1.264   3.863   5.450 -0.7433  1.4889 -1.3687
  153MOL   H24149185   1.280   3.826   5.619 -1.8111  1.3525  1.9247
  153MOL   C24249186   1.130   3.706   5.524 -0.3574 -0.1237  0.1559
  153MOL   O24349187   1.218   3.608   5.477 -0.3258 -0.1068 -0.3802
  153MOL   C24449188   1.224   3.607   5.333 -0.3229  0.0162 -0.0017
  153MOL   C24549189   1.219   3.457   5.299  0.1033 -0.1942 -0.8435
  153MOL   C24649190   1.341   3.378   5.360 -0.0556 -0.0182 -1.3625
  153MOL   C24749191   1.078   3.658   5.663  0.1341 -0.3907 -0.4108
  153MOL   H24849192   1.046   3.727   5.458 -1.4052 -2.8880  0.5625
  153MOL   H24949193   1.152   3.669   5.280  0.4302  0.4263 -0.5402
  153MOL   H25049194   1.317   3.650   5.297  0.1212 -1.6254 -0.8750
  153MOL   H25149195   1.226   3.439   5.192 -1.9706 -1.1631 -0.8279
  153MOL   H25249196   1.131   3.404   5.335  0.9132 -0.4196  0.8647
  153MOL   H25349197   1.323   3.273   5.336 -2.5068  0.0970 -0.1877
  153MOL   H25449198   1.352   3.388   5.468 -0.2449  2.0615 -1.5173
  153MOL   H25549199   1.435   3.410   5.314  2.0850 -1.0272  2.1675
  153MOL   H25649200   1.167   3.631   5.721 -0.8318  0.2725  1.4166
  153MOL   H25749201   1.027   3.742   5.709  0.9985  0.2473 -0.5994
  153MOL   C25849202   0.989   3.533   5.650  0.3121  0.5706 -0.5103
  153MOL   O25949203   0.995   3.463   5.770  0.4115 -0.1599  0.0772
  153MOL   C26049204   1.041   3.332   5.762 -0.2722 -0.2279 -0.2112
  153MOL   C26149205   1.188   3.316   5.734 -0.1598 -0.6545  0.1733
  153MOL   C26249206   1.271   3.349   5.853 -0.7824 -0.0080 -0.1461
  153MOL   C26349207   0.844   3.571   5.615 -0.0896  0.2413  0.2656
  153MOL   H26449208   1.022   3.472   5.566  0.0606 -0.3097  0.0288
  153MOL   H26549209   1.024   3.308   5.867  2.7527  0.9198  0.5908
  153MOL   H26649210   0.976   3.273   5.697 -1.3668  0.4559  0.2465
  153MOL   H26749211   1.221   3.381   5.652 -1.3006  0.7181  0.7707
  153MOL   H26849212   1.203   3.212   5.705  1.6478 -0.5042  0.4936
  153MOL   H26949213   1.261   3.453   5.882  4.1150  0.5467 -0.0399
  153MOL   H27049214   1.379   3.341   5.846 -0.7313  0.0330  0.5773
  153MOL   H27149215   1.238   3.293   5.941  1.3877 -0.1260  0.6074
  153MOL   H27249216   0.823   3.648   5.689 -2.2818  2.9080 -3.0038
  153MOL   H27349217   0.846   3.627   5.521 -0.5033  1.3053  0.8863
  153MOL   C27449218   0.736   3.461   5.601 -0.9647 -0.3550 -0.0073
  153MOL   O27549219   0.609   3.505   5.555  0.6969 -0.5532 -0.4321
  153MOL   C27649220   0.541   3.579   5.660  0.0716  0.0203  0.0518
  153MOL   C27749221   0.404   3.615   5.604 -0.5209  0.3089 -0.4823
  153MOL   C27849222   0.316   3.499   5.568  0.1198  0.1098  0.3536
  153MOL   C27949223   0.775   3.371   5.487 -0.5343  0.3073  0.1951
  153MOL   H28049224   0.733   3.402   5.693  0.8504 -1.1132 -0.4127
  153MOL   H28149225   0.550   3.539   5.760 -1.0653  1.1809  0.6347
  153MOL   H28249226   0.600   3.671   5.661  0.1064  0.0102 -0.6612
  153MOL   H28349227   0.417   3.679   5.517  2.2352  2.1698  1.2288
  153MOL   H28449228   0.356   3.676   5.682 -0.1944  0.7022 -0.5860
  153MOL   H28549229   0.282   3.445   5.657  1.4617  0.9651  1.3992
  153MOL   H28649230   0.368   3.430   5.501  0.1766  1.4281 -0.9761
  153MOL   H28749231   0.227   3.534   5.516  0.6163  0.7987 -0.0455
  153MOL   H28849232   0.793   3.429   5.396  2.9283  0.9499  1.2534
  153MOL   H28949233   0.873   3.327   5.501 -0.4897  0.5010  0.4895
  153MOL   C29049234   0.676   3.252   5.453 -0.6775 -0.1560 -0.5925
  153MOL   O29149235   0.751   3.166   5.371  0.4221 -0.1354  0.1793
  153MOL   C29249236   0.728   3.192   5.236  0.3809 -0.7526 -0.2234
  153MOL   C29349237   0.773   3.068   5.152  0.3884  0.1674  0.1379
  153MOL   C29449238   0.713   2.927   5.199  0.0474  0.3908  0.3490
  153MOL   C29549239   0.645   3.161   5.569  0.0507 -0.2398  0.1286
  153MOL   H29649240   0.579   3.289   5.419 -0.2169  1.9908  0.3334
  153MOL   H29749241   0.620   3.201   5.228  0.3840 -0.0435  0.4413
  153MOL   H29849242   0.781   3.282   5.204  1.7606 -1.3401  0.3517
  153MOL   H29949243   0.881   3.086   5.146  0.6073 -0.3076  2.0071
  153MOL   H30049244   0.730   3.084   5.054 -0.2259 -0.1635  0.3511
  153MOL   H30149245   0.711   2.846   5.126 -0.4748 -0.0237  0.8226
  153MOL   H30249246   0.606   2.934   5.220 -0.2717 -1.8545 -0.3219
  153MOL   H30349247   0.755   2.894   5.293  0.0934  1.8605  0.8520
  153MOL   H30449248   0.743   3.145   5.615  0.5099 -0.1730 -0.7982
  153MOL   H30549249   0.596   3.224   5.643  0.2758  1.6520 -1.2888
  153MOL   C30649250   0.563   3.036   5.544 -0.0632 -0.4836 -0.1490
  153MOL   O30749251   0.571   2.949   5.663  0.4000  0.1671 -0.0038
  153MOL   C30849252   0.688   2.876   5.687 -0.0884  0.1275  1.2788
  153MOL   C30949253   0.691   2.815   5.820 -0.9909  0.2760 -0.2271
  153MOL   C31049254   0.676   2.936   5.917 -0.3456  0.7419 -0.4070
  153MOL   C31149255   0.414   3.062   5.511  0.6097 -0.0926 -0.2903
  153MOL   H31249256   0.600   2.972   5.464  0.7443  0.3454 -0.4438
  153MOL   H31349257   0.694   2.801   5.608  2.2474  3.0721 -1.4838
  153MOL   H31449258   0.773   2.944   5.682  0.0271  0.0239  1.7763
  153MOL   H31549259   0.788   2.770   5.839 -1.0249  1.1461  2.2730
  153MOL   H31649260   0.614   2.738   5.833 -0.7717 -0.0010 -0.5648
  153MOL   H31749261   0.731   3.025   5.888  0.1759  0.6434  0.2588
  153MOL   H31849262   0.704   2.909   6.019 -0.5413  0.0753 -0.5281
  153MOL   H31949263   0.570   2.963   5.916 -0.0653  1.8885  0.0135
  153MOL   H32049264   0.358   3.110   5.591 -1.3515  0.3557 -1.8671
  153MOL   H32149265   0.400   3.120   5.419 -2.4082 -1.4031 -0.7134
  153MOL   H32249266   0.359   2.973   5.483  1.3935 -0.7744  0.3265
  154MOL     C149267   2.227   5.851   4.345  0.1950  0.0599  0.1819
  154MOL     O249268   2.260   5.720   4.385 -0.2340  0.1067  0.7507
  154MOL     C349269   2.275   5.634   4.275 -0.0031  0.0258 -0.0105
  154MOL     C449270   2.142   5.598   4.207 -0.2144  0.1919  0.0140
  154MOL     C549271   2.142   5.456   4.139  0.4168 -0.1042  0.0960
  154MOL     C649272   2.233   5.959   4.453  0.7702  0.4191 -0.1216
  154MOL     H749273   2.128   5.854   4.301 -0.0935  0.2718  0.8336
  154MOL     H849274   2.351   5.671   4.207  0.3136 -0.3878  0.1177
  154MOL     H949275   2.320   5.540   4.307  2.5494  1.0682 -0.4480
  154MOL    H1049276   2.122   5.679   4.137 -0.2208  0.4571  0.3231
  154MOL    H1149277   2.060   5.595   4.279  1.7520 -1.7581  2.2171
  154MOL    H1249278   2.037   5.446   4.110  0.5737  0.1492 -0.5607
  154MOL    H1349279   2.156   5.369   4.204 -0.6176  0.0698  0.5692
  154MOL    H1449280   2.205   5.448   4.051 -1.7289  0.1652 -1.4878
  154MOL    H1549281   2.219   6.058   4.409  1.0714  0.9216  0.8821
  154MOL    H1649282   2.145   5.939   4.514 -0.0679  0.8165 -1.1923
  154MOL    H1749283   2.299   5.881   4.269  2.5747  0.3939  2.5019
  154MOL    C1849284   2.357   5.982   4.540 -0.3654  0.0082 -0.0930
  154MOL    O1949285   2.446   6.074   4.484  0.4611 -0.4219  0.3658
  154MOL    C2049286   2.532   6.013   4.383 -0.3667 -0.2446  0.1375
  154MOL    C2149287   2.640   6.109   4.361  0.0404  0.0647 -0.0046
  154MOL    C2249288   2.735   6.054   4.244 -0.2830 -0.5938 -0.2921
  154MOL    C2349289   2.326   6.018   4.682 -0.1882 -0.3095 -0.1556
  154MOL    H2449290   2.403   5.883   4.551 -1.7142 -0.4474  1.6309
  154MOL    H2549291   2.566   5.912   4.407  1.1628  0.0315 -0.7889
  154MOL    H2649292   2.464   6.009   4.298 -1.3239  3.9289  0.5885
  154MOL    H2749293   2.687   6.145   4.453  0.2196 -2.3857  0.8966
  154MOL    H2849294   2.591   6.200   4.327  1.3556  0.3213 -1.2695
  154MOL    H2949295   2.673   6.007   4.168 -0.1688 -3.3665  1.2239
  154MOL    H3049296   2.795   5.969   4.278 -0.5537 -0.0201  1.6909
  154MOL    H3149297   2.803   6.127   4.201  1.0876 -2.6479 -1.7572
  154MOL    H3249298   2.288   6.120   4.692  0.5463 -0.2892  3.0969
  154MOL    H3349299   2.241   5.963   4.721 -0.9450 -0.5646 -2.1125
  154MOL    C3449300   2.442   6.013   4.784 -0.3893  0.8285  0.4669
  154MOL    O3549301   2.389   6.055   4.911 -0.0612  0.1613  0.1171
  154MOL    C3649302   2.472   6.084   5.019  0.1577 -0.0216 -0.1715
  154MOL    C3749303   2.397   6.158   5.125 -0.4288  0.0302 -0.8857
  154MOL    C3849304   2.485   6.227   5.229 -0.5279  0.1709 -0.1776
  154MOL    C3949305   2.495   5.870   4.797  0.0972 -0.1990  0.1728
  154MOL    H4049306   2.523   6.084   4.770 -2.0173  2.0638 -3.0969
  154MOL    H4149307   2.514   5.991   5.056  0.9790  0.6986  0.7262
  154MOL    H4249308   2.556   6.142   4.980 -0.2881  1.5634  1.1775
  154MOL    H4349309   2.335   6.086   5.178  3.1556 -1.6474  1.1881
  154MOL    H4449310   2.332   6.237   5.087  0.0617  0.4673 -0.8325
  154MOL    H4549311   2.424   6.267   5.311  0.8588  0.7138  0.5954
  154MOL    H4649312   2.544   6.307   5.186 -0.5806  0.6757  0.6737
  154MOL    H4749313   2.544   6.146   5.272 -2.6537 -0.4789  1.6809
  154MOL    H4849314   2.475   5.826   4.894 -1.5556 -0.7887 -0.4177
  154MOL    H4949315   2.423   5.804   4.750  0.2114 -1.1055  1.2543
  154MOL    C5049316   2.636   5.845   4.740 -0.6563  0.1264 -0.1309
  154MOL    O5149317   2.734   5.916   4.819 -1.1380 -0.0093 -0.8160
  154MOL    C5249318   2.792   6.032   4.762 -0.4164 -0.7407  0.2137
  154MOL    C5349319   2.905   5.999   4.668 -0.3459  0.3760  0.3954
  154MOL    C5449320   2.992   6.124   4.618  0.4100  0.5445 -0.0062
  154MOL    C5549321   2.678   5.698   4.764  0.0603 -0.1804 -0.3775
  154MOL    H5649322   2.648   5.855   4.633  1.1935  0.6718  0.1107
  154MOL    H5749323   2.723   6.095   4.705 -0.4478  1.6606  2.8123
  154MOL    H5849324   2.828   6.094   4.844 -0.3172 -1.8769  1.0424
  154MOL    H5949325   2.874   5.931   4.589 -0.2613  0.2910  0.4348
  154MOL    H6049326   2.974   5.932   4.720 -0.2019 -0.1531 -0.4713
  154MOL    H6149327   3.010   6.192   4.701 -1.8319  2.9308 -1.4195
  154MOL    H6249328   2.953   6.177   4.531  1.5579 -0.3729 -1.0992
  154MOL    H6349329   3.090   6.085   4.589  0.4255  0.5434  0.0478
  154MOL    H6449330   2.787   5.702   4.754  0.2172 -2.6056 -0.0878
  154MOL    H6549331   2.660   5.659   4.864  1.5798  2.0929  0.8279
  154MOL    C6649332   2.613   5.605   4.653  0.0351  0.0843  0.2365
  154MOL    O6749333   2.683   5.599   4.529  0.2830 -0.5197  0.1859
  154MOL    C6849334   2.600   5.588   4.413 -0.0796  0.1428 -0.3903
  154MOL    C6949335   2.699   5.597   4.297  0.5228 -0.2083 -0.5769
  154MOL    C7049336   2.661   5.537   4.161  0.5271 -0.0746  0.2816
  154MOL    C7149337   2.605   5.459   4.704 -0.0492 -0.0470 -0.3330
  154MOL    H7249338   2.509   5.625   4.629  0.4598 -1.3840 -3.2743
  154MOL    H7349339   2.567   5.485   4.417 -0.6163  0.3265 -0.0027
  154MOL    H7449340   2.518   5.659   4.407  0.7562  1.2298  0.7190
  154MOL    H7549341   2.795   5.551   4.321  0.6457  0.5456  0.3963
  154MOL    H7649342   2.725   5.701   4.279  0.0200 -0.1633 -1.0410
  154MOL    H7749343   2.726   5.568   4.079  0.1439  0.1230  0.0462
  154MOL    H7849344   2.558   5.553   4.129  0.5821 -1.7889 -0.8333
  154MOL    H7949345   2.671   5.429   4.159  1.1399 -0.0263  0.5341
  154MOL    H8049346   2.593   5.399   4.614  1.4107  1.6615 -1.6857
  154MOL    H8149347   2.700   5.436   4.752  0.0738  1.2705  0.0775
  154MOL    C8249348   2.481   5.427   4.804  0.4471  0.0010  1.3342
  154MOL    O8349349   2.374   5.382   4.725 -0.2788  0.0263  0.4532
  154MOL    C8449350   2.261   5.471   4.742 -0.4451 -0.3047  0.1036
  154MOL    C8549351   2.131   5.412   4.677  0.8039  0.1504 -0.3340
  154MOL    C8649352   2.068   5.285   4.747  0.4274  0.4378  0.8778
  154MOL    C8749353   2.498   5.304   4.892  0.0120 -0.0232  0.1162
  154MOL    H8849354   2.466   5.514   4.868  1.0358  1.1040 -0.0094
  154MOL    H8949355   2.241   5.478   4.849 -1.7330  1.7608 -0.2417
  154MOL    H9049356   2.285   5.574   4.714  0.4477 -0.5159  0.0735
  154MOL    H9149357   2.141   5.396   4.569  1.7583 -2.2528  0.0636
  154MOL    H9249358   2.052   5.487   4.680  1.7278  1.2680 -2.5032
  154MOL    H9349359   1.995   5.241   4.679 -0.6754  1.0476  1.6603
  154MOL    H9449360   2.034   5.309   4.848 -0.9677  0.2461  0.4641
  154MOL    H9549361   2.142   5.206   4.764 -2.1203 -2.0391  0.8960
  154MOL    H9649362   2.401   5.279   4.936 -0.7361 -2.0879 -2.5823
  154MOL    H9749363   2.522   5.220   4.827 -1.8638 -0.1644 -0.4185
  154MOL    C9849364   2.592   5.305   5.010  1.0275 -0.0351  0.2647
  154MOL    O9949365   2.724   5.309   4.966  1.0950 -0.2081 -0.2450
  154MOL   C10049366   2.775   5.197   4.897  0.1862  0.6768 -0.0071
  154MOL   C10149367   2.903   5.147   4.968  0.3429 -0.0404 -0.6040
  154MOL   C10249368   3.011   5.254   4.962  0.3328  0.1968 -0.3974
  154MOL   C10349369   2.573   5.427   5.106  0.0288 -1.0336 -0.0485
  154MOL   H10449370   2.562   5.228   5.080 -0.0913  1.7164  1.7812
  154MOL   H10549371   2.706   5.113   4.903 -0.8371  1.5740  1.1586
  154MOL   H10649372   2.798   5.227   4.795 -0.7373 -1.1570 -0.7711
  154MOL   H10749373   2.926   5.056   4.912 -1.7450 -2.6891  2.6911
  154MOL   H10849374   2.894   5.107   5.069  0.5001 -0.2522 -0.6705
  154MOL   H10949375   3.037   5.271   4.858 -2.4341  1.2319 -0.9650
  154MOL   H11049376   3.105   5.235   5.015  0.0553 -2.4823 -0.7800
  154MOL   H11149377   2.971   5.348   5.000  2.9832  0.8115  1.0008
  154MOL   H11249378   2.638   5.416   5.193 -1.5887  1.1693  1.5026
  154MOL   H11349379   2.607   5.520   5.060  3.0596 -3.1966 -2.3370
  154MOL   C11449380   2.433   5.430   5.179 -0.2442  0.4552  0.1029
  154MOL   O11549381   2.405   5.302   5.234  0.2886  0.3226  0.0544
  154MOL   C11649382   2.265   5.290   5.265 -0.4566 -0.1166  0.0003
  154MOL   C11749383   2.190   5.233   5.139  0.5672 -0.5446  0.0657
  154MOL   C11849384   2.042   5.209   5.153  0.7042  0.0826 -0.1349
  154MOL   C11949385   2.431   5.539   5.288  0.0756  0.5001 -0.7061
  154MOL   H12049386   2.359   5.447   5.102 -1.0721  0.7816  0.9666
  154MOL   H12149387   2.255   5.224   5.351  1.3113 -0.9357 -0.3954
  154MOL   H12249388   2.233   5.389   5.296  1.1641  0.3511  0.2265
  154MOL   H12349389   2.233   5.144   5.093 -0.9396 -1.3915  0.2703
  154MOL   H12449390   2.208   5.296   5.052 -2.4409 -1.1097 -1.0199
  154MOL   H12549391   2.003   5.172   5.059 -0.5180 -2.5167  1.3445
  154MOL   H12649392   1.984   5.291   5.196  3.4371  0.4310  3.0895
  154MOL   H12749393   2.028   5.135   5.232  1.8335  1.0670  1.0123
  154MOL   H12849394   2.365   5.519   5.372  0.5846  2.2571  0.1204
  154MOL   H12949395   2.523   5.536   5.347 -2.7850 -0.1248  3.9756
  154MOL   C13049396   2.392   5.683   5.240 -0.3008 -0.2830  0.2018
  154MOL   O13149397   2.258   5.675   5.201 -0.3067  0.0090  0.1527
  154MOL   C13249398   2.223   5.760   5.085 -0.4764  0.7397  0.2278
  154MOL   C13349399   2.082   5.741   5.042  1.0143 -0.2895 -0.0840
  154MOL   C13449400   2.024   5.855   4.958 -0.4436 -0.9412  0.4661
  154MOL   C13549401   2.406   5.790   5.350 -0.0355 -1.3830 -0.5395
  154MOL   H13649402   2.458   5.698   5.154 -0.6120  2.6058  0.4313
  154MOL   H13749403   2.243   5.863   5.113  0.3352  0.2964  1.3026
  154MOL   H13849404   2.276   5.743   4.991 -0.3138 -1.4817  0.6963
  154MOL   H13949405   2.016   5.727   5.128  2.2198 -3.4165  0.3723
  154MOL   H14049406   2.078   5.646   4.989  1.8597 -0.7724  0.7101
  154MOL   H14149407   1.918   5.835   4.944 -0.5228  1.0417 -1.9702
  154MOL   H14249408   2.071   5.861   4.860  1.8154  1.2622  1.6394
  154MOL   H14349409   2.040   5.947   5.015 -1.3193 -0.6238  0.2011
  154MOL   H14449410   2.376   5.880   5.297  2.5154 -0.0668  0.1552
  154MOL   H14549411   2.331   5.776   5.428  1.2862 -0.4110  0.9364
  154MOL   C14649412   2.537   5.820   5.419  0.4066  0.1856  0.4218
  154MOL   O14749413   2.611   5.862   5.304  0.7057  0.1405  0.2712
  154MOL   C14849414   2.749   5.847   5.304 -0.2529  0.1765 -0.1029
  154MOL   C14949415   2.803   5.888   5.167 -0.1663 -0.0922  0.9845
  154MOL   C15049416   2.950   5.844   5.149 -0.3662 -0.2478 -0.4798
  154MOL   C15149417   2.528   5.933   5.526 -0.1764  0.1798  0.4844
  154MOL   H15249418   2.562   5.724   5.464  0.6194  0.3963  0.7549
  154MOL   H15349419   2.788   5.915   5.379  2.8177 -0.7161 -0.8200
  154MOL   H15449420   2.764   5.744   5.336 -2.4455 -0.8180 -2.1040
  154MOL   H15549421   2.810   5.997   5.162 -0.4175 -0.1135 -0.1691
  154MOL   H15649422   2.733   5.851   5.091 -0.6290 -0.7930  1.7433
  154MOL   H15749423   3.016   5.918   5.194 -1.2467  0.0640  0.3338
  154MOL   H15849424   2.975   5.841   5.043  0.2277  1.7821 -0.4103
  154MOL   H15949425   2.963   5.741   5.183  0.7428 -0.1677 -0.6460
  154MOL   H16049426   2.627   5.969   5.553  1.1259 -1.7896 -1.4955
  154MOL   H16149427   2.477   6.007   5.465  0.0057  0.2831  0.4579
  154MOL   C16249428   2.465   5.894   5.655  0.4179 -0.4103  0.0437
  154MOL   O16349429   2.562   5.847   5.747 -0.4104 -0.2414  0.6780
  154MOL   C16449430   2.601   5.712   5.739 -0.1795 -0.5764  0.3334
  154MOL   C16549431   2.656   5.673   5.878  0.2313 -0.0389 -0.2779
  154MOL   C16649432   2.713   5.531   5.887 -1.0214 -0.7750  0.4175
  154MOL   C16749433   2.411   6.010   5.731 -0.0505 -0.0220 -0.6469
  154MOL   H16849434   2.388   5.818   5.646  0.2714 -0.2478 -0.0838
  154MOL   H16949435   2.526   5.647   5.694  0.5769  0.6083 -2.7668
  154MOL   H17049436   2.686   5.715   5.672 -0.1217  0.6810  0.4507
  154MOL   H17149437   2.571   5.688   5.944  1.1955 -1.6872  1.3766
  154MOL   H17249438   2.719   5.748   5.926  0.6418 -1.5801  1.6508
  154MOL   H17349439   2.741   5.505   5.989 -2.7452  0.0803  1.1334
  154MOL   H17449440   2.808   5.524   5.833 -0.5937  1.6529  0.7892
  154MOL   H17549441   2.644   5.453   5.853  1.1416 -3.0736  1.1516
  154MOL   H17649442   2.362   5.965   5.817  0.0325 -1.3388 -1.2905
  154MOL   H17749443   2.499   6.067   5.762  1.0989  0.1655 -4.0173
  154MOL   C17849444   2.315   6.103   5.659 -0.0297 -0.0352 -0.1104
  154MOL   O17949445   2.194   6.045   5.615  0.5201  0.0850 -0.6320
  154MOL   C18049446   2.166   6.052   5.477  0.1799  0.0235  0.1810
  154MOL   C18149447   2.018   6.061   5.455  0.0885  0.6326 -0.1518
  154MOL   C18249448   1.991   6.065   5.305  0.0012  0.8825  0.0134
  154MOL   C18349449   2.273   6.234   5.724 -0.1591  0.4183  0.6061
  154MOL   H18449450   2.362   6.135   5.566  1.1443  1.6443  1.0387
  154MOL   H18549451   2.208   6.140   5.428  1.5610 -0.4882  0.4004
  154MOL   H18649452   2.206   5.960   5.434 -0.1164 -0.2194  0.4197
  154MOL   H18749453   1.989   6.162   5.484  0.1601  0.4691  0.4760
  154MOL   H18849454   1.950   5.995   5.508  0.1431  0.5624 -0.1699
  154MOL   H18949455   2.038   6.152   5.260  1.9890 -0.7050 -1.0687
  154MOL   H19049456   1.884   6.068   5.283  0.1602 -2.0636 -1.3818
  154MOL   H19149457   2.038   5.977   5.262  2.9518  0.7890  3.2298
  154MOL   H19249458   2.206   6.302   5.673  0.7155  1.4976  0.8813
  154MOL   H19349459   2.220   6.201   5.814 -1.0310 -1.2444 -0.5053
  154MOL   C19449460   2.390   6.319   5.777 -0.7090 -0.6043 -0.1257
  154MOL   O19549461   2.461   6.360   5.660  0.2520 -0.4358  0.6227
  154MOL   C19649462   2.593   6.403   5.696 -0.3337  0.2394 -0.0382
  154MOL   C19749463   2.662   6.453   5.575 -0.0119  0.3545  0.3923
  154MOL   C19849464   2.808   6.482   5.571 -0.1536 -0.2873 -0.4036
  154MOL   C19949465   2.335   6.442   5.855 -0.2690  0.2716 -0.2220
  154MOL   H20049466   2.453   6.268   5.849  0.9194  1.2470 -0.1669
  154MOL   H20149467   2.585   6.475   5.778 -3.0153 -0.6761  0.5836
  154MOL   H20249468   2.645   6.315   5.732 -1.6582 -1.5529 -2.3794
  154MOL   H20349469   2.617   6.546   5.541 -0.0174 -0.1164 -0.9133
  154MOL   H20449470   2.649   6.384   5.492  0.6883  0.1767  0.4221
  154MOL   H20549471   2.838   6.521   5.474  0.8868 -1.4412 -0.5568
  154MOL   H20649472   2.854   6.383   5.580 -0.6952 -0.2841  2.8244
  154MOL   H20749473   2.846   6.543   5.654  2.4389 -0.2823 -1.5377
  154MOL   H20849474   2.412   6.510   5.892 -1.4315  0.4882  1.9279
  154MOL   H20949475   2.276   6.497   5.783 -0.5869  1.0363  0.6133
  154MOL   C21049476   2.256   6.403   5.986 -0.0661 -0.0696  0.4051
  154MOL   O21149477   2.350   6.335   6.068  0.1659 -0.0748 -0.0742
  154MOL   C21249478   2.294   6.217   6.129  0.8065 -0.5916  0.4681
  154MOL   C21349479   2.373   6.173   6.252 -0.5278  0.0554 -0.1504
  154MOL   C21449480   2.362   6.276   6.356 -0.3267 -0.7128  0.5448
  154MOL   C21549481   2.213   6.527   6.061 -0.0145  0.3321  0.6000
  154MOL   H21649482   2.175   6.334   5.965  0.9421 -1.8336  2.1666
  154MOL   H21749483   2.193   6.242   6.161  1.3310  1.5361  0.5585
  154MOL   H21849484   2.282   6.146   6.048  1.6934 -0.2155 -0.0083
  154MOL   H21949485   2.476   6.143   6.237  0.4896  3.2847  0.0599
  154MOL   H22049486   2.319   6.086   6.289 -1.7121 -0.0501 -2.0273
  154MOL   H22149487   2.413   6.241   6.445  3.2283  1.0184 -0.7326
  154MOL   H22249488   2.260   6.303   6.384 -0.8275  0.0927 -1.9070
  154MOL   H22349489   2.411   6.371   6.332 -1.2956 -0.3426 -0.0271
  154MOL   H22449490   2.161   6.490   6.150 -3.0884  0.4211 -1.0691
  154MOL   H22549491   2.294   6.588   6.101 -0.2008  0.7142  0.3958
  154MOL   C22649492   2.111   6.613   5.985  0.4660  0.2344 -0.2635
  154MOL   O22749493   2.004   6.529   5.934 -0.2135  0.0842  0.0392
  154MOL   C22849494   1.984   6.508   5.791  0.1316 -0.7122  0.1811
  154MOL   C22949495   1.861   6.425   5.773 -0.9416  0.2630 -0.1160
  154MOL   C23049496   1.869   6.280   5.805  0.6260  0.3279  0.1073
  154MOL   C23149497   2.044   6.720   6.077 -0.9989  0.7064  0.3642
  154MOL   H23249498   2.144   6.655   5.891  0.2257  2.9084  0.8090
  154MOL   H23349499   1.970   6.602   5.737  0.5446 -0.1195  1.0997
  154MOL   H23449500   2.061   6.455   5.734  0.9968 -0.1012  0.7712
  154MOL   H23549501   1.848   6.422   5.665  1.9909 -1.4867 -0.4719
  154MOL   H23649502   1.780   6.482   5.819 -0.9030  0.4879 -0.3258
  154MOL   H23749503   1.958   6.233   5.762  0.3865 -0.5794  0.5831
  154MOL   H23849504   1.790   6.213   5.771  0.2809 -0.3686  2.2276
  154MOL   H23949505   1.874   6.283   5.914 -2.1437  1.1817  0.2337
  154MOL   H24049506   2.000   6.661   6.157 -0.0457 -0.4338  0.0634
  154MOL   H24149507   2.115   6.793   6.115  0.8688 -0.5581 -0.6009
  154MOL   C24249508   1.930   6.799   6.011 -0.7122  0.0525 -0.3687
  154MOL   O24349509   1.883   6.900   6.099 -0.6090  0.6320 -0.0633
  154MOL   C24449510   1.761   6.878   6.166 -0.3071 -0.2055  0.1738
  154MOL   C24549511   1.711   7.008   6.229  0.2264  0.3565  0.0724
  154MOL   C24649512   1.818   7.074   6.320  0.1232  0.1588 -0.3820
  154MOL   C24749513   1.978   6.871   5.882 -0.2344  0.4665 -0.2050
  154MOL   H24849514   1.857   6.722   5.988 -0.1569 -0.6199  0.1041
  154MOL   H24949515   1.682   6.857   6.094  0.7654 -0.5127 -0.9342
  154MOL   H25049516   1.790   6.798   6.234  0.3419 -0.4525 -0.3879
  154MOL   H25149517   1.622   6.990   6.290 -0.6560  2.2660 -0.6099
  154MOL   H25249518   1.683   7.069   6.143  2.1627  0.1312 -0.7382
  154MOL   H25349519   1.789   7.168   6.365  0.5131  0.8298 -1.5083
  154MOL   H25449520   1.911   7.090   6.265 -0.0662 -0.2539 -0.8267
  154MOL   H25549521   1.836   7.007   6.404 -1.1117  0.0482 -0.1966
  154MOL   H25649522   2.058   6.943   5.899  0.1068  0.4222 -1.5353
  154MOL   H25749523   2.029   6.806   5.812  0.8816  0.0551  0.9917
  154MOL   C25849524   1.860   6.931   5.794 -0.0356  0.0812 -0.2678
  154MOL   O25949525   1.907   6.992   5.675  0.2452  0.1390  0.1059
  154MOL   C26049526   2.002   7.100   5.692  0.2700  0.6670  0.5362
  154MOL   C26149527   1.967   7.197   5.575  0.7291 -0.0632 -0.2677
  154MOL   C26249528   2.089   7.259   5.531 -0.2141  0.1790  0.7389
  154MOL   C26349529   1.761   6.823   5.746  0.2303  0.0615 -0.5239
  154MOL   H26449530   1.805   6.999   5.859 -1.2555 -1.0205 -0.1495
  154MOL   H26549531   1.994   7.159   5.783  1.6508  0.7957  0.5837
  154MOL   H26649532   2.100   7.056   5.676  1.4812  2.6572  2.2977
  154MOL   H26749533   1.890   7.265   5.611 -0.9350 -1.3329 -1.3275
  154MOL   H26849534   1.919   7.144   5.492 -0.1605 -0.9813  0.8168
  154MOL   H26949535   2.170   7.198   5.491 -0.2719 -0.4845  1.6008
  154MOL   H27049536   2.131   7.324   5.609  0.4138  2.0159 -1.0870
  154MOL   H27149537   2.065   7.320   5.444 -1.0388  0.0391  0.8643
  154MOL   H27249538   1.817   6.793   5.657 -1.0286 -1.9462 -0.6706
  154MOL   H27349539   1.740   6.740   5.813  0.5397  0.5839  0.2291
  154MOL   C27449540   1.626   6.876   5.709  0.3858 -0.2102 -0.0640
  154MOL   O27549541   1.569   6.769   5.627  0.0297 -0.1960  0.1326
  154MOL   C27649542   1.588   6.790   5.490  0.3086  1.1327  0.2585
  154MOL   C27749543   1.559   6.661   5.408  0.4267 -0.4466 -0.4067
  154MOL   C27849544   1.666   6.550   5.428  0.3407  0.3263  1.1635
  154MOL   C27949545   1.543   6.901   5.830  0.3542  0.4271  0.5326
  154MOL   H28049546   1.641   6.973   5.660 -1.7819 -0.9095 -2.2468
  154MOL   H28149547   1.521   6.871   5.460  0.1926  0.4221 -1.4356
  154MOL   H28249548   1.690   6.826   5.481 -0.4453  3.0873 -0.8247
  154MOL   H28349549   1.572   6.676   5.300  0.7458 -2.3356 -0.6399
  154MOL   H28449550   1.456   6.640   5.435 -0.9739  2.4299 -3.0987
  154MOL   H28549551   1.679   6.553   5.536 -0.6414  0.2578  1.2870
  154MOL   H28649552   1.751   6.566   5.362  0.9616 -1.2274  1.5663
  154MOL   H28749553   1.623   6.451   5.410 -1.0355  1.3076 -1.1554
  154MOL   H28849554   1.545   6.809   5.889  1.4926 -0.9796 -1.6389
  154MOL   H28949555   1.580   6.981   5.894  1.3047  0.3284  0.1066
  154MOL   C29049556   1.398   6.921   5.800 -0.1686  0.5009 -0.5610
  154MOL   O29149557   1.332   6.920   5.930 -0.8509  0.5647 -0.4927
  154MOL   C29249558   1.278   6.798   5.968  0.0235 -0.9127 -0.3732
  154MOL   C29349559   1.239   6.807   6.114  0.3818 -0.6872  0.0260
  154MOL   C29449560   1.223   6.660   6.177 -0.0080 -0.7991  0.5131
  154MOL   C29549561   1.383   7.063   5.736 -0.9099 -0.0852  0.1477
  154MOL   H29649562   1.344   6.855   5.733  2.0966  1.4791 -3.4405
  154MOL   H29749563   1.194   6.759   5.910 -1.3094  0.5169  0.5338
  154MOL   H29849564   1.356   6.724   5.955  1.8138  0.7896  0.3693
  154MOL   H29949565   1.157   6.877   6.131 -0.1394 -1.0189 -1.0993
  154MOL   H30049566   1.318   6.859   6.168  0.1946  1.4628 -1.7092
  154MOL   H30149567   1.317   6.605   6.192 -0.5158 -1.8711 -0.1962
  154MOL   H30249568   1.154   6.595   6.125  0.8506 -2.2857  1.1969
  154MOL   H30349569   1.193   6.672   6.281  0.7131 -2.1315  0.8872
  154MOL   H30449570   1.400   7.136   5.816 -0.8167  0.9992 -0.8610
  154MOL   H30549571   1.460   7.077   5.660 -0.9573  2.4962  0.5195
  154MOL   C30649572   1.254   7.085   5.651 -0.3254  0.1476  0.2651
  154MOL   O30749573   1.257   7.225   5.616  0.5946 -0.3212 -0.4090
  154MOL   C30849574   1.202   7.311   5.715  0.0015 -0.0212 -0.3447
  154MOL   C30949575   1.211   7.450   5.654 -0.4705 -0.0687 -0.1007
  154MOL   C31049576   1.081   7.537   5.667  0.9507  0.0381  0.1912
  154MOL   C31149577   1.241   7.010   5.515 -0.6638 -0.5732 -0.0431
  154MOL   H31249578   1.170   7.043   5.705 -0.8750 -0.9693 -1.4158
  154MOL   H31349579   1.099   7.280   5.736 -0.6115  0.3299 -2.6576
  154MOL   H31449580   1.262   7.306   5.805  0.1988  0.6513 -0.4395
  154MOL   H31549581   1.243   7.448   5.550 -2.8172 -3.2329 -0.8681
  154MOL   H31649582   1.296   7.504   5.694 -0.0027  0.1809 -1.4102
  154MOL   H31749583   1.049   7.542   5.771  3.2121  0.6279  0.8918
  154MOL   H31849584   0.995   7.497   5.613  0.9952  0.1478  0.0407
  154MOL   H31949585   1.101   7.639   5.634 -0.3924 -0.2865 -1.7031
  154MOL   H32049586   1.324   7.027   5.445 -0.6130  0.2033  0.2054
  154MOL   H32149587   1.230   6.903   5.534 -3.4129 -0.5631 -1.3970
  154MOL   H32249588   1.154   7.038   5.455 -1.0542 -1.0774  0.2843
  155MOL     C149589   5.083   5.150   3.887  0.2483  0.3822  0.6058
  155MOL     O249590   4.962   5.213   3.932  0.2545 -0.3442  0.1145
  155MOL     C349591   4.938   5.334   3.869  0.6122  0.2810 -0.1961
  155MOL     C449592   4.808   5.384   3.927  0.1944 -0.2987 -0.7796
  155MOL     C549593   4.808   5.425   4.077  0.3307  0.1124 -0.2052
  155MOL     C649594   5.083   5.012   3.951 -0.0532 -0.1763 -0.9579
  155MOL     H749595   5.170   5.212   3.911 -0.0796  0.6955  0.9813
  155MOL     H849596   5.018   5.407   3.881  0.8131 -0.0076  0.1979
  155MOL     H949597   4.931   5.311   3.762  1.0940 -0.5935 -0.0471
  155MOL    H1049598   4.744   5.296   3.920  1.2678 -1.0402 -1.6318
  155MOL    H1149599   4.763   5.465   3.870  3.1406  2.3771  0.5445
  155MOL    H1249600   4.713   5.471   4.105  0.5173 -0.5450  1.5246
  155MOL    H1349601   4.890   5.493   4.097 -0.3387  0.8284  0.1387
  155MOL    H1449602   4.832   5.337   4.137  1.1107  0.6397  0.2569
  155MOL    H1549603   5.097   5.019   4.058 -1.1505  0.0383 -0.8181
  155MOL    H1649604   4.991   4.955   3.940  0.4996 -0.9630 -1.5101
  155MOL    H1749605   5.085   5.139   3.779 -1.2245  1.7177  0.4332
  155MOL    C1849606   5.200   4.928   3.895 -0.0860  0.4048 -0.1451
  155MOL    O1949607   5.321   4.995   3.895  0.5741  0.5542 -0.2435
  155MOL    C2049608   5.392   4.983   3.773  0.0115 -0.4499  0.1867
  155MOL    C2149609   5.528   5.061   3.793 -0.0014 -0.4945  0.7529
  155MOL    C2249610   5.508   5.211   3.787  0.1405  0.1562 -0.1046
  155MOL    C2349611   5.239   4.805   3.988 -0.1677 -0.5485  0.0425
  155MOL    H2449612   5.168   4.887   3.799  0.4394 -1.5110  0.4895
  155MOL    H2549613   5.404   4.879   3.745  0.5558 -0.1410 -0.7326
  155MOL    H2649614   5.330   5.027   3.694  0.7290 -1.3597 -0.8960
  155MOL    H2749615   5.596   5.035   3.712  0.6181 -0.1747  1.1740
  155MOL    H2849616   5.569   5.045   3.893 -0.1632 -1.0062  0.7399
  155MOL    H2949617   5.429   5.243   3.856 -0.9879 -1.4536 -0.6149
  155MOL    H3049618   5.485   5.250   3.688 -0.6075  1.4526  0.5629
  155MOL    H3149619   5.605   5.259   3.800  0.4283  0.4910 -3.2563
  155MOL    H3249620   5.334   4.762   3.956 -0.3110 -1.3226  0.6529
  155MOL    H3349621   5.265   4.843   4.087  0.4226 -0.3124 -0.2021
  155MOL    C3449622   5.130   4.700   4.015 -0.3239 -0.6963 -0.0787
  155MOL    O3549623   5.104   4.641   3.886 -1.1803  0.0298  0.1759
  155MOL    C3649624   4.977   4.637   3.848  0.1631  0.1997  0.3178
  155MOL    C3749625   4.969   4.548   3.723  0.6461 -0.4953  0.0576
  155MOL    C3849626   4.991   4.612   3.588 -0.6569  0.1426  1.2474
  155MOL    C3949627   5.173   4.585   4.114  0.0818 -0.0429  0.2887
  155MOL    H4049628   5.041   4.750   4.053  0.1840  2.1906 -2.4696
  155MOL    H4149629   4.913   4.607   3.931 -1.3913  1.8238 -0.2737
  155MOL    H4249630   4.955   4.737   3.812 -0.2719 -0.7872 -2.2552
  155MOL    H4349631   4.863   4.523   3.715  0.0852  1.8951 -0.2385
  155MOL    H4449632   5.033   4.461   3.740 -0.2665 -1.3759 -0.9744
  155MOL    H4549633   5.092   4.651   3.577 -0.3940 -1.2529 -1.9663
  155MOL    H4649634   4.924   4.696   3.566  0.5278  0.5325 -1.0884
  155MOL    H4749635   4.986   4.536   3.509 -0.3681  0.3300  1.0481
  155MOL    H4849636   5.093   4.512   4.104 -0.0167  0.4584 -3.0903
  155MOL    H4949637   5.264   4.547   4.068 -0.0526 -0.6076  0.4885
  155MOL    C5049638   5.182   4.635   4.258  0.3121  0.7195  0.0488
  155MOL    O5149639   5.062   4.671   4.306 -0.2884 -0.2769 -0.0999
  155MOL    C5249640   5.034   4.802   4.327 -0.0303  1.0283 -0.0262
  155MOL    C5349641   4.896   4.820   4.376  0.3819  0.4426 -0.1086
  155MOL    C5449642   4.867   4.753   4.512  0.5387 -0.4565 -0.4436
  155MOL    C5549643   5.243   4.537   4.352  0.1168 -0.0689  0.2506
  155MOL    H5649644   5.248   4.722   4.247  0.1136  0.9919  0.9717
  155MOL    H5749645   5.107   4.852   4.391  2.3772 -1.8645 -0.4400
  155MOL    H5849646   5.042   4.864   4.238 -1.6819  0.8493 -0.3250
  155MOL    H5949647   4.827   4.772   4.306  0.6435 -0.4046  0.2108
  155MOL    H6049648   4.880   4.927   4.383 -0.4551  0.3161 -0.0220
  155MOL    H6149649   4.937   4.792   4.585  2.5401 -0.0022 -2.5501
  155MOL    H6249650   4.885   4.645   4.515 -3.8625 -1.2906 -0.4309
  155MOL    H6349651   4.763   4.773   4.541  0.7643  0.2800 -0.1332
  155MOL    H6449652   5.224   4.572   4.453 -1.3003  0.3228 -0.1479
  155MOL    H6549653   5.197   4.438   4.342 -1.2140  0.5852 -0.1008
  155MOL    C6649654   5.395   4.505   4.347  0.9586 -0.3560 -0.0134
  155MOL    O6749655   5.460   4.605   4.422 -0.0499  0.1741 -0.1128
  155MOL    C6849656   5.591   4.638   4.382  0.1169 -0.0537 -0.1317
  155MOL    C6949657   5.681   4.692   4.491  0.3655  0.2951  0.4905
  155MOL    C7049658   5.716   4.584   4.592 -0.7191 -0.0921  0.2070
  155MOL    C7149659   5.444   4.368   4.388 -0.0678  0.0004 -0.6089
  155MOL    H7249660   5.422   4.507   4.241 -1.4241 -3.1207 -0.7615
  155MOL    H7349661   5.634   4.557   4.322 -1.7009 -2.6449  1.9730
  155MOL    H7449662   5.594   4.721   4.311 -0.6528  0.2731  0.2122
  155MOL    H7549663   5.637   4.782   4.536 -2.4581 -0.2365 -1.0835
  155MOL    H7649664   5.772   4.725   4.441  0.9232 -1.1662  0.5368
  155MOL    H7749665   5.808   4.547   4.547 -2.0551  0.3044 -3.0080
  155MOL    H7849666   5.634   4.513   4.599 -1.0234  0.4945  3.2157
  155MOL    H7949667   5.746   4.630   4.687  3.0968 -0.9278 -0.5060
  155MOL    H8049668   5.544   4.387   4.427 -0.2984  1.2653 -0.6275
  155MOL    H8149669   5.386   4.327   4.471 -1.5624  2.1590 -0.5434
  155MOL    C8249670   5.440   4.266   4.277  0.0336  0.4447 -0.1543
  155MOL    O8349671   5.561   4.291   4.197 -0.0329  0.3189  0.5444
  155MOL    C8449672   5.536   4.278   4.056  0.7939 -0.6209 -0.2683
  155MOL    C8549673   5.669   4.317   3.994  0.2565  0.5262 -0.0316
  155MOL    C8649674   5.695   4.470   4.000  0.4903 -0.1687  0.1297
  155MOL    C8749675   5.463   4.119   4.341  0.8053 -0.0613  0.6299
  155MOL    H8849676   5.346   4.276   4.223 -0.4660  1.2024  0.8330
  155MOL    H8949677   5.487   4.181   4.047  3.1551 -2.0755  1.8005
  155MOL    H9049678   5.458   4.350   4.033  0.0636 -1.1124  0.6064
  155MOL    H9149679   5.674   4.280   3.892  2.1502  0.1499  0.1832
  155MOL    H9249680   5.737   4.257   4.055 -0.2286  0.1329  0.1247
  155MOL    H9349681   5.741   4.495   4.095  0.5064  0.7459 -0.1082
  155MOL    H9449682   5.606   4.533   3.993  2.4113  2.6004 -0.1447
  155MOL    H9549683   5.769   4.498   3.924 -1.4499  0.0734 -1.7293
  155MOL    H9649684   5.488   4.051   4.260  1.2906  0.5755  0.2373
  155MOL    H9749685   5.550   4.123   4.406  0.1872  0.6079  1.4337
  155MOL    C9849686   5.338   4.054   4.409  0.0991  0.1306 -0.2976
  155MOL    O9949687   5.247   4.014   4.309  0.4947 -0.0328  0.3538
  155MOL   C10049688   5.108   3.994   4.334  0.1679 -0.2384 -0.6099
  155MOL   C10149689   5.044   3.943   4.198 -0.2105 -0.4904  0.0201
  155MOL   C10249690   5.101   3.804   4.172  0.3182  0.7879  0.2763
  155MOL   C10349691   5.393   3.922   4.461  0.0400 -0.3053  0.5203
  155MOL   H10449692   5.287   4.116   4.483 -0.3699 -0.8466  0.2121
  155MOL   H10549693   5.103   3.921   4.415 -0.8248  1.8431  1.2477
  155MOL   H10649694   5.066   4.083   4.380  2.0714 -0.3676  1.5062
  155MOL   H10749695   5.053   4.013   4.115 -0.6746 -0.7229 -0.2271
  155MOL   H10849696   4.939   3.922   4.219 -0.3693  0.7773  0.5887
  155MOL   H10949697   5.198   3.809   4.124 -0.1507 -1.6088 -1.0299
  155MOL   H11049698   5.040   3.745   4.103  1.0136 -0.3007  0.5809
  155MOL   H11149699   5.105   3.747   4.265 -1.8420  0.6868  0.3520
  155MOL   H11249700   5.311   3.851   4.475 -0.8673  0.4694 -0.6823
  155MOL   H11349701   5.443   3.865   4.382 -1.3293 -0.2144 -0.4388
  155MOL   C11449702   5.489   3.927   4.586 -0.4251 -0.5585 -0.1824
  155MOL   O11549703   5.435   4.017   4.681  0.6115  0.2419  0.1716
  155MOL   C11649704   5.509   4.136   4.703 -0.8024 -0.1020 -0.6109
  155MOL   C11749705   5.421   4.227   4.788 -0.2607 -0.5320 -0.0044
  155MOL   C11849706   5.505   4.339   4.847  0.0488 -1.0781  0.1563
  155MOL   C11949707   5.517   3.785   4.645  0.5967  0.4399 -0.6378
  155MOL   H12049708   5.589   3.958   4.554 -0.0485 -0.7280  0.8130
  155MOL   H12149709   5.605   4.106   4.746  1.1861  2.1303 -3.2830
  155MOL   H12249710   5.537   4.186   4.610 -0.3635 -0.1999 -0.5355
  155MOL   H12349711   5.389   4.173   4.877  0.5669 -2.1101 -0.6457
  155MOL   H12449712   5.333   4.266   4.738 -0.9013 -1.1279  0.6574
  155MOL   H12549713   5.447   4.410   4.908 -0.7557 -1.7145  0.1439
  155MOL   H12649714   5.556   4.389   4.765 -2.3718 -0.0070 -0.7447
  155MOL   H12749715   5.581   4.301   4.915 -0.3651 -0.5141  0.9493
  155MOL   H12849716   5.420   3.745   4.676  0.4506  1.2758  0.0009
  155MOL   H12949717   5.542   3.710   4.570  0.1256 -0.3502 -0.0109
  155MOL   C13049718   5.614   3.778   4.773 -0.5418 -0.2110 -0.6615
  155MOL   O13149719   5.619   3.648   4.821  0.3426  0.5357 -0.4034
  155MOL   C13249720   5.515   3.610   4.901 -0.0603 -0.0900 -0.1685
  155MOL   C13349721   5.559   3.477   4.966 -0.3013  0.1323  0.1973
  155MOL   C13449722   5.447   3.391   5.028  0.9927  0.8966  0.3769
  155MOL   C13549723   5.763   3.805   4.729 -0.2563  0.2452  0.6641
  155MOL   H13649724   5.579   3.847   4.849  2.3318 -0.0752  0.6233
  155MOL   H13749725   5.494   3.685   4.978  0.7343 -0.8022  0.7607
  155MOL   H13849726   5.422   3.592   4.848 -0.4631  0.1031  0.4647
  155MOL   H13949727   5.629   3.514   5.041  0.8468 -0.1028 -0.7474
  155MOL   H14049728   5.612   3.417   4.893 -0.8919 -0.2137  0.0444
  155MOL   H14149729   5.401   3.319   4.960  1.6360  0.2035  0.6632
  155MOL   H14249730   5.369   3.461   5.058  0.5924  0.4721  0.3346
  155MOL   H14349731   5.485   3.335   5.114  0.3276 -1.0506 -0.5592
  155MOL   H14449732   5.793   3.727   4.659  0.9026  0.7765  0.5660
  155MOL   H14549733   5.776   3.899   4.675  0.6543 -0.5689 -0.5584
  155MOL   C14649734   5.864   3.806   4.842 -0.1914  0.0619  0.2277
  155MOL   O14749735   5.991   3.859   4.808  0.6935 -0.4498  0.4888
  155MOL   C14849736   6.064   3.777   4.714  1.0006 -0.0342 -0.3669
  155MOL   C14949737   6.208   3.814   4.710 -0.0829  0.0589  0.3950
  155MOL   C15049738   6.217   3.965   4.700 -0.1316  0.0810  0.3274
  155MOL   C15149739   5.812   3.899   4.962  0.5481 -0.1944 -0.0449
  155MOL   H15249740   5.863   3.702   4.874 -1.8945  0.0941  0.3350
  155MOL   H15349741   6.066   3.670   4.733 -0.9892  0.0206  0.2819
  155MOL   H15449742   6.008   3.791   4.622 -1.1241 -1.0452  0.7339
  155MOL   H15549743   6.246   3.774   4.617 -0.3028  0.7518  0.0055
  155MOL   H15649744   6.263   3.771   4.794  0.3929  0.2104  0.1586
  155MOL   H15749745   6.173   4.010   4.790  0.3548  2.0643 -0.3992
  155MOL   H15849746   6.165   4.008   4.614  1.5291  0.4013 -0.5253
  155MOL   H15949747   6.315   4.011   4.702  1.1962 -2.6105 -0.9358
  155MOL   H16049748   5.786   4.000   4.931  2.1918  0.2902  0.0651
  155MOL   H16149749   5.721   3.856   5.004 -0.9065  0.8973 -2.0254
  155MOL   C16249750   5.918   3.927   5.067 -0.0398 -0.1971  0.6810
  155MOL   O16349751   5.864   4.031   5.146 -0.6600 -0.0718  0.2474
  155MOL   C16449752   5.960   4.117   5.223  0.0452  0.0348 -0.3533
  155MOL   C16549753   5.874   4.218   5.303  0.0696 -0.2481 -0.9743
  155MOL   C16649754   5.941   4.319   5.399  0.3432 -0.0832  0.8163
  155MOL   C16749755   5.933   3.808   5.158  0.0451  0.6781 -0.3796
  155MOL   H16849756   6.016   3.961   5.035 -0.5644  0.3083 -0.4162
  155MOL   H16949757   6.016   4.063   5.300 -1.6034 -0.6322  0.4093
  155MOL   H17049758   6.030   4.174   5.163  2.0668  0.4509  2.3010
  155MOL   H17149759   5.800   4.156   5.354  0.4678 -1.3761 -1.7502
  155MOL   H17249760   5.824   4.276   5.224  1.6407  0.5965 -1.3591
  155MOL   H17349761   6.027   4.371   5.355 -0.3246 -0.6085 -1.1446
  155MOL   H17449762   5.977   4.263   5.485 -1.0226 -2.0807  0.1320
  155MOL   H17549763   5.873   4.399   5.429  2.9891  2.4353  0.3011
  155MOL   H17649764   5.937   3.850   5.258 -1.6683 -0.7628  0.3238
  155MOL   H17749765   5.843   3.746   5.162 -0.9372  2.1720  1.5976
  155MOL   C17849766   6.064   3.717   5.143 -0.3366 -0.3689 -0.2634
  155MOL   O17949767   6.172   3.804   5.171  0.8598  0.2751  0.3667
  155MOL   C18049768   6.300   3.771   5.113  0.2250 -0.4047 -0.4444
  155MOL   C18149769   6.400   3.879   5.141 -0.4699  0.3886  1.0470
  155MOL   C18249770   6.398   4.001   5.050 -0.3233 -0.0405  0.3461
  155MOL   C18349771   6.072   3.592   5.225  0.2655  0.0169 -1.5189
  155MOL   H18449772   6.062   3.698   5.036 -0.8886 -1.6973 -0.0194
  155MOL   H18549773   6.330   3.682   5.168  0.7053  0.3919  0.6027
  155MOL   H18649774   6.281   3.740   5.010 -0.1996  0.6801 -0.6989
  155MOL   H18749775   6.504   3.847   5.142 -0.5566  0.0641  0.1470
  155MOL   H18849776   6.390   3.924   5.240  2.4419  0.2539  1.4589
  155MOL   H18949777   6.303   4.053   5.064  0.4525  2.1233 -2.0992
  155MOL   H19049778   6.392   3.967   4.947  2.2794  0.8604 -0.1401
  155MOL   H19149779   6.482   4.069   5.061 -1.4825  0.9908  3.3480
  155MOL   H19249780   6.177   3.562   5.232  0.2841  0.9167  3.8422
  155MOL   H19349781   6.036   3.612   5.326  2.8455 -1.3360 -0.2865
  155MOL   C19449782   6.001   3.457   5.169 -0.3383  0.7702 -0.0312
  155MOL   O19549783   6.036   3.432   5.036  0.5847  0.0755  0.1845
  155MOL   C19649784   5.919   3.399   4.954  0.6371 -0.6823  0.3203
  155MOL   C19749785   5.983   3.356   4.819 -0.6396 -0.8282 -0.3352
  155MOL   C19849786   5.889   3.307   4.710 -0.1347  0.4119  0.1140
  155MOL   C19949787   6.022   3.325   5.250  0.5205  0.2569 -0.1974
  155MOL   H20049788   5.894   3.475   5.166 -0.2976  0.7667 -2.2382
  155MOL   H20149789   5.870   3.310   4.991 -1.8101  0.6885  0.4515
  155MOL   H20249790   5.850   3.483   4.944  3.2147  1.4838 -0.0417
  155MOL   H20349791   6.068   3.290   4.836 -0.7837 -0.6129  1.3096
  155MOL   H20449792   6.027   3.446   4.778 -1.1437  1.2232  3.3927
  155MOL   H20549793   5.888   3.198   4.713 -2.7605  0.4216  0.6409
  155MOL   H20649794   5.921   3.334   4.610 -1.9469  0.9385 -0.3385
  155MOL   H20749795   5.786   3.337   4.723 -0.7979 -1.7586  0.0806
  155MOL   H20849796   5.968   3.248   5.195  0.7265 -1.2146  1.6074
  155MOL   H20949797   6.127   3.300   5.235  0.4437  1.3408 -2.6606
  155MOL   C21049798   5.998   3.312   5.392  0.5056  0.0603  0.5183
  155MOL   O21149799   5.877   3.380   5.432 -0.1947 -0.0147  0.3435
  155MOL   C21249800   5.881   3.452   5.558 -0.4204  0.3493  0.1306
  155MOL   C21349801   5.754   3.538   5.573 -0.0278 -0.0684  0.7090
  155MOL   C21449802   5.715   3.611   5.443 -0.4698 -0.5870 -0.1351
  155MOL   C21549803   5.978   3.161   5.445 -0.9657  0.4038  0.4190
  155MOL   H21649804   6.083   3.362   5.439 -0.5032  1.3453  1.0240
  155MOL   H21749805   5.885   3.383   5.643 -0.6119 -1.9493 -1.6745
  155MOL   H21849806   5.973   3.511   5.560 -1.8254  2.5627  1.2122
  155MOL   H21949807   5.772   3.620   5.644  2.6792 -0.5133  0.5851
  155MOL   H22049808   5.671   3.475   5.605  0.2504 -1.8291 -1.9254
  155MOL   H22149809   5.794   3.677   5.408 -0.5224 -0.8158 -0.6818
  155MOL   H22249810   5.632   3.678   5.464 -0.5506 -0.8413  0.3609
  155MOL   H22349811   5.687   3.534   5.372  0.2440 -1.4166  0.4729
  155MOL   H22449812   5.956   3.160   5.551  0.9791  0.0261  0.8388
  155MOL   H22549813   5.891   3.113   5.401  0.6707 -1.4754 -0.8408
  155MOL   C22649814   6.108   3.082   5.426  0.0366  0.2660  0.0748
  155MOL   O22749815   6.208   3.133   5.517 -0.0429 -0.2109  0.1337
  155MOL   C22849816   6.341   3.139   5.461 -0.4369  0.5929  0.3606
  155MOL   C22949817   6.431   3.229   5.547 -0.5025  0.3280 -0.1873
  155MOL   C23049818   6.408   3.383   5.539  0.5557 -0.7253 -0.3849
  155MOL   C23149819   6.080   2.934   5.467 -0.1816 -0.5389 -0.1666
  155MOL   H23249820   6.144   3.086   5.323 -0.6593 -2.2984 -0.3053
  155MOL   H23349821   6.384   3.042   5.436  3.0244  2.2254 -0.2653
  155MOL   H23449822   6.351   3.185   5.363  1.9228  1.8667  1.1715
  155MOL   H23549823   6.536   3.205   5.531 -0.7257 -1.2264  0.5405
  155MOL   H23649824   6.412   3.209   5.653  0.5428  2.2076  0.3821
  155MOL   H23749825   6.499   3.434   5.571 -0.7057  1.3949 -0.0989
  155MOL   H23849826   6.331   3.395   5.616  1.5173 -0.6850  0.5900
  155MOL   H23949827   6.376   3.413   5.439 -0.4494  1.1976  0.4778
  155MOL   H24049828   6.169   2.884   5.507  1.7302  0.0981 -3.4385
  155MOL   H24149829   6.010   2.932   5.550  0.7021 -4.6709  0.5943
  155MOL   C24249830   6.030   2.841   5.360  0.1256 -0.1750  0.5043
  155MOL   O24349831   5.917   2.898   5.290 -0.3734  0.3034  0.1528
  155MOL   C24449832   5.839   2.812   5.215 -0.2485  0.5937 -0.0873
  155MOL   C24549833   5.705   2.882   5.172 -0.7006  0.3206 -0.8903
  155MOL   C24649834   5.720   3.023   5.110 -0.3062  0.3337 -0.1805
  155MOL   C24749835   6.139   2.790   5.265  0.1892  0.4403  0.6932
  155MOL   H24849836   5.981   2.758   5.412 -1.5934 -0.3733 -1.3774
  155MOL   H24949837   5.896   2.783   5.126  3.6659  0.2163  2.4392
  155MOL   H25049838   5.819   2.725   5.278 -0.5795  1.0426  0.4342
  155MOL   H25149839   5.639   2.874   5.259  1.4570  1.3693  0.8886
  155MOL   H25249840   5.660   2.808   5.106 -0.3200 -1.3413  0.6617
  155MOL   H25349841   5.766   3.100   5.172  0.0862  1.3675 -1.7307
  155MOL   H25449842   5.619   3.058   5.091  1.2603  3.5593 -2.9452
  155MOL   H25549843   5.759   3.016   5.009  1.4066 -0.2932  0.5002
  155MOL   H25649844   6.092   2.731   5.185 -1.1022 -0.4827  2.0945
  155MOL   H25749845   6.189   2.874   5.217 -0.7887  1.0948  0.7991
  155MOL   C25849846   6.246   2.689   5.325  0.3921 -1.1377 -0.4289
  155MOL   O25949847   6.333   2.761   5.413 -0.0092  0.1934  0.2627
  155MOL   C26049848   6.453   2.694   5.439  0.2171 -0.2843 -0.9247
  155MOL   C26149849   6.530   2.767   5.549 -0.1853  0.2090  0.4025
  155MOL   C26249850   6.446   2.786   5.678 -0.1055  0.6002  0.4455
  155MOL   C26349851   6.184   2.559   5.375 -0.2425  0.0717 -0.1951
  155MOL   H26449852   6.300   2.665   5.234  0.0440 -1.0974 -0.6486
  155MOL   H26549853   6.441   2.598   5.489  0.4760  0.3230  0.3242
  155MOL   H26649854   6.506   2.679   5.345  0.2544 -0.0475 -0.9410
  155MOL   H26749855   6.567   2.863   5.511  0.2321  0.0366  0.3662
  155MOL   H26849856   6.622   2.714   5.576 -1.0989 -0.6807  1.8224
  155MOL   H26949857   6.367   2.860   5.659 -0.0593  0.1384 -1.6502
  155MOL   H27049858   6.517   2.827   5.750  1.8140 -2.0565  0.1282
  155MOL   H27149859   6.411   2.690   5.716  1.4226  0.9599  2.8859
  155MOL   H27249860   6.255   2.495   5.427  0.3394  0.2223 -0.8060
  155MOL   H27349861   6.121   2.587   5.460  0.8897  1.0661  0.3226
  155MOL   C27449862   6.100   2.470   5.280  0.8638  0.0432  0.4523
  155MOL   O27549863   6.183   2.443   5.166 -0.2005 -0.3187 -0.6310
  155MOL   C27649864   6.105   2.455   5.045 -0.4235  0.0951  0.0222
  155MOL   C27749865   6.172   2.378   4.925  1.1881  0.3754  0.1257
  155MOL   C27849866   6.084   2.371   4.798 -0.7708 -0.2017  0.6506
  155MOL   C27949867   6.049   2.337   5.330 -0.0948  0.2244 -0.2878
  155MOL   H28049868   6.013   2.525   5.244  1.7094  0.0406 -1.6489
  155MOL   H28149869   6.010   2.404   5.060 -0.7083  0.7015  0.3128
  155MOL   H28249870   6.083   2.560   5.027 -1.9042 -0.1063  0.5643
  155MOL   H28349871   6.184   2.273   4.951 -1.1136  0.2020  0.5880
  155MOL   H28449872   6.269   2.420   4.899  0.2290  1.6259 -1.5837
  155MOL   H28549873   5.986   2.330   4.820 -0.4163 -0.9565  0.8163
  155MOL   H28649874   6.123   2.316   4.712 -2.1828 -0.3589  0.1094
  155MOL   H28749875   6.076   2.473   4.758 -0.1454 -0.1768  0.5718
  155MOL   H28849876   6.021   2.268   5.251  0.2871  1.2022 -1.2823
  155MOL   H28949877   6.138   2.291   5.374 -0.2349  1.0462  0.9002
  155MOL   C29049878   5.931   2.349   5.431  0.1068  1.1893  0.3418
  155MOL   O29149879   5.824   2.377   5.352 -0.4048  0.0040  0.2336
  155MOL   C29249880   5.714   2.427   5.424  0.6854 -0.1321  0.0521
  155MOL   C29349881   5.592   2.461   5.332 -0.3293 -0.2161 -0.3835
  155MOL   C29449882   5.504   2.567   5.408 -0.2816 -0.1078 -0.3958
  155MOL   C29549883   5.914   2.211   5.508  0.3836  0.3500  0.0042
  155MOL   H29649884   5.950   2.427   5.505 -0.4065  1.3643  0.2900
  155MOL   H29749885   5.673   2.357   5.496 -0.5920 -1.0812 -1.5530
  155MOL   H29849886   5.753   2.516   5.472 -0.5909  1.5515 -1.9718
  155MOL   H29949887   5.533   2.378   5.292 -0.4833 -1.9324  3.1869
  155MOL   H30049888   5.625   2.520   5.247 -1.3374  1.9032  0.6575
  155MOL   H30149889   5.452   2.522   5.493 -2.4968  0.6475 -1.2973
  155MOL   H30249890   5.428   2.593   5.334  0.6641  0.5313 -1.1437
  155MOL   H30349891   5.547   2.664   5.434 -1.6508 -0.0513  1.8357
  155MOL   H30449892   5.807   2.208   5.530  0.1749 -1.4332 -1.1740
  155MOL   H30549893   5.921   2.126   5.440 -0.1073  1.1055 -1.0209
  155MOL   C30649894   5.995   2.203   5.642  0.1301 -0.7188  0.2976
  155MOL   O30749895   5.955   2.093   5.722  0.8961 -0.1593  0.1103
  155MOL   C30849896   5.851   2.114   5.815  0.3141 -0.1720  0.4334
  155MOL   C30949897   5.825   2.004   5.910  0.2338  0.2220 -0.7151
  155MOL   C31049898   5.933   1.993   6.020  0.0314  0.4907 -0.2152
  155MOL   C31149899   6.140   2.190   5.625 -0.2516 -0.2056 -0.5404
  155MOL   H31249900   5.982   2.296   5.696  1.0523 -0.0556 -0.6137
  155MOL   H31349901   5.862   2.204   5.876 -0.5626  0.7095 -0.6840
  155MOL   H31449902   5.766   2.141   5.752 -1.0146  1.7796  2.9713
  155MOL   H31549903   5.809   1.911   5.857 -1.3940 -0.5699  1.0953
  155MOL   H31649904   5.733   2.040   5.958  0.9769  1.4514 -0.1799
  155MOL   H31749905   5.895   1.920   6.092  0.1220 -1.8895 -2.5106
  155MOL   H31849906   5.937   2.085   6.079 -0.4088  1.2093 -1.2929
  155MOL   H31949907   6.030   1.956   5.986  0.7360  1.4606  0.7253
  155MOL   H32049908   6.176   2.280   5.576 -2.6410  0.3661 -1.3568
  155MOL   H32149909   6.195   2.180   5.718  0.2839 -1.6030 -0.9958
  155MOL   H32249910   6.174   2.113   5.556 -1.3464 -2.5028  1.3995
   7.82783   7.82783   7.82783
