;
; Gromacs include topology (itp) file.
; For Molecular Group XYZ
; Force field scheme: opls2005
; Produced from DL_FIELD v4.11
;


[ moleculetype ]
; name    nrexcl
XYZ    3

[ atoms ]
; nr   type   resnr   residu    atom    cgnr    charge    mass
    1        CT    1  MOL      C1     1  -0.1800000   12.0115
    2        CT    1  MOL      C2     2  -0.0600000   12.0115
    3       CO4    1  MOL      C3     3   0.5100000   12.0115
    4         O    1  MOL      O4     4  -0.4300000   15.9994
    5       OES    1  MOL      O5     5  -0.3300000   15.9994
    6        CT    1  MOL      C6     6   0.1900000   12.0115
    7        CT    1  MOL      C7     7  -0.1800000   12.0115
    8        HC    1  MOL      H8     8   0.0600000    1.0080
    9        HC    1  MOL      H9     9   0.0600000    1.0080
   10       HAE    1  MOL     H10    10   0.0600000    1.0080
   11       HAE    1  MOL     H11    11   0.0300000    1.0080
   12       HAE    1  MOL     H12    12   0.0300000    1.0080
   13        HC    1  MOL     H13    13   0.0600000    1.0080
   14        HC    1  MOL     H14    14   0.0600000    1.0080
   15        HC    1  MOL     H15    15   0.0600000    1.0080
   16        HC    1  MOL     H16    16   0.0600000    1.0080
   17        CT    1  MOL     C17    17  -0.1200000   12.0115
   18        CT    1  MOL     C18    18  -0.0600000   12.0115
   19       CO4    1  MOL     C19    19   0.5100000   12.0115
   20         O    1  MOL     O20    20  -0.4300000   15.9994
   21       OES    1  MOL     O21    21  -0.3300000   15.9994
   22        CT    1  MOL     C22    22   0.1900000   12.0115
   23        CT    1  MOL     C23    23  -0.1800000   12.0115
   24        HC    1  MOL     H24    24   0.0600000    1.0080
   25        HC    1  MOL     H25    25   0.0600000    1.0080
   26       HAE    1  MOL     H26    26   0.0600000    1.0080
   27       HAE    1  MOL     H27    27   0.0300000    1.0080
   28       HAE    1  MOL     H28    28   0.0300000    1.0080
   29        HC    1  MOL     H29    29   0.0600000    1.0080
   30        HC    1  MOL     H30    30   0.0600000    1.0080
   31        HC    1  MOL     H31    31   0.0600000    1.0080
   32        CT    1  MOL     C32    32  -0.1200000   12.0115
   33        CT    1  MOL     C33    33  -0.0600000   12.0115
   34       CO4    1  MOL     C34    34   0.5100000   12.0115
   35         O    1  MOL     O35    35  -0.4300000   15.9994
   36       OES    1  MOL     O36    36  -0.3300000   15.9994
   37        CT    1  MOL     C37    37   0.1900000   12.0115
   38        CT    1  MOL     C38    38  -0.1800000   12.0115
   39        HC    1  MOL     H39    39   0.0600000    1.0080
   40        HC    1  MOL     H40    40   0.0600000    1.0080
   41       HAE    1  MOL     H41    41   0.0600000    1.0080
   42       HAE    1  MOL     H42    42   0.0300000    1.0080
   43       HAE    1  MOL     H43    43   0.0300000    1.0080
   44        HC    1  MOL     H44    44   0.0600000    1.0080
   45        HC    1  MOL     H45    45   0.0600000    1.0080
   46        HC    1  MOL     H46    46   0.0600000    1.0080
   47        CT    1  MOL     C47    47  -0.1200000   12.0115
   48        CT    1  MOL     C48    48  -0.0600000   12.0115
   49       CO4    1  MOL     C49    49   0.5100000   12.0115
   50         O    1  MOL     O50    50  -0.4300000   15.9994
   51       OES    1  MOL     O51    51  -0.3300000   15.9994
   52        CT    1  MOL     C52    52   0.1900000   12.0115
   53        CT    1  MOL     C53    53  -0.1800000   12.0115
   54        HC    1  MOL     H54    54   0.0600000    1.0080
   55        HC    1  MOL     H55    55   0.0600000    1.0080
   56       HAE    1  MOL     H56    56   0.0600000    1.0080
   57       HAE    1  MOL     H57    57   0.0300000    1.0080
   58       HAE    1  MOL     H58    58   0.0300000    1.0080
   59        HC    1  MOL     H59    59   0.0600000    1.0080
   60        HC    1  MOL     H60    60   0.0600000    1.0080
   61        HC    1  MOL     H61    61   0.0600000    1.0080
   62        CT    1  MOL     C62    62  -0.1200000   12.0115
   63        CT    1  MOL     C63    63  -0.0600000   12.0115
   64       CO4    1  MOL     C64    64   0.5100000   12.0115
   65         O    1  MOL     O65    65  -0.4300000   15.9994
   66       OES    1  MOL     O66    66  -0.3300000   15.9994
   67        CT    1  MOL     C67    67   0.1900000   12.0115
   68        CT    1  MOL     C68    68  -0.1800000   12.0115
   69        HC    1  MOL     H69    69   0.0600000    1.0080
   70        HC    1  MOL     H70    70   0.0600000    1.0080
   71       HAE    1  MOL     H71    71   0.0600000    1.0080
   72       HAE    1  MOL     H72    72   0.0300000    1.0080
   73       HAE    1  MOL     H73    73   0.0300000    1.0080
   74        HC    1  MOL     H74    74   0.0600000    1.0080
   75        HC    1  MOL     H75    75   0.0600000    1.0080
   76        HC    1  MOL     H76    76   0.0600000    1.0080
   77        CT    1  MOL     C77    77  -0.1200000   12.0115
   78        CT    1  MOL     C78    78  -0.0600000   12.0115
   79       CO4    1  MOL     C79    79   0.5100000   12.0115
   80         O    1  MOL     O80    80  -0.4300000   15.9994
   81       OES    1  MOL     O81    81  -0.3300000   15.9994
   82        CT    1  MOL     C82    82   0.1900000   12.0115
   83        CT    1  MOL     C83    83  -0.1800000   12.0115
   84        HC    1  MOL     H84    84   0.0600000    1.0080
   85        HC    1  MOL     H85    85   0.0600000    1.0080
   86       HAE    1  MOL     H86    86   0.0600000    1.0080
   87       HAE    1  MOL     H87    87   0.0300000    1.0080
   88       HAE    1  MOL     H88    88   0.0300000    1.0080
   89        HC    1  MOL     H89    89   0.0600000    1.0080
   90        HC    1  MOL     H90    90   0.0600000    1.0080
   91        HC    1  MOL     H91    91   0.0600000    1.0080
   92        CT    1  MOL     C92    92  -0.1200000   12.0115
   93        CT    1  MOL     C93    93  -0.0600000   12.0115
   94       CO4    1  MOL     C94    94   0.5100000   12.0115
   95         O    1  MOL     O95    95  -0.4300000   15.9994
   96       OES    1  MOL     O96    96  -0.3300000   15.9994
   97        CT    1  MOL     C97    97   0.1900000   12.0115
   98        CT    1  MOL     C98    98  -0.1800000   12.0115
   99        HC    1  MOL     H99    99   0.0600000    1.0080
  100        HC    1  MOL    H100   100   0.0600000    1.0080
  101       HAE    1  MOL    H101   101   0.0600000    1.0080
  102       HAE    1  MOL    H102   102   0.0300000    1.0080
  103       HAE    1  MOL    H103   103   0.0300000    1.0080
  104        HC    1  MOL    H104   104   0.0600000    1.0080
  105        HC    1  MOL    H105   105   0.0600000    1.0080
  106        HC    1  MOL    H106   106   0.0600000    1.0080
  107        CT    1  MOL    C107   107  -0.1200000   12.0115
  108        CT    1  MOL    C108   108  -0.0600000   12.0115
  109       CO4    1  MOL    C109   109   0.5100000   12.0115
  110         O    1  MOL    O110   110  -0.4300000   15.9994
  111       OES    1  MOL    O111   111  -0.3300000   15.9994
  112        CT    1  MOL    C112   112   0.1900000   12.0115
  113        CT    1  MOL    C113   113  -0.1800000   12.0115
  114        HC    1  MOL    H114   114   0.0600000    1.0080
  115        HC    1  MOL    H115   115   0.0600000    1.0080
  116       HAE    1  MOL    H116   116   0.0600000    1.0080
  117       HAE    1  MOL    H117   117   0.0300000    1.0080
  118       HAE    1  MOL    H118   118   0.0300000    1.0080
  119        HC    1  MOL    H119   119   0.0600000    1.0080
  120        HC    1  MOL    H120   120   0.0600000    1.0080
  121        HC    1  MOL    H121   121   0.0600000    1.0080
  122        CT    1  MOL    C122   122  -0.1200000   12.0115
  123        CT    1  MOL    C123   123  -0.0600000   12.0115
  124       CO4    1  MOL    C124   124   0.5100000   12.0115
  125         O    1  MOL    O125   125  -0.4300000   15.9994
  126       OES    1  MOL    O126   126  -0.3300000   15.9994
  127        CT    1  MOL    C127   127   0.1900000   12.0115
  128        CT    1  MOL    C128   128  -0.1800000   12.0115
  129        HC    1  MOL    H129   129   0.0600000    1.0080
  130        HC    1  MOL    H130   130   0.0600000    1.0080
  131       HAE    1  MOL    H131   131   0.0600000    1.0080
  132       HAE    1  MOL    H132   132   0.0300000    1.0080
  133       HAE    1  MOL    H133   133   0.0300000    1.0080
  134        HC    1  MOL    H134   134   0.0600000    1.0080
  135        HC    1  MOL    H135   135   0.0600000    1.0080
  136        HC    1  MOL    H136   136   0.0600000    1.0080
  137        CT    1  MOL    C137   137  -0.1200000   12.0115
  138        CT    1  MOL    C138   138  -0.0600000   12.0115
  139       CO4    1  MOL    C139   139   0.5100000   12.0115
  140         O    1  MOL    O140   140  -0.4300000   15.9994
  141       OES    1  MOL    O141   141  -0.3300000   15.9994
  142        CT    1  MOL    C142   142   0.1900000   12.0115
  143        CT    1  MOL    C143   143  -0.1800000   12.0115
  144        HC    1  MOL    H144   144   0.0600000    1.0080
  145        HC    1  MOL    H145   145   0.0600000    1.0080
  146       HAE    1  MOL    H146   146   0.0600000    1.0080
  147       HAE    1  MOL    H147   147   0.0300000    1.0080
  148       HAE    1  MOL    H148   148   0.0300000    1.0080
  149        HC    1  MOL    H149   149   0.0600000    1.0080
  150        HC    1  MOL    H150   150   0.0600000    1.0080
  151        HC    1  MOL    H151   151   0.0600000    1.0080
  152        CT    1  MOL    C152   152  -0.1200000   12.0115
  153        CT    1  MOL    C153   153  -0.0600000   12.0115
  154       CO4    1  MOL    C154   154   0.5100000   12.0115
  155         O    1  MOL    O155   155  -0.4300000   15.9994
  156       OES    1  MOL    O156   156  -0.3300000   15.9994
  157        CT    1  MOL    C157   157   0.1900000   12.0115
  158        CT    1  MOL    C158   158  -0.1800000   12.0115
  159        HC    1  MOL    H159   159   0.0600000    1.0080
  160        HC    1  MOL    H160   160   0.0600000    1.0080
  161       HAE    1  MOL    H161   161   0.0600000    1.0080
  162       HAE    1  MOL    H162   162   0.0300000    1.0080
  163       HAE    1  MOL    H163   163   0.0300000    1.0080
  164        HC    1  MOL    H164   164   0.0600000    1.0080
  165        HC    1  MOL    H165   165   0.0600000    1.0080
  166        HC    1  MOL    H166   166   0.0600000    1.0080
  167        CT    1  MOL    C167   167  -0.1200000   12.0115
  168        CT    1  MOL    C168   168  -0.0600000   12.0115
  169       CO4    1  MOL    C169   169   0.5100000   12.0115
  170         O    1  MOL    O170   170  -0.4300000   15.9994
  171       OES    1  MOL    O171   171  -0.3300000   15.9994
  172        CT    1  MOL    C172   172   0.1900000   12.0115
  173        CT    1  MOL    C173   173  -0.1800000   12.0115
  174        HC    1  MOL    H174   174   0.0600000    1.0080
  175        HC    1  MOL    H175   175   0.0600000    1.0080
  176       HAE    1  MOL    H176   176   0.0600000    1.0080
  177       HAE    1  MOL    H177   177   0.0300000    1.0080
  178       HAE    1  MOL    H178   178   0.0300000    1.0080
  179        HC    1  MOL    H179   179   0.0600000    1.0080
  180        HC    1  MOL    H180   180   0.0600000    1.0080
  181        HC    1  MOL    H181   181   0.0600000    1.0080
  182        CT    1  MOL    C182   182  -0.1200000   12.0115
  183        CT    1  MOL    C183   183  -0.0600000   12.0115
  184       CO4    1  MOL    C184   184   0.5100000   12.0115
  185         O    1  MOL    O185   185  -0.4300000   15.9994
  186       OES    1  MOL    O186   186  -0.3300000   15.9994
  187        CT    1  MOL    C187   187   0.1900000   12.0115
  188        CT    1  MOL    C188   188  -0.1800000   12.0115
  189        HC    1  MOL    H189   189   0.0600000    1.0080
  190        HC    1  MOL    H190   190   0.0600000    1.0080
  191       HAE    1  MOL    H191   191   0.0600000    1.0080
  192       HAE    1  MOL    H192   192   0.0300000    1.0080
  193       HAE    1  MOL    H193   193   0.0300000    1.0080
  194        HC    1  MOL    H194   194   0.0600000    1.0080
  195        HC    1  MOL    H195   195   0.0600000    1.0080
  196        HC    1  MOL    H196   196   0.0600000    1.0080
  197        CT    1  MOL    C197   197  -0.1200000   12.0115
  198        CT    1  MOL    C198   198  -0.0600000   12.0115
  199       CO4    1  MOL    C199   199   0.5100000   12.0115
  200         O    1  MOL    O200   200  -0.4300000   15.9994
  201       OES    1  MOL    O201   201  -0.3300000   15.9994
  202        CT    1  MOL    C202   202   0.1900000   12.0115
  203        CT    1  MOL    C203   203  -0.1800000   12.0115
  204        HC    1  MOL    H204   204   0.0600000    1.0080
  205        HC    1  MOL    H205   205   0.0600000    1.0080
  206       HAE    1  MOL    H206   206   0.0600000    1.0080
  207       HAE    1  MOL    H207   207   0.0300000    1.0080
  208       HAE    1  MOL    H208   208   0.0300000    1.0080
  209        HC    1  MOL    H209   209   0.0600000    1.0080
  210        HC    1  MOL    H210   210   0.0600000    1.0080
  211        HC    1  MOL    H211   211   0.0600000    1.0080
  212        CT    1  MOL    C212   212  -0.1200000   12.0115
  213        CT    1  MOL    C213   213  -0.0600000   12.0115
  214       CO4    1  MOL    C214   214   0.5100000   12.0115
  215         O    1  MOL    O215   215  -0.4300000   15.9994
  216       OES    1  MOL    O216   216  -0.3300000   15.9994
  217        CT    1  MOL    C217   217   0.1900000   12.0115
  218        CT    1  MOL    C218   218  -0.1800000   12.0115
  219        HC    1  MOL    H219   219   0.0600000    1.0080
  220        HC    1  MOL    H220   220   0.0600000    1.0080
  221       HAE    1  MOL    H221   221   0.0600000    1.0080
  222       HAE    1  MOL    H222   222   0.0300000    1.0080
  223       HAE    1  MOL    H223   223   0.0300000    1.0080
  224        HC    1  MOL    H224   224   0.0600000    1.0080
  225        HC    1  MOL    H225   225   0.0600000    1.0080
  226        HC    1  MOL    H226   226   0.0600000    1.0080
  227        CT    1  MOL    C227   227  -0.1200000   12.0115
  228        CT    1  MOL    C228   228  -0.0600000   12.0115
  229       CO4    1  MOL    C229   229   0.5100000   12.0115
  230         O    1  MOL    O230   230  -0.4300000   15.9994
  231       OES    1  MOL    O231   231  -0.3300000   15.9994
  232        CT    1  MOL    C232   232   0.1900000   12.0115
  233        CT    1  MOL    C233   233  -0.1800000   12.0115
  234        HC    1  MOL    H234   234   0.0600000    1.0080
  235        HC    1  MOL    H235   235   0.0600000    1.0080
  236       HAE    1  MOL    H236   236   0.0600000    1.0080
  237       HAE    1  MOL    H237   237   0.0300000    1.0080
  238       HAE    1  MOL    H238   238   0.0300000    1.0080
  239        HC    1  MOL    H239   239   0.0600000    1.0080
  240        HC    1  MOL    H240   240   0.0600000    1.0080
  241        HC    1  MOL    H241   241   0.0600000    1.0080
  242        CT    1  MOL    C242   242  -0.1200000   12.0115
  243        CT    1  MOL    C243   243  -0.0600000   12.0115
  244       CO4    1  MOL    C244   244   0.5100000   12.0115
  245         O    1  MOL    O245   245  -0.4300000   15.9994
  246       OES    1  MOL    O246   246  -0.3300000   15.9994
  247        CT    1  MOL    C247   247   0.1900000   12.0115
  248        CT    1  MOL    C248   248  -0.1800000   12.0115
  249        HC    1  MOL    H249   249   0.0600000    1.0080
  250        HC    1  MOL    H250   250   0.0600000    1.0080
  251       HAE    1  MOL    H251   251   0.0600000    1.0080
  252       HAE    1  MOL    H252   252   0.0300000    1.0080
  253       HAE    1  MOL    H253   253   0.0300000    1.0080
  254        HC    1  MOL    H254   254   0.0600000    1.0080
  255        HC    1  MOL    H255   255   0.0600000    1.0080
  256        HC    1  MOL    H256   256   0.0600000    1.0080
  257        CT    1  MOL    C257   257  -0.1200000   12.0115
  258        CT    1  MOL    C258   258  -0.0600000   12.0115
  259       CO4    1  MOL    C259   259   0.5100000   12.0115
  260         O    1  MOL    O260   260  -0.4300000   15.9994
  261       OES    1  MOL    O261   261  -0.3300000   15.9994
  262        CT    1  MOL    C262   262   0.1900000   12.0115
  263        CT    1  MOL    C263   263  -0.1800000   12.0115
  264        HC    1  MOL    H264   264   0.0600000    1.0080
  265        HC    1  MOL    H265   265   0.0600000    1.0080
  266       HAE    1  MOL    H266   266   0.0600000    1.0080
  267       HAE    1  MOL    H267   267   0.0300000    1.0080
  268       HAE    1  MOL    H268   268   0.0300000    1.0080
  269        HC    1  MOL    H269   269   0.0600000    1.0080
  270        HC    1  MOL    H270   270   0.0600000    1.0080
  271        HC    1  MOL    H271   271   0.0600000    1.0080
  272        CT    1  MOL    C272   272  -0.1200000   12.0115
  273        CT    1  MOL    C273   273  -0.0600000   12.0115
  274       CO4    1  MOL    C274   274   0.5100000   12.0115
  275         O    1  MOL    O275   275  -0.4300000   15.9994
  276       OES    1  MOL    O276   276  -0.3300000   15.9994
  277        CT    1  MOL    C277   277   0.1900000   12.0115
  278        CT    1  MOL    C278   278  -0.1800000   12.0115
  279        HC    1  MOL    H279   279   0.0600000    1.0080
  280        HC    1  MOL    H280   280   0.0600000    1.0080
  281       HAE    1  MOL    H281   281   0.0600000    1.0080
  282       HAE    1  MOL    H282   282   0.0300000    1.0080
  283       HAE    1  MOL    H283   283   0.0300000    1.0080
  284        HC    1  MOL    H284   284   0.0600000    1.0080
  285        HC    1  MOL    H285   285   0.0600000    1.0080
  286        HC    1  MOL    H286   286   0.0600000    1.0080
  287        CT    1  MOL    C287   287  -0.1200000   12.0115
  288        CT    1  MOL    C288   288  -0.1200000   12.0115
  289       CO4    1  MOL    C289   289   0.5100000   12.0115
  290         O    1  MOL    O290   290  -0.4300000   15.9994
  291       OES    1  MOL    O291   291  -0.3300000   15.9994
  292        CT    1  MOL    C292   292   0.1900000   12.0115
  293        CT    1  MOL    C293   293  -0.1800000   12.0115
  294        HC    1  MOL    H294   294   0.0600000    1.0080
  295        HC    1  MOL    H295   295   0.0600000    1.0080
  296       HAE    1  MOL    H296   296   0.0600000    1.0080
  297       HAE    1  MOL    H297   297   0.0300000    1.0080
  298       HAE    1  MOL    H298   298   0.0300000    1.0080
  299        HC    1  MOL    H299   299   0.0600000    1.0080
  300        HC    1  MOL    H300   300   0.0600000    1.0080
  301        HC    1  MOL    H301   301   0.0600000    1.0080
  302       HAE    1  MOL    H302   302   0.0600000    1.0080

[ bonds ]
      1      2   1      0.1529 224262.4000
      1      8   1      0.1090 284512.0000
      1      9   1      0.1090 284512.0000
      1     16   1      0.1090 284512.0000
      2      3   1      0.1522 265265.6000
      2     10   1      0.1090 284512.0000
      2     17   1      0.1529 224262.4000
      3      4   1      0.1229 476976.0000
      3      5   1      0.1327 179075.2000
      5      6   1      0.1410 267776.0000
      6      7   1      0.1529 224262.4000
      6     11   1      0.1090 284512.0000
      6     12   1      0.1090 284512.0000
      7     13   1      0.1090 284512.0000
      7     14   1      0.1090 284512.0000
      7     15   1      0.1090 284512.0000
     17     18   1      0.1529 224262.4000
     17     24   1      0.1090 284512.0000
     17     25   1      0.1090 284512.0000
     18     19   1      0.1522 265265.6000
     18     26   1      0.1090 284512.0000
     18     32   1      0.1529 224262.4000
     19     20   1      0.1229 476976.0000
     19     21   1      0.1327 179075.2000
     21     22   1      0.1410 267776.0000
     22     23   1      0.1529 224262.4000
     22     27   1      0.1090 284512.0000
     22     28   1      0.1090 284512.0000
     23     29   1      0.1090 284512.0000
     23     30   1      0.1090 284512.0000
     23     31   1      0.1090 284512.0000
     32     33   1      0.1529 224262.4000
     32     39   1      0.1090 284512.0000
     32     40   1      0.1090 284512.0000
     33     34   1      0.1522 265265.6000
     33     41   1      0.1090 284512.0000
     33     47   1      0.1529 224262.4000
     34     35   1      0.1229 476976.0000
     34     36   1      0.1327 179075.2000
     36     37   1      0.1410 267776.0000
     37     38   1      0.1529 224262.4000
     37     42   1      0.1090 284512.0000
     37     43   1      0.1090 284512.0000
     38     44   1      0.1090 284512.0000
     38     45   1      0.1090 284512.0000
     38     46   1      0.1090 284512.0000
     47     48   1      0.1529 224262.4000
     47     54   1      0.1090 284512.0000
     47     55   1      0.1090 284512.0000
     48     49   1      0.1522 265265.6000
     48     56   1      0.1090 284512.0000
     48     62   1      0.1529 224262.4000
     49     50   1      0.1229 476976.0000
     49     51   1      0.1327 179075.2000
     51     52   1      0.1410 267776.0000
     52     53   1      0.1529 224262.4000
     52     57   1      0.1090 284512.0000
     52     58   1      0.1090 284512.0000
     53     59   1      0.1090 284512.0000
     53     60   1      0.1090 284512.0000
     53     61   1      0.1090 284512.0000
     62     63   1      0.1529 224262.4000
     62     69   1      0.1090 284512.0000
     62     70   1      0.1090 284512.0000
     63     64   1      0.1522 265265.6000
     63     71   1      0.1090 284512.0000
     63     77   1      0.1529 224262.4000
     64     65   1      0.1229 476976.0000
     64     66   1      0.1327 179075.2000
     66     67   1      0.1410 267776.0000
     67     68   1      0.1529 224262.4000
     67     72   1      0.1090 284512.0000
     67     73   1      0.1090 284512.0000
     68     74   1      0.1090 284512.0000
     68     75   1      0.1090 284512.0000
     68     76   1      0.1090 284512.0000
     77     78   1      0.1529 224262.4000
     77     84   1      0.1090 284512.0000
     77     85   1      0.1090 284512.0000
     78     79   1      0.1522 265265.6000
     78     86   1      0.1090 284512.0000
     78     92   1      0.1529 224262.4000
     79     80   1      0.1229 476976.0000
     79     81   1      0.1327 179075.2000
     81     82   1      0.1410 267776.0000
     82     83   1      0.1529 224262.4000
     82     87   1      0.1090 284512.0000
     82     88   1      0.1090 284512.0000
     83     89   1      0.1090 284512.0000
     83     90   1      0.1090 284512.0000
     83     91   1      0.1090 284512.0000
     92     93   1      0.1529 224262.4000
     92     99   1      0.1090 284512.0000
     92    100   1      0.1090 284512.0000
     93     94   1      0.1522 265265.6000
     93    101   1      0.1090 284512.0000
     93    107   1      0.1529 224262.4000
     94     95   1      0.1229 476976.0000
     94     96   1      0.1327 179075.2000
     96     97   1      0.1410 267776.0000
     97     98   1      0.1529 224262.4000
     97    102   1      0.1090 284512.0000
     97    103   1      0.1090 284512.0000
     98    104   1      0.1090 284512.0000
     98    105   1      0.1090 284512.0000
     98    106   1      0.1090 284512.0000
    107    108   1      0.1529 224262.4000
    107    114   1      0.1090 284512.0000
    107    115   1      0.1090 284512.0000
    108    109   1      0.1522 265265.6000
    108    116   1      0.1090 284512.0000
    108    122   1      0.1529 224262.4000
    109    110   1      0.1229 476976.0000
    109    111   1      0.1327 179075.2000
    111    112   1      0.1410 267776.0000
    112    113   1      0.1529 224262.4000
    112    117   1      0.1090 284512.0000
    112    118   1      0.1090 284512.0000
    113    119   1      0.1090 284512.0000
    113    120   1      0.1090 284512.0000
    113    121   1      0.1090 284512.0000
    122    123   1      0.1529 224262.4000
    122    129   1      0.1090 284512.0000
    122    130   1      0.1090 284512.0000
    123    124   1      0.1522 265265.6000
    123    131   1      0.1090 284512.0000
    123    137   1      0.1529 224262.4000
    124    125   1      0.1229 476976.0000
    124    126   1      0.1327 179075.2000
    126    127   1      0.1410 267776.0000
    127    128   1      0.1529 224262.4000
    127    132   1      0.1090 284512.0000
    127    133   1      0.1090 284512.0000
    128    134   1      0.1090 284512.0000
    128    135   1      0.1090 284512.0000
    128    136   1      0.1090 284512.0000
    137    138   1      0.1529 224262.4000
    137    144   1      0.1090 284512.0000
    137    145   1      0.1090 284512.0000
    138    139   1      0.1522 265265.6000
    138    146   1      0.1090 284512.0000
    138    152   1      0.1529 224262.4000
    139    140   1      0.1229 476976.0000
    139    141   1      0.1327 179075.2000
    141    142   1      0.1410 267776.0000
    142    143   1      0.1529 224262.4000
    142    147   1      0.1090 284512.0000
    142    148   1      0.1090 284512.0000
    143    149   1      0.1090 284512.0000
    143    150   1      0.1090 284512.0000
    143    151   1      0.1090 284512.0000
    152    153   1      0.1529 224262.4000
    152    159   1      0.1090 284512.0000
    152    160   1      0.1090 284512.0000
    153    154   1      0.1522 265265.6000
    153    161   1      0.1090 284512.0000
    153    167   1      0.1529 224262.4000
    154    155   1      0.1229 476976.0000
    154    156   1      0.1327 179075.2000
    156    157   1      0.1410 267776.0000
    157    158   1      0.1529 224262.4000
    157    162   1      0.1090 284512.0000
    157    163   1      0.1090 284512.0000
    158    164   1      0.1090 284512.0000
    158    165   1      0.1090 284512.0000
    158    166   1      0.1090 284512.0000
    167    168   1      0.1529 224262.4000
    167    174   1      0.1090 284512.0000
    167    175   1      0.1090 284512.0000
    168    169   1      0.1522 265265.6000
    168    176   1      0.1090 284512.0000
    168    182   1      0.1529 224262.4000
    169    170   1      0.1229 476976.0000
    169    171   1      0.1327 179075.2000
    171    172   1      0.1410 267776.0000
    172    173   1      0.1529 224262.4000
    172    177   1      0.1090 284512.0000
    172    178   1      0.1090 284512.0000
    173    179   1      0.1090 284512.0000
    173    180   1      0.1090 284512.0000
    173    181   1      0.1090 284512.0000
    182    183   1      0.1529 224262.4000
    182    189   1      0.1090 284512.0000
    182    190   1      0.1090 284512.0000
    183    184   1      0.1522 265265.6000
    183    191   1      0.1090 284512.0000
    183    197   1      0.1529 224262.4000
    184    185   1      0.1229 476976.0000
    184    186   1      0.1327 179075.2000
    186    187   1      0.1410 267776.0000
    187    188   1      0.1529 224262.4000
    187    192   1      0.1090 284512.0000
    187    193   1      0.1090 284512.0000
    188    194   1      0.1090 284512.0000
    188    195   1      0.1090 284512.0000
    188    196   1      0.1090 284512.0000
    197    198   1      0.1529 224262.4000
    197    204   1      0.1090 284512.0000
    197    205   1      0.1090 284512.0000
    198    199   1      0.1522 265265.6000
    198    206   1      0.1090 284512.0000
    198    212   1      0.1529 224262.4000
    199    200   1      0.1229 476976.0000
    199    201   1      0.1327 179075.2000
    201    202   1      0.1410 267776.0000
    202    203   1      0.1529 224262.4000
    202    207   1      0.1090 284512.0000
    202    208   1      0.1090 284512.0000
    203    209   1      0.1090 284512.0000
    203    210   1      0.1090 284512.0000
    203    211   1      0.1090 284512.0000
    212    213   1      0.1529 224262.4000
    212    219   1      0.1090 284512.0000
    212    220   1      0.1090 284512.0000
    213    214   1      0.1522 265265.6000
    213    221   1      0.1090 284512.0000
    213    227   1      0.1529 224262.4000
    214    215   1      0.1229 476976.0000
    214    216   1      0.1327 179075.2000
    216    217   1      0.1410 267776.0000
    217    218   1      0.1529 224262.4000
    217    222   1      0.1090 284512.0000
    217    223   1      0.1090 284512.0000
    218    224   1      0.1090 284512.0000
    218    225   1      0.1090 284512.0000
    218    226   1      0.1090 284512.0000
    227    228   1      0.1529 224262.4000
    227    234   1      0.1090 284512.0000
    227    235   1      0.1090 284512.0000
    228    229   1      0.1522 265265.6000
    228    236   1      0.1090 284512.0000
    228    242   1      0.1529 224262.4000
    229    230   1      0.1229 476976.0000
    229    231   1      0.1327 179075.2000
    231    232   1      0.1410 267776.0000
    232    233   1      0.1529 224262.4000
    232    237   1      0.1090 284512.0000
    232    238   1      0.1090 284512.0000
    233    239   1      0.1090 284512.0000
    233    240   1      0.1090 284512.0000
    233    241   1      0.1090 284512.0000
    242    243   1      0.1529 224262.4000
    242    249   1      0.1090 284512.0000
    242    250   1      0.1090 284512.0000
    243    244   1      0.1522 265265.6000
    243    251   1      0.1090 284512.0000
    243    257   1      0.1529 224262.4000
    244    245   1      0.1229 476976.0000
    244    246   1      0.1327 179075.2000
    246    247   1      0.1410 267776.0000
    247    248   1      0.1529 224262.4000
    247    252   1      0.1090 284512.0000
    247    253   1      0.1090 284512.0000
    248    254   1      0.1090 284512.0000
    248    255   1      0.1090 284512.0000
    248    256   1      0.1090 284512.0000
    257    258   1      0.1529 224262.4000
    257    264   1      0.1090 284512.0000
    257    265   1      0.1090 284512.0000
    258    259   1      0.1522 265265.6000
    258    266   1      0.1090 284512.0000
    258    272   1      0.1529 224262.4000
    259    260   1      0.1229 476976.0000
    259    261   1      0.1327 179075.2000
    261    262   1      0.1410 267776.0000
    262    263   1      0.1529 224262.4000
    262    267   1      0.1090 284512.0000
    262    268   1      0.1090 284512.0000
    263    269   1      0.1090 284512.0000
    263    270   1      0.1090 284512.0000
    263    271   1      0.1090 284512.0000
    272    273   1      0.1529 224262.4000
    272    279   1      0.1090 284512.0000
    272    280   1      0.1090 284512.0000
    273    274   1      0.1522 265265.6000
    273    281   1      0.1090 284512.0000
    273    287   1      0.1529 224262.4000
    274    275   1      0.1229 476976.0000
    274    276   1      0.1327 179075.2000
    276    277   1      0.1410 267776.0000
    277    278   1      0.1529 224262.4000
    277    282   1      0.1090 284512.0000
    277    283   1      0.1090 284512.0000
    278    284   1      0.1090 284512.0000
    278    285   1      0.1090 284512.0000
    278    286   1      0.1090 284512.0000
    287    288   1      0.1529 224262.4000
    287    294   1      0.1090 284512.0000
    287    295   1      0.1090 284512.0000
    288    289   1      0.1522 265265.6000
    288    296   1      0.1090 284512.0000
    288    302   1      0.1090 284512.0000
    289    290   1      0.1229 476976.0000
    289    291   1      0.1327 179075.2000
    291    292   1      0.1410 267776.0000
    292    293   1      0.1529 224262.4000
    292    297   1      0.1090 284512.0000
    292    298   1      0.1090 284512.0000
    293    299   1      0.1090 284512.0000
    293    300   1      0.1090 284512.0000
    293    301   1      0.1090 284512.0000

[ pairs ]
; ai   aj   funct   fudge_QQ  charge_i   charge_j   c6    c12
      8      3   2   0.50000     0.0600000    0.5100000   3.869820e-04  3.188634e-07
      8     10   2   0.50000     0.0600000    0.0600000   3.930919e-05  8.704828e-09
      8     17   2   0.50000     0.0600000   -0.1200000   2.494471e-04  1.671101e-07
      9      3   2   0.50000     0.0600000    0.5100000   3.869820e-04  3.188634e-07
      9     10   2   0.50000     0.0600000    0.0600000   3.930919e-05  8.704828e-09
      9     17   2   0.50000     0.0600000   -0.1200000   2.494471e-04  1.671101e-07
     16      3   2   0.50000     0.0600000    0.5100000   3.869820e-04  3.188634e-07
     16     10   2   0.50000     0.0600000    0.0600000   3.930919e-05  8.704828e-09
     16     17   2   0.50000     0.0600000   -0.1200000   2.494471e-04  1.671101e-07
      1      4   2   0.50000    -0.1800000   -0.4300000   1.095425e-03  1.218041e-06
      1      5   2   0.50000    -0.1800000   -0.3300000   1.026091e-03  1.187829e-06
     10      4   2   0.50000     0.0600000   -0.4300000   1.726228e-04  6.344822e-08
     10      5   2   0.50000     0.0600000   -0.3300000   1.616969e-04  6.187447e-08
     17      4   2   0.50000    -0.1200000   -0.4300000   1.095425e-03  1.218041e-06
     17      5   2   0.50000    -0.1200000   -0.3300000   1.026091e-03  1.187829e-06
      1     18   2   0.50000    -0.1800000   -0.0600000   1.015252e-03  1.866303e-06
      1     24   2   0.50000    -0.1800000    0.0600000   2.494471e-04  1.671101e-07
      1     25   2   0.50000    -0.1800000    0.0600000   2.494471e-04  1.671101e-07
      3     18   2   0.50000     0.5100000   -0.0600000   1.575021e-03  3.561100e-06
      3     24   2   0.50000     0.5100000    0.0600000   3.869820e-04  3.188634e-07
      3     25   2   0.50000     0.5100000    0.0600000   3.869820e-04  3.188634e-07
     10     18   2   0.50000     0.0600000   -0.0600000   1.599888e-04  9.721644e-08
     10     24   2   0.50000     0.0600000    0.0600000   3.930919e-05  8.704828e-09
     10     25   2   0.50000     0.0600000    0.0600000   3.930919e-05  8.704828e-09
      2      6   2   0.50000    -0.0600000    0.1900000   1.015252e-03  1.866303e-06
      4      6   2   0.50000    -0.4300000    0.1900000   1.095425e-03  1.218041e-06
      3      7   2   0.50000     0.5100000   -0.1800000   1.575021e-03  3.561100e-06
      3     11   2   0.50000     0.5100000    0.0300000   2.482000e-04  1.854991e-07
      3     12   2   0.50000     0.5100000    0.0300000   2.482000e-04  1.854991e-07
      5     13   2   0.50000    -0.3300000    0.0600000   2.521103e-04  1.063590e-07
      5     14   2   0.50000    -0.3300000    0.0600000   2.521103e-04  1.063590e-07
      5     15   2   0.50000    -0.3300000    0.0600000   2.521103e-04  1.063590e-07
     11     13   2   0.50000     0.0300000    0.0600000   3.930919e-05  8.704828e-09
     11     14   2   0.50000     0.0300000    0.0600000   3.930919e-05  8.704828e-09
     11     15   2   0.50000     0.0300000    0.0600000   3.930919e-05  8.704828e-09
     12     13   2   0.50000     0.0300000    0.0600000   3.930919e-05  8.704828e-09
     12     14   2   0.50000     0.0300000    0.0600000   3.930919e-05  8.704828e-09
     12     15   2   0.50000     0.0300000    0.0600000   3.930919e-05  8.704828e-09
      2     19   2   0.50000    -0.0600000    0.5100000   1.575021e-03  3.561100e-06
      2     26   2   0.50000    -0.0600000    0.0600000   1.599888e-04  9.721644e-08
      2     32   2   0.50000    -0.0600000   -0.1200000   1.015252e-03  1.866303e-06
     24     19   2   0.50000     0.0600000    0.5100000   3.869820e-04  3.188634e-07
     24     26   2   0.50000     0.0600000    0.0600000   3.930919e-05  8.704828e-09
     24     32   2   0.50000     0.0600000   -0.1200000   2.494471e-04  1.671101e-07
     25     19   2   0.50000     0.0600000    0.5100000   3.869820e-04  3.188634e-07
     25     26   2   0.50000     0.0600000    0.0600000   3.930919e-05  8.704828e-09
     25     32   2   0.50000     0.0600000   -0.1200000   2.494471e-04  1.671101e-07
     17     20   2   0.50000    -0.1200000   -0.4300000   1.095425e-03  1.218041e-06
     17     21   2   0.50000    -0.1200000   -0.3300000   1.026091e-03  1.187829e-06
     26     20   2   0.50000     0.0600000   -0.4300000   1.726228e-04  6.344822e-08
     26     21   2   0.50000     0.0600000   -0.3300000   1.616969e-04  6.187447e-08
     32     20   2   0.50000    -0.1200000   -0.4300000   1.095425e-03  1.218041e-06
     32     21   2   0.50000    -0.1200000   -0.3300000   1.026091e-03  1.187829e-06
     17     33   2   0.50000    -0.1200000   -0.0600000   1.015252e-03  1.866303e-06
     17     39   2   0.50000    -0.1200000    0.0600000   2.494471e-04  1.671101e-07
     17     40   2   0.50000    -0.1200000    0.0600000   2.494471e-04  1.671101e-07
     19     33   2   0.50000     0.5100000   -0.0600000   1.575021e-03  3.561100e-06
     19     39   2   0.50000     0.5100000    0.0600000   3.869820e-04  3.188634e-07
     19     40   2   0.50000     0.5100000    0.0600000   3.869820e-04  3.188634e-07
     26     33   2   0.50000     0.0600000   -0.0600000   1.599888e-04  9.721644e-08
     26     39   2   0.50000     0.0600000    0.0600000   3.930919e-05  8.704828e-09
     26     40   2   0.50000     0.0600000    0.0600000   3.930919e-05  8.704828e-09
     18     22   2   0.50000    -0.0600000    0.1900000   1.015252e-03  1.866303e-06
     20     22   2   0.50000    -0.4300000    0.1900000   1.095425e-03  1.218041e-06
     19     23   2   0.50000     0.5100000   -0.1800000   1.575021e-03  3.561100e-06
     19     27   2   0.50000     0.5100000    0.0300000   2.482000e-04  1.854991e-07
     19     28   2   0.50000     0.5100000    0.0300000   2.482000e-04  1.854991e-07
     21     29   2   0.50000    -0.3300000    0.0600000   2.521103e-04  1.063590e-07
     21     30   2   0.50000    -0.3300000    0.0600000   2.521103e-04  1.063590e-07
     21     31   2   0.50000    -0.3300000    0.0600000   2.521103e-04  1.063590e-07
     27     29   2   0.50000     0.0300000    0.0600000   3.930919e-05  8.704828e-09
     27     30   2   0.50000     0.0300000    0.0600000   3.930919e-05  8.704828e-09
     27     31   2   0.50000     0.0300000    0.0600000   3.930919e-05  8.704828e-09
     28     29   2   0.50000     0.0300000    0.0600000   3.930919e-05  8.704828e-09
     28     30   2   0.50000     0.0300000    0.0600000   3.930919e-05  8.704828e-09
     28     31   2   0.50000     0.0300000    0.0600000   3.930919e-05  8.704828e-09
     18     34   2   0.50000    -0.0600000    0.5100000   1.575021e-03  3.561100e-06
     18     41   2   0.50000    -0.0600000    0.0600000   1.599888e-04  9.721644e-08
     18     47   2   0.50000    -0.0600000   -0.1200000   1.015252e-03  1.866303e-06
     39     34   2   0.50000     0.0600000    0.5100000   3.869820e-04  3.188634e-07
     39     41   2   0.50000     0.0600000    0.0600000   3.930919e-05  8.704828e-09
     39     47   2   0.50000     0.0600000   -0.1200000   2.494471e-04  1.671101e-07
     40     34   2   0.50000     0.0600000    0.5100000   3.869820e-04  3.188634e-07
     40     41   2   0.50000     0.0600000    0.0600000   3.930919e-05  8.704828e-09
     40     47   2   0.50000     0.0600000   -0.1200000   2.494471e-04  1.671101e-07
     32     35   2   0.50000    -0.1200000   -0.4300000   1.095425e-03  1.218041e-06
     32     36   2   0.50000    -0.1200000   -0.3300000   1.026091e-03  1.187829e-06
     41     35   2   0.50000     0.0600000   -0.4300000   1.726228e-04  6.344822e-08
     41     36   2   0.50000     0.0600000   -0.3300000   1.616969e-04  6.187447e-08
     47     35   2   0.50000    -0.1200000   -0.4300000   1.095425e-03  1.218041e-06
     47     36   2   0.50000    -0.1200000   -0.3300000   1.026091e-03  1.187829e-06
     32     48   2   0.50000    -0.1200000   -0.0600000   1.015252e-03  1.866303e-06
     32     54   2   0.50000    -0.1200000    0.0600000   2.494471e-04  1.671101e-07
     32     55   2   0.50000    -0.1200000    0.0600000   2.494471e-04  1.671101e-07
     34     48   2   0.50000     0.5100000   -0.0600000   1.575021e-03  3.561100e-06
     34     54   2   0.50000     0.5100000    0.0600000   3.869820e-04  3.188634e-07
     34     55   2   0.50000     0.5100000    0.0600000   3.869820e-04  3.188634e-07
     41     48   2   0.50000     0.0600000   -0.0600000   1.599888e-04  9.721644e-08
     41     54   2   0.50000     0.0600000    0.0600000   3.930919e-05  8.704828e-09
     41     55   2   0.50000     0.0600000    0.0600000   3.930919e-05  8.704828e-09
     33     37   2   0.50000    -0.0600000    0.1900000   1.015252e-03  1.866303e-06
     35     37   2   0.50000    -0.4300000    0.1900000   1.095425e-03  1.218041e-06
     34     38   2   0.50000     0.5100000   -0.1800000   1.575021e-03  3.561100e-06
     34     42   2   0.50000     0.5100000    0.0300000   2.482000e-04  1.854991e-07
     34     43   2   0.50000     0.5100000    0.0300000   2.482000e-04  1.854991e-07
     36     44   2   0.50000    -0.3300000    0.0600000   2.521103e-04  1.063590e-07
     36     45   2   0.50000    -0.3300000    0.0600000   2.521103e-04  1.063590e-07
     36     46   2   0.50000    -0.3300000    0.0600000   2.521103e-04  1.063590e-07
     42     44   2   0.50000     0.0300000    0.0600000   3.930919e-05  8.704828e-09
     42     45   2   0.50000     0.0300000    0.0600000   3.930919e-05  8.704828e-09
     42     46   2   0.50000     0.0300000    0.0600000   3.930919e-05  8.704828e-09
     43     44   2   0.50000     0.0300000    0.0600000   3.930919e-05  8.704828e-09
     43     45   2   0.50000     0.0300000    0.0600000   3.930919e-05  8.704828e-09
     43     46   2   0.50000     0.0300000    0.0600000   3.930919e-05  8.704828e-09
     33     49   2   0.50000    -0.0600000    0.5100000   1.575021e-03  3.561100e-06
     33     56   2   0.50000    -0.0600000    0.0600000   1.599888e-04  9.721644e-08
     33     62   2   0.50000    -0.0600000   -0.1200000   1.015252e-03  1.866303e-06
     54     49   2   0.50000     0.0600000    0.5100000   3.869820e-04  3.188634e-07
     54     56   2   0.50000     0.0600000    0.0600000   3.930919e-05  8.704828e-09
     54     62   2   0.50000     0.0600000   -0.1200000   2.494471e-04  1.671101e-07
     55     49   2   0.50000     0.0600000    0.5100000   3.869820e-04  3.188634e-07
     55     56   2   0.50000     0.0600000    0.0600000   3.930919e-05  8.704828e-09
     55     62   2   0.50000     0.0600000   -0.1200000   2.494471e-04  1.671101e-07
     47     50   2   0.50000    -0.1200000   -0.4300000   1.095425e-03  1.218041e-06
     47     51   2   0.50000    -0.1200000   -0.3300000   1.026091e-03  1.187829e-06
     56     50   2   0.50000     0.0600000   -0.4300000   1.726228e-04  6.344822e-08
     56     51   2   0.50000     0.0600000   -0.3300000   1.616969e-04  6.187447e-08
     62     50   2   0.50000    -0.1200000   -0.4300000   1.095425e-03  1.218041e-06
     62     51   2   0.50000    -0.1200000   -0.3300000   1.026091e-03  1.187829e-06
     47     63   2   0.50000    -0.1200000   -0.0600000   1.015252e-03  1.866303e-06
     47     69   2   0.50000    -0.1200000    0.0600000   2.494471e-04  1.671101e-07
     47     70   2   0.50000    -0.1200000    0.0600000   2.494471e-04  1.671101e-07
     49     63   2   0.50000     0.5100000   -0.0600000   1.575021e-03  3.561100e-06
     49     69   2   0.50000     0.5100000    0.0600000   3.869820e-04  3.188634e-07
     49     70   2   0.50000     0.5100000    0.0600000   3.869820e-04  3.188634e-07
     56     63   2   0.50000     0.0600000   -0.0600000   1.599888e-04  9.721644e-08
     56     69   2   0.50000     0.0600000    0.0600000   3.930919e-05  8.704828e-09
     56     70   2   0.50000     0.0600000    0.0600000   3.930919e-05  8.704828e-09
     48     52   2   0.50000    -0.0600000    0.1900000   1.015252e-03  1.866303e-06
     50     52   2   0.50000    -0.4300000    0.1900000   1.095425e-03  1.218041e-06
     49     53   2   0.50000     0.5100000   -0.1800000   1.575021e-03  3.561100e-06
     49     57   2   0.50000     0.5100000    0.0300000   2.482000e-04  1.854991e-07
     49     58   2   0.50000     0.5100000    0.0300000   2.482000e-04  1.854991e-07
     51     59   2   0.50000    -0.3300000    0.0600000   2.521103e-04  1.063590e-07
     51     60   2   0.50000    -0.3300000    0.0600000   2.521103e-04  1.063590e-07
     51     61   2   0.50000    -0.3300000    0.0600000   2.521103e-04  1.063590e-07
     57     59   2   0.50000     0.0300000    0.0600000   3.930919e-05  8.704828e-09
     57     60   2   0.50000     0.0300000    0.0600000   3.930919e-05  8.704828e-09
     57     61   2   0.50000     0.0300000    0.0600000   3.930919e-05  8.704828e-09
     58     59   2   0.50000     0.0300000    0.0600000   3.930919e-05  8.704828e-09
     58     60   2   0.50000     0.0300000    0.0600000   3.930919e-05  8.704828e-09
     58     61   2   0.50000     0.0300000    0.0600000   3.930919e-05  8.704828e-09
     48     64   2   0.50000    -0.0600000    0.5100000   1.575021e-03  3.561100e-06
     48     71   2   0.50000    -0.0600000    0.0600000   1.599888e-04  9.721644e-08
     48     77   2   0.50000    -0.0600000   -0.1200000   1.015252e-03  1.866303e-06
     69     64   2   0.50000     0.0600000    0.5100000   3.869820e-04  3.188634e-07
     69     71   2   0.50000     0.0600000    0.0600000   3.930919e-05  8.704828e-09
     69     77   2   0.50000     0.0600000   -0.1200000   2.494471e-04  1.671101e-07
     70     64   2   0.50000     0.0600000    0.5100000   3.869820e-04  3.188634e-07
     70     71   2   0.50000     0.0600000    0.0600000   3.930919e-05  8.704828e-09
     70     77   2   0.50000     0.0600000   -0.1200000   2.494471e-04  1.671101e-07
     62     65   2   0.50000    -0.1200000   -0.4300000   1.095425e-03  1.218041e-06
     62     66   2   0.50000    -0.1200000   -0.3300000   1.026091e-03  1.187829e-06
     71     65   2   0.50000     0.0600000   -0.4300000   1.726228e-04  6.344822e-08
     71     66   2   0.50000     0.0600000   -0.3300000   1.616969e-04  6.187447e-08
     77     65   2   0.50000    -0.1200000   -0.4300000   1.095425e-03  1.218041e-06
     77     66   2   0.50000    -0.1200000   -0.3300000   1.026091e-03  1.187829e-06
     62     78   2   0.50000    -0.1200000   -0.0600000   1.015252e-03  1.866303e-06
     62     84   2   0.50000    -0.1200000    0.0600000   2.494471e-04  1.671101e-07
     62     85   2   0.50000    -0.1200000    0.0600000   2.494471e-04  1.671101e-07
     64     78   2   0.50000     0.5100000   -0.0600000   1.575021e-03  3.561100e-06
     64     84   2   0.50000     0.5100000    0.0600000   3.869820e-04  3.188634e-07
     64     85   2   0.50000     0.5100000    0.0600000   3.869820e-04  3.188634e-07
     71     78   2   0.50000     0.0600000   -0.0600000   1.599888e-04  9.721644e-08
     71     84   2   0.50000     0.0600000    0.0600000   3.930919e-05  8.704828e-09
     71     85   2   0.50000     0.0600000    0.0600000   3.930919e-05  8.704828e-09
     63     67   2   0.50000    -0.0600000    0.1900000   1.015252e-03  1.866303e-06
     65     67   2   0.50000    -0.4300000    0.1900000   1.095425e-03  1.218041e-06
     64     68   2   0.50000     0.5100000   -0.1800000   1.575021e-03  3.561100e-06
     64     72   2   0.50000     0.5100000    0.0300000   2.482000e-04  1.854991e-07
     64     73   2   0.50000     0.5100000    0.0300000   2.482000e-04  1.854991e-07
     66     74   2   0.50000    -0.3300000    0.0600000   2.521103e-04  1.063590e-07
     66     75   2   0.50000    -0.3300000    0.0600000   2.521103e-04  1.063590e-07
     66     76   2   0.50000    -0.3300000    0.0600000   2.521103e-04  1.063590e-07
     72     74   2   0.50000     0.0300000    0.0600000   3.930919e-05  8.704828e-09
     72     75   2   0.50000     0.0300000    0.0600000   3.930919e-05  8.704828e-09
     72     76   2   0.50000     0.0300000    0.0600000   3.930919e-05  8.704828e-09
     73     74   2   0.50000     0.0300000    0.0600000   3.930919e-05  8.704828e-09
     73     75   2   0.50000     0.0300000    0.0600000   3.930919e-05  8.704828e-09
     73     76   2   0.50000     0.0300000    0.0600000   3.930919e-05  8.704828e-09
     63     79   2   0.50000    -0.0600000    0.5100000   1.575021e-03  3.561100e-06
     63     86   2   0.50000    -0.0600000    0.0600000   1.599888e-04  9.721644e-08
     63     92   2   0.50000    -0.0600000   -0.1200000   1.015252e-03  1.866303e-06
     84     79   2   0.50000     0.0600000    0.5100000   3.869820e-04  3.188634e-07
     84     86   2   0.50000     0.0600000    0.0600000   3.930919e-05  8.704828e-09
     84     92   2   0.50000     0.0600000   -0.1200000   2.494471e-04  1.671101e-07
     85     79   2   0.50000     0.0600000    0.5100000   3.869820e-04  3.188634e-07
     85     86   2   0.50000     0.0600000    0.0600000   3.930919e-05  8.704828e-09
     85     92   2   0.50000     0.0600000   -0.1200000   2.494471e-04  1.671101e-07
     77     80   2   0.50000    -0.1200000   -0.4300000   1.095425e-03  1.218041e-06
     77     81   2   0.50000    -0.1200000   -0.3300000   1.026091e-03  1.187829e-06
     86     80   2   0.50000     0.0600000   -0.4300000   1.726228e-04  6.344822e-08
     86     81   2   0.50000     0.0600000   -0.3300000   1.616969e-04  6.187447e-08
     92     80   2   0.50000    -0.1200000   -0.4300000   1.095425e-03  1.218041e-06
     92     81   2   0.50000    -0.1200000   -0.3300000   1.026091e-03  1.187829e-06
     77     93   2   0.50000    -0.1200000   -0.0600000   1.015252e-03  1.866303e-06
     77     99   2   0.50000    -0.1200000    0.0600000   2.494471e-04  1.671101e-07
     77    100   2   0.50000    -0.1200000    0.0600000   2.494471e-04  1.671101e-07
     79     93   2   0.50000     0.5100000   -0.0600000   1.575021e-03  3.561100e-06
     79     99   2   0.50000     0.5100000    0.0600000   3.869820e-04  3.188634e-07
     79    100   2   0.50000     0.5100000    0.0600000   3.869820e-04  3.188634e-07
     86     93   2   0.50000     0.0600000   -0.0600000   1.599888e-04  9.721644e-08
     86     99   2   0.50000     0.0600000    0.0600000   3.930919e-05  8.704828e-09
     86    100   2   0.50000     0.0600000    0.0600000   3.930919e-05  8.704828e-09
     78     82   2   0.50000    -0.0600000    0.1900000   1.015252e-03  1.866303e-06
     80     82   2   0.50000    -0.4300000    0.1900000   1.095425e-03  1.218041e-06
     79     83   2   0.50000     0.5100000   -0.1800000   1.575021e-03  3.561100e-06
     79     87   2   0.50000     0.5100000    0.0300000   2.482000e-04  1.854991e-07
     79     88   2   0.50000     0.5100000    0.0300000   2.482000e-04  1.854991e-07
     81     89   2   0.50000    -0.3300000    0.0600000   2.521103e-04  1.063590e-07
     81     90   2   0.50000    -0.3300000    0.0600000   2.521103e-04  1.063590e-07
     81     91   2   0.50000    -0.3300000    0.0600000   2.521103e-04  1.063590e-07
     87     89   2   0.50000     0.0300000    0.0600000   3.930919e-05  8.704828e-09
     87     90   2   0.50000     0.0300000    0.0600000   3.930919e-05  8.704828e-09
     87     91   2   0.50000     0.0300000    0.0600000   3.930919e-05  8.704828e-09
     88     89   2   0.50000     0.0300000    0.0600000   3.930919e-05  8.704828e-09
     88     90   2   0.50000     0.0300000    0.0600000   3.930919e-05  8.704828e-09
     88     91   2   0.50000     0.0300000    0.0600000   3.930919e-05  8.704828e-09
     78     94   2   0.50000    -0.0600000    0.5100000   1.575021e-03  3.561100e-06
     78    101   2   0.50000    -0.0600000    0.0600000   1.599888e-04  9.721644e-08
     78    107   2   0.50000    -0.0600000   -0.1200000   1.015252e-03  1.866303e-06
     99     94   2   0.50000     0.0600000    0.5100000   3.869820e-04  3.188634e-07
     99    101   2   0.50000     0.0600000    0.0600000   3.930919e-05  8.704828e-09
     99    107   2   0.50000     0.0600000   -0.1200000   2.494471e-04  1.671101e-07
    100     94   2   0.50000     0.0600000    0.5100000   3.869820e-04  3.188634e-07
    100    101   2   0.50000     0.0600000    0.0600000   3.930919e-05  8.704828e-09
    100    107   2   0.50000     0.0600000   -0.1200000   2.494471e-04  1.671101e-07
     92     95   2   0.50000    -0.1200000   -0.4300000   1.095425e-03  1.218041e-06
     92     96   2   0.50000    -0.1200000   -0.3300000   1.026091e-03  1.187829e-06
    101     95   2   0.50000     0.0600000   -0.4300000   1.726228e-04  6.344822e-08
    101     96   2   0.50000     0.0600000   -0.3300000   1.616969e-04  6.187447e-08
    107     95   2   0.50000    -0.1200000   -0.4300000   1.095425e-03  1.218041e-06
    107     96   2   0.50000    -0.1200000   -0.3300000   1.026091e-03  1.187829e-06
     92    108   2   0.50000    -0.1200000   -0.0600000   1.015252e-03  1.866303e-06
     92    114   2   0.50000    -0.1200000    0.0600000   2.494471e-04  1.671101e-07
     92    115   2   0.50000    -0.1200000    0.0600000   2.494471e-04  1.671101e-07
     94    108   2   0.50000     0.5100000   -0.0600000   1.575021e-03  3.561100e-06
     94    114   2   0.50000     0.5100000    0.0600000   3.869820e-04  3.188634e-07
     94    115   2   0.50000     0.5100000    0.0600000   3.869820e-04  3.188634e-07
    101    108   2   0.50000     0.0600000   -0.0600000   1.599888e-04  9.721644e-08
    101    114   2   0.50000     0.0600000    0.0600000   3.930919e-05  8.704828e-09
    101    115   2   0.50000     0.0600000    0.0600000   3.930919e-05  8.704828e-09
     93     97   2   0.50000    -0.0600000    0.1900000   1.015252e-03  1.866303e-06
     95     97   2   0.50000    -0.4300000    0.1900000   1.095425e-03  1.218041e-06
     94     98   2   0.50000     0.5100000   -0.1800000   1.575021e-03  3.561100e-06
     94    102   2   0.50000     0.5100000    0.0300000   2.482000e-04  1.854991e-07
     94    103   2   0.50000     0.5100000    0.0300000   2.482000e-04  1.854991e-07
     96    104   2   0.50000    -0.3300000    0.0600000   2.521103e-04  1.063590e-07
     96    105   2   0.50000    -0.3300000    0.0600000   2.521103e-04  1.063590e-07
     96    106   2   0.50000    -0.3300000    0.0600000   2.521103e-04  1.063590e-07
    102    104   2   0.50000     0.0300000    0.0600000   3.930919e-05  8.704828e-09
    102    105   2   0.50000     0.0300000    0.0600000   3.930919e-05  8.704828e-09
    102    106   2   0.50000     0.0300000    0.0600000   3.930919e-05  8.704828e-09
    103    104   2   0.50000     0.0300000    0.0600000   3.930919e-05  8.704828e-09
    103    105   2   0.50000     0.0300000    0.0600000   3.930919e-05  8.704828e-09
    103    106   2   0.50000     0.0300000    0.0600000   3.930919e-05  8.704828e-09
     93    109   2   0.50000    -0.0600000    0.5100000   1.575021e-03  3.561100e-06
     93    116   2   0.50000    -0.0600000    0.0600000   1.599888e-04  9.721644e-08
     93    122   2   0.50000    -0.0600000   -0.1200000   1.015252e-03  1.866303e-06
    114    109   2   0.50000     0.0600000    0.5100000   3.869820e-04  3.188634e-07
    114    116   2   0.50000     0.0600000    0.0600000   3.930919e-05  8.704828e-09
    114    122   2   0.50000     0.0600000   -0.1200000   2.494471e-04  1.671101e-07
    115    109   2   0.50000     0.0600000    0.5100000   3.869820e-04  3.188634e-07
    115    116   2   0.50000     0.0600000    0.0600000   3.930919e-05  8.704828e-09
    115    122   2   0.50000     0.0600000   -0.1200000   2.494471e-04  1.671101e-07
    107    110   2   0.50000    -0.1200000   -0.4300000   1.095425e-03  1.218041e-06
    107    111   2   0.50000    -0.1200000   -0.3300000   1.026091e-03  1.187829e-06
    116    110   2   0.50000     0.0600000   -0.4300000   1.726228e-04  6.344822e-08
    116    111   2   0.50000     0.0600000   -0.3300000   1.616969e-04  6.187447e-08
    122    110   2   0.50000    -0.1200000   -0.4300000   1.095425e-03  1.218041e-06
    122    111   2   0.50000    -0.1200000   -0.3300000   1.026091e-03  1.187829e-06
    107    123   2   0.50000    -0.1200000   -0.0600000   1.015252e-03  1.866303e-06
    107    129   2   0.50000    -0.1200000    0.0600000   2.494471e-04  1.671101e-07
    107    130   2   0.50000    -0.1200000    0.0600000   2.494471e-04  1.671101e-07
    109    123   2   0.50000     0.5100000   -0.0600000   1.575021e-03  3.561100e-06
    109    129   2   0.50000     0.5100000    0.0600000   3.869820e-04  3.188634e-07
    109    130   2   0.50000     0.5100000    0.0600000   3.869820e-04  3.188634e-07
    116    123   2   0.50000     0.0600000   -0.0600000   1.599888e-04  9.721644e-08
    116    129   2   0.50000     0.0600000    0.0600000   3.930919e-05  8.704828e-09
    116    130   2   0.50000     0.0600000    0.0600000   3.930919e-05  8.704828e-09
    108    112   2   0.50000    -0.0600000    0.1900000   1.015252e-03  1.866303e-06
    110    112   2   0.50000    -0.4300000    0.1900000   1.095425e-03  1.218041e-06
    109    113   2   0.50000     0.5100000   -0.1800000   1.575021e-03  3.561100e-06
    109    117   2   0.50000     0.5100000    0.0300000   2.482000e-04  1.854991e-07
    109    118   2   0.50000     0.5100000    0.0300000   2.482000e-04  1.854991e-07
    111    119   2   0.50000    -0.3300000    0.0600000   2.521103e-04  1.063590e-07
    111    120   2   0.50000    -0.3300000    0.0600000   2.521103e-04  1.063590e-07
    111    121   2   0.50000    -0.3300000    0.0600000   2.521103e-04  1.063590e-07
    117    119   2   0.50000     0.0300000    0.0600000   3.930919e-05  8.704828e-09
    117    120   2   0.50000     0.0300000    0.0600000   3.930919e-05  8.704828e-09
    117    121   2   0.50000     0.0300000    0.0600000   3.930919e-05  8.704828e-09
    118    119   2   0.50000     0.0300000    0.0600000   3.930919e-05  8.704828e-09
    118    120   2   0.50000     0.0300000    0.0600000   3.930919e-05  8.704828e-09
    118    121   2   0.50000     0.0300000    0.0600000   3.930919e-05  8.704828e-09
    108    124   2   0.50000    -0.0600000    0.5100000   1.575021e-03  3.561100e-06
    108    131   2   0.50000    -0.0600000    0.0600000   1.599888e-04  9.721644e-08
    108    137   2   0.50000    -0.0600000   -0.1200000   1.015252e-03  1.866303e-06
    129    124   2   0.50000     0.0600000    0.5100000   3.869820e-04  3.188634e-07
    129    131   2   0.50000     0.0600000    0.0600000   3.930919e-05  8.704828e-09
    129    137   2   0.50000     0.0600000   -0.1200000   2.494471e-04  1.671101e-07
    130    124   2   0.50000     0.0600000    0.5100000   3.869820e-04  3.188634e-07
    130    131   2   0.50000     0.0600000    0.0600000   3.930919e-05  8.704828e-09
    130    137   2   0.50000     0.0600000   -0.1200000   2.494471e-04  1.671101e-07
    122    125   2   0.50000    -0.1200000   -0.4300000   1.095425e-03  1.218041e-06
    122    126   2   0.50000    -0.1200000   -0.3300000   1.026091e-03  1.187829e-06
    131    125   2   0.50000     0.0600000   -0.4300000   1.726228e-04  6.344822e-08
    131    126   2   0.50000     0.0600000   -0.3300000   1.616969e-04  6.187447e-08
    137    125   2   0.50000    -0.1200000   -0.4300000   1.095425e-03  1.218041e-06
    137    126   2   0.50000    -0.1200000   -0.3300000   1.026091e-03  1.187829e-06
    122    138   2   0.50000    -0.1200000   -0.0600000   1.015252e-03  1.866303e-06
    122    144   2   0.50000    -0.1200000    0.0600000   2.494471e-04  1.671101e-07
    122    145   2   0.50000    -0.1200000    0.0600000   2.494471e-04  1.671101e-07
    124    138   2   0.50000     0.5100000   -0.0600000   1.575021e-03  3.561100e-06
    124    144   2   0.50000     0.5100000    0.0600000   3.869820e-04  3.188634e-07
    124    145   2   0.50000     0.5100000    0.0600000   3.869820e-04  3.188634e-07
    131    138   2   0.50000     0.0600000   -0.0600000   1.599888e-04  9.721644e-08
    131    144   2   0.50000     0.0600000    0.0600000   3.930919e-05  8.704828e-09
    131    145   2   0.50000     0.0600000    0.0600000   3.930919e-05  8.704828e-09
    123    127   2   0.50000    -0.0600000    0.1900000   1.015252e-03  1.866303e-06
    125    127   2   0.50000    -0.4300000    0.1900000   1.095425e-03  1.218041e-06
    124    128   2   0.50000     0.5100000   -0.1800000   1.575021e-03  3.561100e-06
    124    132   2   0.50000     0.5100000    0.0300000   2.482000e-04  1.854991e-07
    124    133   2   0.50000     0.5100000    0.0300000   2.482000e-04  1.854991e-07
    126    134   2   0.50000    -0.3300000    0.0600000   2.521103e-04  1.063590e-07
    126    135   2   0.50000    -0.3300000    0.0600000   2.521103e-04  1.063590e-07
    126    136   2   0.50000    -0.3300000    0.0600000   2.521103e-04  1.063590e-07
    132    134   2   0.50000     0.0300000    0.0600000   3.930919e-05  8.704828e-09
    132    135   2   0.50000     0.0300000    0.0600000   3.930919e-05  8.704828e-09
    132    136   2   0.50000     0.0300000    0.0600000   3.930919e-05  8.704828e-09
    133    134   2   0.50000     0.0300000    0.0600000   3.930919e-05  8.704828e-09
    133    135   2   0.50000     0.0300000    0.0600000   3.930919e-05  8.704828e-09
    133    136   2   0.50000     0.0300000    0.0600000   3.930919e-05  8.704828e-09
    123    139   2   0.50000    -0.0600000    0.5100000   1.575021e-03  3.561100e-06
    123    146   2   0.50000    -0.0600000    0.0600000   1.599888e-04  9.721644e-08
    123    152   2   0.50000    -0.0600000   -0.1200000   1.015252e-03  1.866303e-06
    144    139   2   0.50000     0.0600000    0.5100000   3.869820e-04  3.188634e-07
    144    146   2   0.50000     0.0600000    0.0600000   3.930919e-05  8.704828e-09
    144    152   2   0.50000     0.0600000   -0.1200000   2.494471e-04  1.671101e-07
    145    139   2   0.50000     0.0600000    0.5100000   3.869820e-04  3.188634e-07
    145    146   2   0.50000     0.0600000    0.0600000   3.930919e-05  8.704828e-09
    145    152   2   0.50000     0.0600000   -0.1200000   2.494471e-04  1.671101e-07
    137    140   2   0.50000    -0.1200000   -0.4300000   1.095425e-03  1.218041e-06
    137    141   2   0.50000    -0.1200000   -0.3300000   1.026091e-03  1.187829e-06
    146    140   2   0.50000     0.0600000   -0.4300000   1.726228e-04  6.344822e-08
    146    141   2   0.50000     0.0600000   -0.3300000   1.616969e-04  6.187447e-08
    152    140   2   0.50000    -0.1200000   -0.4300000   1.095425e-03  1.218041e-06
    152    141   2   0.50000    -0.1200000   -0.3300000   1.026091e-03  1.187829e-06
    137    153   2   0.50000    -0.1200000   -0.0600000   1.015252e-03  1.866303e-06
    137    159   2   0.50000    -0.1200000    0.0600000   2.494471e-04  1.671101e-07
    137    160   2   0.50000    -0.1200000    0.0600000   2.494471e-04  1.671101e-07
    139    153   2   0.50000     0.5100000   -0.0600000   1.575021e-03  3.561100e-06
    139    159   2   0.50000     0.5100000    0.0600000   3.869820e-04  3.188634e-07
    139    160   2   0.50000     0.5100000    0.0600000   3.869820e-04  3.188634e-07
    146    153   2   0.50000     0.0600000   -0.0600000   1.599888e-04  9.721644e-08
    146    159   2   0.50000     0.0600000    0.0600000   3.930919e-05  8.704828e-09
    146    160   2   0.50000     0.0600000    0.0600000   3.930919e-05  8.704828e-09
    138    142   2   0.50000    -0.0600000    0.1900000   1.015252e-03  1.866303e-06
    140    142   2   0.50000    -0.4300000    0.1900000   1.095425e-03  1.218041e-06
    139    143   2   0.50000     0.5100000   -0.1800000   1.575021e-03  3.561100e-06
    139    147   2   0.50000     0.5100000    0.0300000   2.482000e-04  1.854991e-07
    139    148   2   0.50000     0.5100000    0.0300000   2.482000e-04  1.854991e-07
    141    149   2   0.50000    -0.3300000    0.0600000   2.521103e-04  1.063590e-07
    141    150   2   0.50000    -0.3300000    0.0600000   2.521103e-04  1.063590e-07
    141    151   2   0.50000    -0.3300000    0.0600000   2.521103e-04  1.063590e-07
    147    149   2   0.50000     0.0300000    0.0600000   3.930919e-05  8.704828e-09
    147    150   2   0.50000     0.0300000    0.0600000   3.930919e-05  8.704828e-09
    147    151   2   0.50000     0.0300000    0.0600000   3.930919e-05  8.704828e-09
    148    149   2   0.50000     0.0300000    0.0600000   3.930919e-05  8.704828e-09
    148    150   2   0.50000     0.0300000    0.0600000   3.930919e-05  8.704828e-09
    148    151   2   0.50000     0.0300000    0.0600000   3.930919e-05  8.704828e-09
    138    154   2   0.50000    -0.0600000    0.5100000   1.575021e-03  3.561100e-06
    138    161   2   0.50000    -0.0600000    0.0600000   1.599888e-04  9.721644e-08
    138    167   2   0.50000    -0.0600000   -0.1200000   1.015252e-03  1.866303e-06
    159    154   2   0.50000     0.0600000    0.5100000   3.869820e-04  3.188634e-07
    159    161   2   0.50000     0.0600000    0.0600000   3.930919e-05  8.704828e-09
    159    167   2   0.50000     0.0600000   -0.1200000   2.494471e-04  1.671101e-07
    160    154   2   0.50000     0.0600000    0.5100000   3.869820e-04  3.188634e-07
    160    161   2   0.50000     0.0600000    0.0600000   3.930919e-05  8.704828e-09
    160    167   2   0.50000     0.0600000   -0.1200000   2.494471e-04  1.671101e-07
    152    155   2   0.50000    -0.1200000   -0.4300000   1.095425e-03  1.218041e-06
    152    156   2   0.50000    -0.1200000   -0.3300000   1.026091e-03  1.187829e-06
    161    155   2   0.50000     0.0600000   -0.4300000   1.726228e-04  6.344822e-08
    161    156   2   0.50000     0.0600000   -0.3300000   1.616969e-04  6.187447e-08
    167    155   2   0.50000    -0.1200000   -0.4300000   1.095425e-03  1.218041e-06
    167    156   2   0.50000    -0.1200000   -0.3300000   1.026091e-03  1.187829e-06
    152    168   2   0.50000    -0.1200000   -0.0600000   1.015252e-03  1.866303e-06
    152    174   2   0.50000    -0.1200000    0.0600000   2.494471e-04  1.671101e-07
    152    175   2   0.50000    -0.1200000    0.0600000   2.494471e-04  1.671101e-07
    154    168   2   0.50000     0.5100000   -0.0600000   1.575021e-03  3.561100e-06
    154    174   2   0.50000     0.5100000    0.0600000   3.869820e-04  3.188634e-07
    154    175   2   0.50000     0.5100000    0.0600000   3.869820e-04  3.188634e-07
    161    168   2   0.50000     0.0600000   -0.0600000   1.599888e-04  9.721644e-08
    161    174   2   0.50000     0.0600000    0.0600000   3.930919e-05  8.704828e-09
    161    175   2   0.50000     0.0600000    0.0600000   3.930919e-05  8.704828e-09
    153    157   2   0.50000    -0.0600000    0.1900000   1.015252e-03  1.866303e-06
    155    157   2   0.50000    -0.4300000    0.1900000   1.095425e-03  1.218041e-06
    154    158   2   0.50000     0.5100000   -0.1800000   1.575021e-03  3.561100e-06
    154    162   2   0.50000     0.5100000    0.0300000   2.482000e-04  1.854991e-07
    154    163   2   0.50000     0.5100000    0.0300000   2.482000e-04  1.854991e-07
    156    164   2   0.50000    -0.3300000    0.0600000   2.521103e-04  1.063590e-07
    156    165   2   0.50000    -0.3300000    0.0600000   2.521103e-04  1.063590e-07
    156    166   2   0.50000    -0.3300000    0.0600000   2.521103e-04  1.063590e-07
    162    164   2   0.50000     0.0300000    0.0600000   3.930919e-05  8.704828e-09
    162    165   2   0.50000     0.0300000    0.0600000   3.930919e-05  8.704828e-09
    162    166   2   0.50000     0.0300000    0.0600000   3.930919e-05  8.704828e-09
    163    164   2   0.50000     0.0300000    0.0600000   3.930919e-05  8.704828e-09
    163    165   2   0.50000     0.0300000    0.0600000   3.930919e-05  8.704828e-09
    163    166   2   0.50000     0.0300000    0.0600000   3.930919e-05  8.704828e-09
    153    169   2   0.50000    -0.0600000    0.5100000   1.575021e-03  3.561100e-06
    153    176   2   0.50000    -0.0600000    0.0600000   1.599888e-04  9.721644e-08
    153    182   2   0.50000    -0.0600000   -0.1200000   1.015252e-03  1.866303e-06
    174    169   2   0.50000     0.0600000    0.5100000   3.869820e-04  3.188634e-07
    174    176   2   0.50000     0.0600000    0.0600000   3.930919e-05  8.704828e-09
    174    182   2   0.50000     0.0600000   -0.1200000   2.494471e-04  1.671101e-07
    175    169   2   0.50000     0.0600000    0.5100000   3.869820e-04  3.188634e-07
    175    176   2   0.50000     0.0600000    0.0600000   3.930919e-05  8.704828e-09
    175    182   2   0.50000     0.0600000   -0.1200000   2.494471e-04  1.671101e-07
    167    170   2   0.50000    -0.1200000   -0.4300000   1.095425e-03  1.218041e-06
    167    171   2   0.50000    -0.1200000   -0.3300000   1.026091e-03  1.187829e-06
    176    170   2   0.50000     0.0600000   -0.4300000   1.726228e-04  6.344822e-08
    176    171   2   0.50000     0.0600000   -0.3300000   1.616969e-04  6.187447e-08
    182    170   2   0.50000    -0.1200000   -0.4300000   1.095425e-03  1.218041e-06
    182    171   2   0.50000    -0.1200000   -0.3300000   1.026091e-03  1.187829e-06
    167    183   2   0.50000    -0.1200000   -0.0600000   1.015252e-03  1.866303e-06
    167    189   2   0.50000    -0.1200000    0.0600000   2.494471e-04  1.671101e-07
    167    190   2   0.50000    -0.1200000    0.0600000   2.494471e-04  1.671101e-07
    169    183   2   0.50000     0.5100000   -0.0600000   1.575021e-03  3.561100e-06
    169    189   2   0.50000     0.5100000    0.0600000   3.869820e-04  3.188634e-07
    169    190   2   0.50000     0.5100000    0.0600000   3.869820e-04  3.188634e-07
    176    183   2   0.50000     0.0600000   -0.0600000   1.599888e-04  9.721644e-08
    176    189   2   0.50000     0.0600000    0.0600000   3.930919e-05  8.704828e-09
    176    190   2   0.50000     0.0600000    0.0600000   3.930919e-05  8.704828e-09
    168    172   2   0.50000    -0.0600000    0.1900000   1.015252e-03  1.866303e-06
    170    172   2   0.50000    -0.4300000    0.1900000   1.095425e-03  1.218041e-06
    169    173   2   0.50000     0.5100000   -0.1800000   1.575021e-03  3.561100e-06
    169    177   2   0.50000     0.5100000    0.0300000   2.482000e-04  1.854991e-07
    169    178   2   0.50000     0.5100000    0.0300000   2.482000e-04  1.854991e-07
    171    179   2   0.50000    -0.3300000    0.0600000   2.521103e-04  1.063590e-07
    171    180   2   0.50000    -0.3300000    0.0600000   2.521103e-04  1.063590e-07
    171    181   2   0.50000    -0.3300000    0.0600000   2.521103e-04  1.063590e-07
    177    179   2   0.50000     0.0300000    0.0600000   3.930919e-05  8.704828e-09
    177    180   2   0.50000     0.0300000    0.0600000   3.930919e-05  8.704828e-09
    177    181   2   0.50000     0.0300000    0.0600000   3.930919e-05  8.704828e-09
    178    179   2   0.50000     0.0300000    0.0600000   3.930919e-05  8.704828e-09
    178    180   2   0.50000     0.0300000    0.0600000   3.930919e-05  8.704828e-09
    178    181   2   0.50000     0.0300000    0.0600000   3.930919e-05  8.704828e-09
    168    184   2   0.50000    -0.0600000    0.5100000   1.575021e-03  3.561100e-06
    168    191   2   0.50000    -0.0600000    0.0600000   1.599888e-04  9.721644e-08
    168    197   2   0.50000    -0.0600000   -0.1200000   1.015252e-03  1.866303e-06
    189    184   2   0.50000     0.0600000    0.5100000   3.869820e-04  3.188634e-07
    189    191   2   0.50000     0.0600000    0.0600000   3.930919e-05  8.704828e-09
    189    197   2   0.50000     0.0600000   -0.1200000   2.494471e-04  1.671101e-07
    190    184   2   0.50000     0.0600000    0.5100000   3.869820e-04  3.188634e-07
    190    191   2   0.50000     0.0600000    0.0600000   3.930919e-05  8.704828e-09
    190    197   2   0.50000     0.0600000   -0.1200000   2.494471e-04  1.671101e-07
    182    185   2   0.50000    -0.1200000   -0.4300000   1.095425e-03  1.218041e-06
    182    186   2   0.50000    -0.1200000   -0.3300000   1.026091e-03  1.187829e-06
    191    185   2   0.50000     0.0600000   -0.4300000   1.726228e-04  6.344822e-08
    191    186   2   0.50000     0.0600000   -0.3300000   1.616969e-04  6.187447e-08
    197    185   2   0.50000    -0.1200000   -0.4300000   1.095425e-03  1.218041e-06
    197    186   2   0.50000    -0.1200000   -0.3300000   1.026091e-03  1.187829e-06
    182    198   2   0.50000    -0.1200000   -0.0600000   1.015252e-03  1.866303e-06
    182    204   2   0.50000    -0.1200000    0.0600000   2.494471e-04  1.671101e-07
    182    205   2   0.50000    -0.1200000    0.0600000   2.494471e-04  1.671101e-07
    184    198   2   0.50000     0.5100000   -0.0600000   1.575021e-03  3.561100e-06
    184    204   2   0.50000     0.5100000    0.0600000   3.869820e-04  3.188634e-07
    184    205   2   0.50000     0.5100000    0.0600000   3.869820e-04  3.188634e-07
    191    198   2   0.50000     0.0600000   -0.0600000   1.599888e-04  9.721644e-08
    191    204   2   0.50000     0.0600000    0.0600000   3.930919e-05  8.704828e-09
    191    205   2   0.50000     0.0600000    0.0600000   3.930919e-05  8.704828e-09
    183    187   2   0.50000    -0.0600000    0.1900000   1.015252e-03  1.866303e-06
    185    187   2   0.50000    -0.4300000    0.1900000   1.095425e-03  1.218041e-06
    184    188   2   0.50000     0.5100000   -0.1800000   1.575021e-03  3.561100e-06
    184    192   2   0.50000     0.5100000    0.0300000   2.482000e-04  1.854991e-07
    184    193   2   0.50000     0.5100000    0.0300000   2.482000e-04  1.854991e-07
    186    194   2   0.50000    -0.3300000    0.0600000   2.521103e-04  1.063590e-07
    186    195   2   0.50000    -0.3300000    0.0600000   2.521103e-04  1.063590e-07
    186    196   2   0.50000    -0.3300000    0.0600000   2.521103e-04  1.063590e-07
    192    194   2   0.50000     0.0300000    0.0600000   3.930919e-05  8.704828e-09
    192    195   2   0.50000     0.0300000    0.0600000   3.930919e-05  8.704828e-09
    192    196   2   0.50000     0.0300000    0.0600000   3.930919e-05  8.704828e-09
    193    194   2   0.50000     0.0300000    0.0600000   3.930919e-05  8.704828e-09
    193    195   2   0.50000     0.0300000    0.0600000   3.930919e-05  8.704828e-09
    193    196   2   0.50000     0.0300000    0.0600000   3.930919e-05  8.704828e-09
    183    199   2   0.50000    -0.0600000    0.5100000   1.575021e-03  3.561100e-06
    183    206   2   0.50000    -0.0600000    0.0600000   1.599888e-04  9.721644e-08
    183    212   2   0.50000    -0.0600000   -0.1200000   1.015252e-03  1.866303e-06
    204    199   2   0.50000     0.0600000    0.5100000   3.869820e-04  3.188634e-07
    204    206   2   0.50000     0.0600000    0.0600000   3.930919e-05  8.704828e-09
    204    212   2   0.50000     0.0600000   -0.1200000   2.494471e-04  1.671101e-07
    205    199   2   0.50000     0.0600000    0.5100000   3.869820e-04  3.188634e-07
    205    206   2   0.50000     0.0600000    0.0600000   3.930919e-05  8.704828e-09
    205    212   2   0.50000     0.0600000   -0.1200000   2.494471e-04  1.671101e-07
    197    200   2   0.50000    -0.1200000   -0.4300000   1.095425e-03  1.218041e-06
    197    201   2   0.50000    -0.1200000   -0.3300000   1.026091e-03  1.187829e-06
    206    200   2   0.50000     0.0600000   -0.4300000   1.726228e-04  6.344822e-08
    206    201   2   0.50000     0.0600000   -0.3300000   1.616969e-04  6.187447e-08
    212    200   2   0.50000    -0.1200000   -0.4300000   1.095425e-03  1.218041e-06
    212    201   2   0.50000    -0.1200000   -0.3300000   1.026091e-03  1.187829e-06
    197    213   2   0.50000    -0.1200000   -0.0600000   1.015252e-03  1.866303e-06
    197    219   2   0.50000    -0.1200000    0.0600000   2.494471e-04  1.671101e-07
    197    220   2   0.50000    -0.1200000    0.0600000   2.494471e-04  1.671101e-07
    199    213   2   0.50000     0.5100000   -0.0600000   1.575021e-03  3.561100e-06
    199    219   2   0.50000     0.5100000    0.0600000   3.869820e-04  3.188634e-07
    199    220   2   0.50000     0.5100000    0.0600000   3.869820e-04  3.188634e-07
    206    213   2   0.50000     0.0600000   -0.0600000   1.599888e-04  9.721644e-08
    206    219   2   0.50000     0.0600000    0.0600000   3.930919e-05  8.704828e-09
    206    220   2   0.50000     0.0600000    0.0600000   3.930919e-05  8.704828e-09
    198    202   2   0.50000    -0.0600000    0.1900000   1.015252e-03  1.866303e-06
    200    202   2   0.50000    -0.4300000    0.1900000   1.095425e-03  1.218041e-06
    199    203   2   0.50000     0.5100000   -0.1800000   1.575021e-03  3.561100e-06
    199    207   2   0.50000     0.5100000    0.0300000   2.482000e-04  1.854991e-07
    199    208   2   0.50000     0.5100000    0.0300000   2.482000e-04  1.854991e-07
    201    209   2   0.50000    -0.3300000    0.0600000   2.521103e-04  1.063590e-07
    201    210   2   0.50000    -0.3300000    0.0600000   2.521103e-04  1.063590e-07
    201    211   2   0.50000    -0.3300000    0.0600000   2.521103e-04  1.063590e-07
    207    209   2   0.50000     0.0300000    0.0600000   3.930919e-05  8.704828e-09
    207    210   2   0.50000     0.0300000    0.0600000   3.930919e-05  8.704828e-09
    207    211   2   0.50000     0.0300000    0.0600000   3.930919e-05  8.704828e-09
    208    209   2   0.50000     0.0300000    0.0600000   3.930919e-05  8.704828e-09
    208    210   2   0.50000     0.0300000    0.0600000   3.930919e-05  8.704828e-09
    208    211   2   0.50000     0.0300000    0.0600000   3.930919e-05  8.704828e-09
    198    214   2   0.50000    -0.0600000    0.5100000   1.575021e-03  3.561100e-06
    198    221   2   0.50000    -0.0600000    0.0600000   1.599888e-04  9.721644e-08
    198    227   2   0.50000    -0.0600000   -0.1200000   1.015252e-03  1.866303e-06
    219    214   2   0.50000     0.0600000    0.5100000   3.869820e-04  3.188634e-07
    219    221   2   0.50000     0.0600000    0.0600000   3.930919e-05  8.704828e-09
    219    227   2   0.50000     0.0600000   -0.1200000   2.494471e-04  1.671101e-07
    220    214   2   0.50000     0.0600000    0.5100000   3.869820e-04  3.188634e-07
    220    221   2   0.50000     0.0600000    0.0600000   3.930919e-05  8.704828e-09
    220    227   2   0.50000     0.0600000   -0.1200000   2.494471e-04  1.671101e-07
    212    215   2   0.50000    -0.1200000   -0.4300000   1.095425e-03  1.218041e-06
    212    216   2   0.50000    -0.1200000   -0.3300000   1.026091e-03  1.187829e-06
    221    215   2   0.50000     0.0600000   -0.4300000   1.726228e-04  6.344822e-08
    221    216   2   0.50000     0.0600000   -0.3300000   1.616969e-04  6.187447e-08
    227    215   2   0.50000    -0.1200000   -0.4300000   1.095425e-03  1.218041e-06
    227    216   2   0.50000    -0.1200000   -0.3300000   1.026091e-03  1.187829e-06
    212    228   2   0.50000    -0.1200000   -0.0600000   1.015252e-03  1.866303e-06
    212    234   2   0.50000    -0.1200000    0.0600000   2.494471e-04  1.671101e-07
    212    235   2   0.50000    -0.1200000    0.0600000   2.494471e-04  1.671101e-07
    214    228   2   0.50000     0.5100000   -0.0600000   1.575021e-03  3.561100e-06
    214    234   2   0.50000     0.5100000    0.0600000   3.869820e-04  3.188634e-07
    214    235   2   0.50000     0.5100000    0.0600000   3.869820e-04  3.188634e-07
    221    228   2   0.50000     0.0600000   -0.0600000   1.599888e-04  9.721644e-08
    221    234   2   0.50000     0.0600000    0.0600000   3.930919e-05  8.704828e-09
    221    235   2   0.50000     0.0600000    0.0600000   3.930919e-05  8.704828e-09
    213    217   2   0.50000    -0.0600000    0.1900000   1.015252e-03  1.866303e-06
    215    217   2   0.50000    -0.4300000    0.1900000   1.095425e-03  1.218041e-06
    214    218   2   0.50000     0.5100000   -0.1800000   1.575021e-03  3.561100e-06
    214    222   2   0.50000     0.5100000    0.0300000   2.482000e-04  1.854991e-07
    214    223   2   0.50000     0.5100000    0.0300000   2.482000e-04  1.854991e-07
    216    224   2   0.50000    -0.3300000    0.0600000   2.521103e-04  1.063590e-07
    216    225   2   0.50000    -0.3300000    0.0600000   2.521103e-04  1.063590e-07
    216    226   2   0.50000    -0.3300000    0.0600000   2.521103e-04  1.063590e-07
    222    224   2   0.50000     0.0300000    0.0600000   3.930919e-05  8.704828e-09
    222    225   2   0.50000     0.0300000    0.0600000   3.930919e-05  8.704828e-09
    222    226   2   0.50000     0.0300000    0.0600000   3.930919e-05  8.704828e-09
    223    224   2   0.50000     0.0300000    0.0600000   3.930919e-05  8.704828e-09
    223    225   2   0.50000     0.0300000    0.0600000   3.930919e-05  8.704828e-09
    223    226   2   0.50000     0.0300000    0.0600000   3.930919e-05  8.704828e-09
    213    229   2   0.50000    -0.0600000    0.5100000   1.575021e-03  3.561100e-06
    213    236   2   0.50000    -0.0600000    0.0600000   1.599888e-04  9.721644e-08
    213    242   2   0.50000    -0.0600000   -0.1200000   1.015252e-03  1.866303e-06
    234    229   2   0.50000     0.0600000    0.5100000   3.869820e-04  3.188634e-07
    234    236   2   0.50000     0.0600000    0.0600000   3.930919e-05  8.704828e-09
    234    242   2   0.50000     0.0600000   -0.1200000   2.494471e-04  1.671101e-07
    235    229   2   0.50000     0.0600000    0.5100000   3.869820e-04  3.188634e-07
    235    236   2   0.50000     0.0600000    0.0600000   3.930919e-05  8.704828e-09
    235    242   2   0.50000     0.0600000   -0.1200000   2.494471e-04  1.671101e-07
    227    230   2   0.50000    -0.1200000   -0.4300000   1.095425e-03  1.218041e-06
    227    231   2   0.50000    -0.1200000   -0.3300000   1.026091e-03  1.187829e-06
    236    230   2   0.50000     0.0600000   -0.4300000   1.726228e-04  6.344822e-08
    236    231   2   0.50000     0.0600000   -0.3300000   1.616969e-04  6.187447e-08
    242    230   2   0.50000    -0.1200000   -0.4300000   1.095425e-03  1.218041e-06
    242    231   2   0.50000    -0.1200000   -0.3300000   1.026091e-03  1.187829e-06
    227    243   2   0.50000    -0.1200000   -0.0600000   1.015252e-03  1.866303e-06
    227    249   2   0.50000    -0.1200000    0.0600000   2.494471e-04  1.671101e-07
    227    250   2   0.50000    -0.1200000    0.0600000   2.494471e-04  1.671101e-07
    229    243   2   0.50000     0.5100000   -0.0600000   1.575021e-03  3.561100e-06
    229    249   2   0.50000     0.5100000    0.0600000   3.869820e-04  3.188634e-07
    229    250   2   0.50000     0.5100000    0.0600000   3.869820e-04  3.188634e-07
    236    243   2   0.50000     0.0600000   -0.0600000   1.599888e-04  9.721644e-08
    236    249   2   0.50000     0.0600000    0.0600000   3.930919e-05  8.704828e-09
    236    250   2   0.50000     0.0600000    0.0600000   3.930919e-05  8.704828e-09
    228    232   2   0.50000    -0.0600000    0.1900000   1.015252e-03  1.866303e-06
    230    232   2   0.50000    -0.4300000    0.1900000   1.095425e-03  1.218041e-06
    229    233   2   0.50000     0.5100000   -0.1800000   1.575021e-03  3.561100e-06
    229    237   2   0.50000     0.5100000    0.0300000   2.482000e-04  1.854991e-07
    229    238   2   0.50000     0.5100000    0.0300000   2.482000e-04  1.854991e-07
    231    239   2   0.50000    -0.3300000    0.0600000   2.521103e-04  1.063590e-07
    231    240   2   0.50000    -0.3300000    0.0600000   2.521103e-04  1.063590e-07
    231    241   2   0.50000    -0.3300000    0.0600000   2.521103e-04  1.063590e-07
    237    239   2   0.50000     0.0300000    0.0600000   3.930919e-05  8.704828e-09
    237    240   2   0.50000     0.0300000    0.0600000   3.930919e-05  8.704828e-09
    237    241   2   0.50000     0.0300000    0.0600000   3.930919e-05  8.704828e-09
    238    239   2   0.50000     0.0300000    0.0600000   3.930919e-05  8.704828e-09
    238    240   2   0.50000     0.0300000    0.0600000   3.930919e-05  8.704828e-09
    238    241   2   0.50000     0.0300000    0.0600000   3.930919e-05  8.704828e-09
    228    244   2   0.50000    -0.0600000    0.5100000   1.575021e-03  3.561100e-06
    228    251   2   0.50000    -0.0600000    0.0600000   1.599888e-04  9.721644e-08
    228    257   2   0.50000    -0.0600000   -0.1200000   1.015252e-03  1.866303e-06
    249    244   2   0.50000     0.0600000    0.5100000   3.869820e-04  3.188634e-07
    249    251   2   0.50000     0.0600000    0.0600000   3.930919e-05  8.704828e-09
    249    257   2   0.50000     0.0600000   -0.1200000   2.494471e-04  1.671101e-07
    250    244   2   0.50000     0.0600000    0.5100000   3.869820e-04  3.188634e-07
    250    251   2   0.50000     0.0600000    0.0600000   3.930919e-05  8.704828e-09
    250    257   2   0.50000     0.0600000   -0.1200000   2.494471e-04  1.671101e-07
    242    245   2   0.50000    -0.1200000   -0.4300000   1.095425e-03  1.218041e-06
    242    246   2   0.50000    -0.1200000   -0.3300000   1.026091e-03  1.187829e-06
    251    245   2   0.50000     0.0600000   -0.4300000   1.726228e-04  6.344822e-08
    251    246   2   0.50000     0.0600000   -0.3300000   1.616969e-04  6.187447e-08
    257    245   2   0.50000    -0.1200000   -0.4300000   1.095425e-03  1.218041e-06
    257    246   2   0.50000    -0.1200000   -0.3300000   1.026091e-03  1.187829e-06
    242    258   2   0.50000    -0.1200000   -0.0600000   1.015252e-03  1.866303e-06
    242    264   2   0.50000    -0.1200000    0.0600000   2.494471e-04  1.671101e-07
    242    265   2   0.50000    -0.1200000    0.0600000   2.494471e-04  1.671101e-07
    244    258   2   0.50000     0.5100000   -0.0600000   1.575021e-03  3.561100e-06
    244    264   2   0.50000     0.5100000    0.0600000   3.869820e-04  3.188634e-07
    244    265   2   0.50000     0.5100000    0.0600000   3.869820e-04  3.188634e-07
    251    258   2   0.50000     0.0600000   -0.0600000   1.599888e-04  9.721644e-08
    251    264   2   0.50000     0.0600000    0.0600000   3.930919e-05  8.704828e-09
    251    265   2   0.50000     0.0600000    0.0600000   3.930919e-05  8.704828e-09
    243    247   2   0.50000    -0.0600000    0.1900000   1.015252e-03  1.866303e-06
    245    247   2   0.50000    -0.4300000    0.1900000   1.095425e-03  1.218041e-06
    244    248   2   0.50000     0.5100000   -0.1800000   1.575021e-03  3.561100e-06
    244    252   2   0.50000     0.5100000    0.0300000   2.482000e-04  1.854991e-07
    244    253   2   0.50000     0.5100000    0.0300000   2.482000e-04  1.854991e-07
    246    254   2   0.50000    -0.3300000    0.0600000   2.521103e-04  1.063590e-07
    246    255   2   0.50000    -0.3300000    0.0600000   2.521103e-04  1.063590e-07
    246    256   2   0.50000    -0.3300000    0.0600000   2.521103e-04  1.063590e-07
    252    254   2   0.50000     0.0300000    0.0600000   3.930919e-05  8.704828e-09
    252    255   2   0.50000     0.0300000    0.0600000   3.930919e-05  8.704828e-09
    252    256   2   0.50000     0.0300000    0.0600000   3.930919e-05  8.704828e-09
    253    254   2   0.50000     0.0300000    0.0600000   3.930919e-05  8.704828e-09
    253    255   2   0.50000     0.0300000    0.0600000   3.930919e-05  8.704828e-09
    253    256   2   0.50000     0.0300000    0.0600000   3.930919e-05  8.704828e-09
    243    259   2   0.50000    -0.0600000    0.5100000   1.575021e-03  3.561100e-06
    243    266   2   0.50000    -0.0600000    0.0600000   1.599888e-04  9.721644e-08
    243    272   2   0.50000    -0.0600000   -0.1200000   1.015252e-03  1.866303e-06
    264    259   2   0.50000     0.0600000    0.5100000   3.869820e-04  3.188634e-07
    264    266   2   0.50000     0.0600000    0.0600000   3.930919e-05  8.704828e-09
    264    272   2   0.50000     0.0600000   -0.1200000   2.494471e-04  1.671101e-07
    265    259   2   0.50000     0.0600000    0.5100000   3.869820e-04  3.188634e-07
    265    266   2   0.50000     0.0600000    0.0600000   3.930919e-05  8.704828e-09
    265    272   2   0.50000     0.0600000   -0.1200000   2.494471e-04  1.671101e-07
    257    260   2   0.50000    -0.1200000   -0.4300000   1.095425e-03  1.218041e-06
    257    261   2   0.50000    -0.1200000   -0.3300000   1.026091e-03  1.187829e-06
    266    260   2   0.50000     0.0600000   -0.4300000   1.726228e-04  6.344822e-08
    266    261   2   0.50000     0.0600000   -0.3300000   1.616969e-04  6.187447e-08
    272    260   2   0.50000    -0.1200000   -0.4300000   1.095425e-03  1.218041e-06
    272    261   2   0.50000    -0.1200000   -0.3300000   1.026091e-03  1.187829e-06
    257    273   2   0.50000    -0.1200000   -0.0600000   1.015252e-03  1.866303e-06
    257    279   2   0.50000    -0.1200000    0.0600000   2.494471e-04  1.671101e-07
    257    280   2   0.50000    -0.1200000    0.0600000   2.494471e-04  1.671101e-07
    259    273   2   0.50000     0.5100000   -0.0600000   1.575021e-03  3.561100e-06
    259    279   2   0.50000     0.5100000    0.0600000   3.869820e-04  3.188634e-07
    259    280   2   0.50000     0.5100000    0.0600000   3.869820e-04  3.188634e-07
    266    273   2   0.50000     0.0600000   -0.0600000   1.599888e-04  9.721644e-08
    266    279   2   0.50000     0.0600000    0.0600000   3.930919e-05  8.704828e-09
    266    280   2   0.50000     0.0600000    0.0600000   3.930919e-05  8.704828e-09
    258    262   2   0.50000    -0.0600000    0.1900000   1.015252e-03  1.866303e-06
    260    262   2   0.50000    -0.4300000    0.1900000   1.095425e-03  1.218041e-06
    259    263   2   0.50000     0.5100000   -0.1800000   1.575021e-03  3.561100e-06
    259    267   2   0.50000     0.5100000    0.0300000   2.482000e-04  1.854991e-07
    259    268   2   0.50000     0.5100000    0.0300000   2.482000e-04  1.854991e-07
    261    269   2   0.50000    -0.3300000    0.0600000   2.521103e-04  1.063590e-07
    261    270   2   0.50000    -0.3300000    0.0600000   2.521103e-04  1.063590e-07
    261    271   2   0.50000    -0.3300000    0.0600000   2.521103e-04  1.063590e-07
    267    269   2   0.50000     0.0300000    0.0600000   3.930919e-05  8.704828e-09
    267    270   2   0.50000     0.0300000    0.0600000   3.930919e-05  8.704828e-09
    267    271   2   0.50000     0.0300000    0.0600000   3.930919e-05  8.704828e-09
    268    269   2   0.50000     0.0300000    0.0600000   3.930919e-05  8.704828e-09
    268    270   2   0.50000     0.0300000    0.0600000   3.930919e-05  8.704828e-09
    268    271   2   0.50000     0.0300000    0.0600000   3.930919e-05  8.704828e-09
    258    274   2   0.50000    -0.0600000    0.5100000   1.575021e-03  3.561100e-06
    258    281   2   0.50000    -0.0600000    0.0600000   1.599888e-04  9.721644e-08
    258    287   2   0.50000    -0.0600000   -0.1200000   1.015252e-03  1.866303e-06
    279    274   2   0.50000     0.0600000    0.5100000   3.869820e-04  3.188634e-07
    279    281   2   0.50000     0.0600000    0.0600000   3.930919e-05  8.704828e-09
    279    287   2   0.50000     0.0600000   -0.1200000   2.494471e-04  1.671101e-07
    280    274   2   0.50000     0.0600000    0.5100000   3.869820e-04  3.188634e-07
    280    281   2   0.50000     0.0600000    0.0600000   3.930919e-05  8.704828e-09
    280    287   2   0.50000     0.0600000   -0.1200000   2.494471e-04  1.671101e-07
    272    275   2   0.50000    -0.1200000   -0.4300000   1.095425e-03  1.218041e-06
    272    276   2   0.50000    -0.1200000   -0.3300000   1.026091e-03  1.187829e-06
    281    275   2   0.50000     0.0600000   -0.4300000   1.726228e-04  6.344822e-08
    281    276   2   0.50000     0.0600000   -0.3300000   1.616969e-04  6.187447e-08
    287    275   2   0.50000    -0.1200000   -0.4300000   1.095425e-03  1.218041e-06
    287    276   2   0.50000    -0.1200000   -0.3300000   1.026091e-03  1.187829e-06
    272    288   2   0.50000    -0.1200000   -0.1200000   1.015252e-03  1.866303e-06
    272    294   2   0.50000    -0.1200000    0.0600000   2.494471e-04  1.671101e-07
    272    295   2   0.50000    -0.1200000    0.0600000   2.494471e-04  1.671101e-07
    274    288   2   0.50000     0.5100000   -0.1200000   1.575021e-03  3.561100e-06
    274    294   2   0.50000     0.5100000    0.0600000   3.869820e-04  3.188634e-07
    274    295   2   0.50000     0.5100000    0.0600000   3.869820e-04  3.188634e-07
    281    288   2   0.50000     0.0600000   -0.1200000   1.599888e-04  9.721644e-08
    281    294   2   0.50000     0.0600000    0.0600000   3.930919e-05  8.704828e-09
    281    295   2   0.50000     0.0600000    0.0600000   3.930919e-05  8.704828e-09
    273    277   2   0.50000    -0.0600000    0.1900000   1.015252e-03  1.866303e-06
    275    277   2   0.50000    -0.4300000    0.1900000   1.095425e-03  1.218041e-06
    274    278   2   0.50000     0.5100000   -0.1800000   1.575021e-03  3.561100e-06
    274    282   2   0.50000     0.5100000    0.0300000   2.482000e-04  1.854991e-07
    274    283   2   0.50000     0.5100000    0.0300000   2.482000e-04  1.854991e-07
    276    284   2   0.50000    -0.3300000    0.0600000   2.521103e-04  1.063590e-07
    276    285   2   0.50000    -0.3300000    0.0600000   2.521103e-04  1.063590e-07
    276    286   2   0.50000    -0.3300000    0.0600000   2.521103e-04  1.063590e-07
    282    284   2   0.50000     0.0300000    0.0600000   3.930919e-05  8.704828e-09
    282    285   2   0.50000     0.0300000    0.0600000   3.930919e-05  8.704828e-09
    282    286   2   0.50000     0.0300000    0.0600000   3.930919e-05  8.704828e-09
    283    284   2   0.50000     0.0300000    0.0600000   3.930919e-05  8.704828e-09
    283    285   2   0.50000     0.0300000    0.0600000   3.930919e-05  8.704828e-09
    283    286   2   0.50000     0.0300000    0.0600000   3.930919e-05  8.704828e-09
    273    289   2   0.50000    -0.0600000    0.5100000   1.575021e-03  3.561100e-06
    273    296   2   0.50000    -0.0600000    0.0600000   1.599888e-04  9.721644e-08
    273    302   2   0.50000    -0.0600000    0.0600000   1.599888e-04  9.721644e-08
    294    289   2   0.50000     0.0600000    0.5100000   3.869820e-04  3.188634e-07
    294    296   2   0.50000     0.0600000    0.0600000   3.930919e-05  8.704828e-09
    294    302   2   0.50000     0.0600000    0.0600000   3.930919e-05  8.704828e-09
    295    289   2   0.50000     0.0600000    0.5100000   3.869820e-04  3.188634e-07
    295    296   2   0.50000     0.0600000    0.0600000   3.930919e-05  8.704828e-09
    295    302   2   0.50000     0.0600000    0.0600000   3.930919e-05  8.704828e-09
    287    290   2   0.50000    -0.1200000   -0.4300000   1.095425e-03  1.218041e-06
    287    291   2   0.50000    -0.1200000   -0.3300000   1.026091e-03  1.187829e-06
    296    290   2   0.50000     0.0600000   -0.4300000   1.726228e-04  6.344822e-08
    296    291   2   0.50000     0.0600000   -0.3300000   1.616969e-04  6.187447e-08
    302    290   2   0.50000     0.0600000   -0.4300000   1.726228e-04  6.344822e-08
    302    291   2   0.50000     0.0600000   -0.3300000   1.616969e-04  6.187447e-08
    288    292   2   0.50000    -0.1200000    0.1900000   1.015252e-03  1.866303e-06
    290    292   2   0.50000    -0.4300000    0.1900000   1.095425e-03  1.218041e-06
    289    293   2   0.50000     0.5100000   -0.1800000   1.575021e-03  3.561100e-06
    289    297   2   0.50000     0.5100000    0.0300000   2.482000e-04  1.854991e-07
    289    298   2   0.50000     0.5100000    0.0300000   2.482000e-04  1.854991e-07
    291    299   2   0.50000    -0.3300000    0.0600000   2.521103e-04  1.063590e-07
    291    300   2   0.50000    -0.3300000    0.0600000   2.521103e-04  1.063590e-07
    291    301   2   0.50000    -0.3300000    0.0600000   2.521103e-04  1.063590e-07
    297    299   2   0.50000     0.0300000    0.0600000   3.930919e-05  8.704828e-09
    297    300   2   0.50000     0.0300000    0.0600000   3.930919e-05  8.704828e-09
    297    301   2   0.50000     0.0300000    0.0600000   3.930919e-05  8.704828e-09
    298    299   2   0.50000     0.0300000    0.0600000   3.930919e-05  8.704828e-09
    298    300   2   0.50000     0.0300000    0.0600000   3.930919e-05  8.704828e-09
    298    301   2   0.50000     0.0300000    0.0600000   3.930919e-05  8.704828e-09

[ angles ]
; ai  aj  ak
      2      1      8   1    110.7000    313.8000
      2      1      9   1    110.7000    313.8000
      2      1     16   1    110.7000    313.8000
      8      1      9   1    107.8000    276.1440
      8      1     16   1    107.8000    276.1440
      9      1     16   1    107.8000    276.1440
      1      2      3   1    111.1000    527.1840
      1      2     10   1    110.7000    313.8000
      1      2     17   1    112.7000    488.2728
      3      2     10   1    109.5000    292.8800
      3      2     17   1    111.1000    527.1840
     10      2     17   1    110.7000    313.8000
      2      3      4   1    120.4000    669.4400
      2      3      5   1    111.4000    677.8080
      4      3      5   1    123.4000    694.5440
      3      5      6   1    116.9000    694.5440
      5      6      7   1    109.5000    418.4000
      5      6     11   1    109.5000    292.8800
      5      6     12   1    109.5000    292.8800
      7      6     11   1    110.7000    313.8000
      7      6     12   1    110.7000    313.8000
     11      6     12   1    107.8000    276.1440
      6      7     13   1    110.7000    313.8000
      6      7     14   1    110.7000    313.8000
      6      7     15   1    110.7000    313.8000
     13      7     14   1    107.8000    276.1440
     13      7     15   1    107.8000    276.1440
     14      7     15   1    107.8000    276.1440
      2     17     18   1    112.7000    488.2728
      2     17     24   1    110.7000    313.8000
      2     17     25   1    110.7000    313.8000
     18     17     24   1    110.7000    313.8000
     18     17     25   1    110.7000    313.8000
     24     17     25   1    107.8000    276.1440
     17     18     19   1    111.1000    527.1840
     17     18     26   1    110.7000    313.8000
     17     18     32   1    112.7000    488.2728
     19     18     26   1    109.5000    292.8800
     19     18     32   1    111.1000    527.1840
     26     18     32   1    110.7000    313.8000
     18     19     20   1    120.4000    669.4400
     18     19     21   1    111.4000    677.8080
     20     19     21   1    123.4000    694.5440
     19     21     22   1    116.9000    694.5440
     21     22     23   1    109.5000    418.4000
     21     22     27   1    109.5000    292.8800
     21     22     28   1    109.5000    292.8800
     23     22     27   1    110.7000    313.8000
     23     22     28   1    110.7000    313.8000
     27     22     28   1    107.8000    276.1440
     22     23     29   1    110.7000    313.8000
     22     23     30   1    110.7000    313.8000
     22     23     31   1    110.7000    313.8000
     29     23     30   1    107.8000    276.1440
     29     23     31   1    107.8000    276.1440
     30     23     31   1    107.8000    276.1440
     18     32     33   1    112.7000    488.2728
     18     32     39   1    110.7000    313.8000
     18     32     40   1    110.7000    313.8000
     33     32     39   1    110.7000    313.8000
     33     32     40   1    110.7000    313.8000
     39     32     40   1    107.8000    276.1440
     32     33     34   1    111.1000    527.1840
     32     33     41   1    110.7000    313.8000
     32     33     47   1    112.7000    488.2728
     34     33     41   1    109.5000    292.8800
     34     33     47   1    111.1000    527.1840
     41     33     47   1    110.7000    313.8000
     33     34     35   1    120.4000    669.4400
     33     34     36   1    111.4000    677.8080
     35     34     36   1    123.4000    694.5440
     34     36     37   1    116.9000    694.5440
     36     37     38   1    109.5000    418.4000
     36     37     42   1    109.5000    292.8800
     36     37     43   1    109.5000    292.8800
     38     37     42   1    110.7000    313.8000
     38     37     43   1    110.7000    313.8000
     42     37     43   1    107.8000    276.1440
     37     38     44   1    110.7000    313.8000
     37     38     45   1    110.7000    313.8000
     37     38     46   1    110.7000    313.8000
     44     38     45   1    107.8000    276.1440
     44     38     46   1    107.8000    276.1440
     45     38     46   1    107.8000    276.1440
     33     47     48   1    112.7000    488.2728
     33     47     54   1    110.7000    313.8000
     33     47     55   1    110.7000    313.8000
     48     47     54   1    110.7000    313.8000
     48     47     55   1    110.7000    313.8000
     54     47     55   1    107.8000    276.1440
     47     48     49   1    111.1000    527.1840
     47     48     56   1    110.7000    313.8000
     47     48     62   1    112.7000    488.2728
     49     48     56   1    109.5000    292.8800
     49     48     62   1    111.1000    527.1840
     56     48     62   1    110.7000    313.8000
     48     49     50   1    120.4000    669.4400
     48     49     51   1    111.4000    677.8080
     50     49     51   1    123.4000    694.5440
     49     51     52   1    116.9000    694.5440
     51     52     53   1    109.5000    418.4000
     51     52     57   1    109.5000    292.8800
     51     52     58   1    109.5000    292.8800
     53     52     57   1    110.7000    313.8000
     53     52     58   1    110.7000    313.8000
     57     52     58   1    107.8000    276.1440
     52     53     59   1    110.7000    313.8000
     52     53     60   1    110.7000    313.8000
     52     53     61   1    110.7000    313.8000
     59     53     60   1    107.8000    276.1440
     59     53     61   1    107.8000    276.1440
     60     53     61   1    107.8000    276.1440
     48     62     63   1    112.7000    488.2728
     48     62     69   1    110.7000    313.8000
     48     62     70   1    110.7000    313.8000
     63     62     69   1    110.7000    313.8000
     63     62     70   1    110.7000    313.8000
     69     62     70   1    107.8000    276.1440
     62     63     64   1    111.1000    527.1840
     62     63     71   1    110.7000    313.8000
     62     63     77   1    112.7000    488.2728
     64     63     71   1    109.5000    292.8800
     64     63     77   1    111.1000    527.1840
     71     63     77   1    110.7000    313.8000
     63     64     65   1    120.4000    669.4400
     63     64     66   1    111.4000    677.8080
     65     64     66   1    123.4000    694.5440
     64     66     67   1    116.9000    694.5440
     66     67     68   1    109.5000    418.4000
     66     67     72   1    109.5000    292.8800
     66     67     73   1    109.5000    292.8800
     68     67     72   1    110.7000    313.8000
     68     67     73   1    110.7000    313.8000
     72     67     73   1    107.8000    276.1440
     67     68     74   1    110.7000    313.8000
     67     68     75   1    110.7000    313.8000
     67     68     76   1    110.7000    313.8000
     74     68     75   1    107.8000    276.1440
     74     68     76   1    107.8000    276.1440
     75     68     76   1    107.8000    276.1440
     63     77     78   1    112.7000    488.2728
     63     77     84   1    110.7000    313.8000
     63     77     85   1    110.7000    313.8000
     78     77     84   1    110.7000    313.8000
     78     77     85   1    110.7000    313.8000
     84     77     85   1    107.8000    276.1440
     77     78     79   1    111.1000    527.1840
     77     78     86   1    110.7000    313.8000
     77     78     92   1    112.7000    488.2728
     79     78     86   1    109.5000    292.8800
     79     78     92   1    111.1000    527.1840
     86     78     92   1    110.7000    313.8000
     78     79     80   1    120.4000    669.4400
     78     79     81   1    111.4000    677.8080
     80     79     81   1    123.4000    694.5440
     79     81     82   1    116.9000    694.5440
     81     82     83   1    109.5000    418.4000
     81     82     87   1    109.5000    292.8800
     81     82     88   1    109.5000    292.8800
     83     82     87   1    110.7000    313.8000
     83     82     88   1    110.7000    313.8000
     87     82     88   1    107.8000    276.1440
     82     83     89   1    110.7000    313.8000
     82     83     90   1    110.7000    313.8000
     82     83     91   1    110.7000    313.8000
     89     83     90   1    107.8000    276.1440
     89     83     91   1    107.8000    276.1440
     90     83     91   1    107.8000    276.1440
     78     92     93   1    112.7000    488.2728
     78     92     99   1    110.7000    313.8000
     78     92    100   1    110.7000    313.8000
     93     92     99   1    110.7000    313.8000
     93     92    100   1    110.7000    313.8000
     99     92    100   1    107.8000    276.1440
     92     93     94   1    111.1000    527.1840
     92     93    101   1    110.7000    313.8000
     92     93    107   1    112.7000    488.2728
     94     93    101   1    109.5000    292.8800
     94     93    107   1    111.1000    527.1840
    101     93    107   1    110.7000    313.8000
     93     94     95   1    120.4000    669.4400
     93     94     96   1    111.4000    677.8080
     95     94     96   1    123.4000    694.5440
     94     96     97   1    116.9000    694.5440
     96     97     98   1    109.5000    418.4000
     96     97    102   1    109.5000    292.8800
     96     97    103   1    109.5000    292.8800
     98     97    102   1    110.7000    313.8000
     98     97    103   1    110.7000    313.8000
    102     97    103   1    107.8000    276.1440
     97     98    104   1    110.7000    313.8000
     97     98    105   1    110.7000    313.8000
     97     98    106   1    110.7000    313.8000
    104     98    105   1    107.8000    276.1440
    104     98    106   1    107.8000    276.1440
    105     98    106   1    107.8000    276.1440
     93    107    108   1    112.7000    488.2728
     93    107    114   1    110.7000    313.8000
     93    107    115   1    110.7000    313.8000
    108    107    114   1    110.7000    313.8000
    108    107    115   1    110.7000    313.8000
    114    107    115   1    107.8000    276.1440
    107    108    109   1    111.1000    527.1840
    107    108    116   1    110.7000    313.8000
    107    108    122   1    112.7000    488.2728
    109    108    116   1    109.5000    292.8800
    109    108    122   1    111.1000    527.1840
    116    108    122   1    110.7000    313.8000
    108    109    110   1    120.4000    669.4400
    108    109    111   1    111.4000    677.8080
    110    109    111   1    123.4000    694.5440
    109    111    112   1    116.9000    694.5440
    111    112    113   1    109.5000    418.4000
    111    112    117   1    109.5000    292.8800
    111    112    118   1    109.5000    292.8800
    113    112    117   1    110.7000    313.8000
    113    112    118   1    110.7000    313.8000
    117    112    118   1    107.8000    276.1440
    112    113    119   1    110.7000    313.8000
    112    113    120   1    110.7000    313.8000
    112    113    121   1    110.7000    313.8000
    119    113    120   1    107.8000    276.1440
    119    113    121   1    107.8000    276.1440
    120    113    121   1    107.8000    276.1440
    108    122    123   1    112.7000    488.2728
    108    122    129   1    110.7000    313.8000
    108    122    130   1    110.7000    313.8000
    123    122    129   1    110.7000    313.8000
    123    122    130   1    110.7000    313.8000
    129    122    130   1    107.8000    276.1440
    122    123    124   1    111.1000    527.1840
    122    123    131   1    110.7000    313.8000
    122    123    137   1    112.7000    488.2728
    124    123    131   1    109.5000    292.8800
    124    123    137   1    111.1000    527.1840
    131    123    137   1    110.7000    313.8000
    123    124    125   1    120.4000    669.4400
    123    124    126   1    111.4000    677.8080
    125    124    126   1    123.4000    694.5440
    124    126    127   1    116.9000    694.5440
    126    127    128   1    109.5000    418.4000
    126    127    132   1    109.5000    292.8800
    126    127    133   1    109.5000    292.8800
    128    127    132   1    110.7000    313.8000
    128    127    133   1    110.7000    313.8000
    132    127    133   1    107.8000    276.1440
    127    128    134   1    110.7000    313.8000
    127    128    135   1    110.7000    313.8000
    127    128    136   1    110.7000    313.8000
    134    128    135   1    107.8000    276.1440
    134    128    136   1    107.8000    276.1440
    135    128    136   1    107.8000    276.1440
    123    137    138   1    112.7000    488.2728
    123    137    144   1    110.7000    313.8000
    123    137    145   1    110.7000    313.8000
    138    137    144   1    110.7000    313.8000
    138    137    145   1    110.7000    313.8000
    144    137    145   1    107.8000    276.1440
    137    138    139   1    111.1000    527.1840
    137    138    146   1    110.7000    313.8000
    137    138    152   1    112.7000    488.2728
    139    138    146   1    109.5000    292.8800
    139    138    152   1    111.1000    527.1840
    146    138    152   1    110.7000    313.8000
    138    139    140   1    120.4000    669.4400
    138    139    141   1    111.4000    677.8080
    140    139    141   1    123.4000    694.5440
    139    141    142   1    116.9000    694.5440
    141    142    143   1    109.5000    418.4000
    141    142    147   1    109.5000    292.8800
    141    142    148   1    109.5000    292.8800
    143    142    147   1    110.7000    313.8000
    143    142    148   1    110.7000    313.8000
    147    142    148   1    107.8000    276.1440
    142    143    149   1    110.7000    313.8000
    142    143    150   1    110.7000    313.8000
    142    143    151   1    110.7000    313.8000
    149    143    150   1    107.8000    276.1440
    149    143    151   1    107.8000    276.1440
    150    143    151   1    107.8000    276.1440
    138    152    153   1    112.7000    488.2728
    138    152    159   1    110.7000    313.8000
    138    152    160   1    110.7000    313.8000
    153    152    159   1    110.7000    313.8000
    153    152    160   1    110.7000    313.8000
    159    152    160   1    107.8000    276.1440
    152    153    154   1    111.1000    527.1840
    152    153    161   1    110.7000    313.8000
    152    153    167   1    112.7000    488.2728
    154    153    161   1    109.5000    292.8800
    154    153    167   1    111.1000    527.1840
    161    153    167   1    110.7000    313.8000
    153    154    155   1    120.4000    669.4400
    153    154    156   1    111.4000    677.8080
    155    154    156   1    123.4000    694.5440
    154    156    157   1    116.9000    694.5440
    156    157    158   1    109.5000    418.4000
    156    157    162   1    109.5000    292.8800
    156    157    163   1    109.5000    292.8800
    158    157    162   1    110.7000    313.8000
    158    157    163   1    110.7000    313.8000
    162    157    163   1    107.8000    276.1440
    157    158    164   1    110.7000    313.8000
    157    158    165   1    110.7000    313.8000
    157    158    166   1    110.7000    313.8000
    164    158    165   1    107.8000    276.1440
    164    158    166   1    107.8000    276.1440
    165    158    166   1    107.8000    276.1440
    153    167    168   1    112.7000    488.2728
    153    167    174   1    110.7000    313.8000
    153    167    175   1    110.7000    313.8000
    168    167    174   1    110.7000    313.8000
    168    167    175   1    110.7000    313.8000
    174    167    175   1    107.8000    276.1440
    167    168    169   1    111.1000    527.1840
    167    168    176   1    110.7000    313.8000
    167    168    182   1    112.7000    488.2728
    169    168    176   1    109.5000    292.8800
    169    168    182   1    111.1000    527.1840
    176    168    182   1    110.7000    313.8000
    168    169    170   1    120.4000    669.4400
    168    169    171   1    111.4000    677.8080
    170    169    171   1    123.4000    694.5440
    169    171    172   1    116.9000    694.5440
    171    172    173   1    109.5000    418.4000
    171    172    177   1    109.5000    292.8800
    171    172    178   1    109.5000    292.8800
    173    172    177   1    110.7000    313.8000
    173    172    178   1    110.7000    313.8000
    177    172    178   1    107.8000    276.1440
    172    173    179   1    110.7000    313.8000
    172    173    180   1    110.7000    313.8000
    172    173    181   1    110.7000    313.8000
    179    173    180   1    107.8000    276.1440
    179    173    181   1    107.8000    276.1440
    180    173    181   1    107.8000    276.1440
    168    182    183   1    112.7000    488.2728
    168    182    189   1    110.7000    313.8000
    168    182    190   1    110.7000    313.8000
    183    182    189   1    110.7000    313.8000
    183    182    190   1    110.7000    313.8000
    189    182    190   1    107.8000    276.1440
    182    183    184   1    111.1000    527.1840
    182    183    191   1    110.7000    313.8000
    182    183    197   1    112.7000    488.2728
    184    183    191   1    109.5000    292.8800
    184    183    197   1    111.1000    527.1840
    191    183    197   1    110.7000    313.8000
    183    184    185   1    120.4000    669.4400
    183    184    186   1    111.4000    677.8080
    185    184    186   1    123.4000    694.5440
    184    186    187   1    116.9000    694.5440
    186    187    188   1    109.5000    418.4000
    186    187    192   1    109.5000    292.8800
    186    187    193   1    109.5000    292.8800
    188    187    192   1    110.7000    313.8000
    188    187    193   1    110.7000    313.8000
    192    187    193   1    107.8000    276.1440
    187    188    194   1    110.7000    313.8000
    187    188    195   1    110.7000    313.8000
    187    188    196   1    110.7000    313.8000
    194    188    195   1    107.8000    276.1440
    194    188    196   1    107.8000    276.1440
    195    188    196   1    107.8000    276.1440
    183    197    198   1    112.7000    488.2728
    183    197    204   1    110.7000    313.8000
    183    197    205   1    110.7000    313.8000
    198    197    204   1    110.7000    313.8000
    198    197    205   1    110.7000    313.8000
    204    197    205   1    107.8000    276.1440
    197    198    199   1    111.1000    527.1840
    197    198    206   1    110.7000    313.8000
    197    198    212   1    112.7000    488.2728
    199    198    206   1    109.5000    292.8800
    199    198    212   1    111.1000    527.1840
    206    198    212   1    110.7000    313.8000
    198    199    200   1    120.4000    669.4400
    198    199    201   1    111.4000    677.8080
    200    199    201   1    123.4000    694.5440
    199    201    202   1    116.9000    694.5440
    201    202    203   1    109.5000    418.4000
    201    202    207   1    109.5000    292.8800
    201    202    208   1    109.5000    292.8800
    203    202    207   1    110.7000    313.8000
    203    202    208   1    110.7000    313.8000
    207    202    208   1    107.8000    276.1440
    202    203    209   1    110.7000    313.8000
    202    203    210   1    110.7000    313.8000
    202    203    211   1    110.7000    313.8000
    209    203    210   1    107.8000    276.1440
    209    203    211   1    107.8000    276.1440
    210    203    211   1    107.8000    276.1440
    198    212    213   1    112.7000    488.2728
    198    212    219   1    110.7000    313.8000
    198    212    220   1    110.7000    313.8000
    213    212    219   1    110.7000    313.8000
    213    212    220   1    110.7000    313.8000
    219    212    220   1    107.8000    276.1440
    212    213    214   1    111.1000    527.1840
    212    213    221   1    110.7000    313.8000
    212    213    227   1    112.7000    488.2728
    214    213    221   1    109.5000    292.8800
    214    213    227   1    111.1000    527.1840
    221    213    227   1    110.7000    313.8000
    213    214    215   1    120.4000    669.4400
    213    214    216   1    111.4000    677.8080
    215    214    216   1    123.4000    694.5440
    214    216    217   1    116.9000    694.5440
    216    217    218   1    109.5000    418.4000
    216    217    222   1    109.5000    292.8800
    216    217    223   1    109.5000    292.8800
    218    217    222   1    110.7000    313.8000
    218    217    223   1    110.7000    313.8000
    222    217    223   1    107.8000    276.1440
    217    218    224   1    110.7000    313.8000
    217    218    225   1    110.7000    313.8000
    217    218    226   1    110.7000    313.8000
    224    218    225   1    107.8000    276.1440
    224    218    226   1    107.8000    276.1440
    225    218    226   1    107.8000    276.1440
    213    227    228   1    112.7000    488.2728
    213    227    234   1    110.7000    313.8000
    213    227    235   1    110.7000    313.8000
    228    227    234   1    110.7000    313.8000
    228    227    235   1    110.7000    313.8000
    234    227    235   1    107.8000    276.1440
    227    228    229   1    111.1000    527.1840
    227    228    236   1    110.7000    313.8000
    227    228    242   1    112.7000    488.2728
    229    228    236   1    109.5000    292.8800
    229    228    242   1    111.1000    527.1840
    236    228    242   1    110.7000    313.8000
    228    229    230   1    120.4000    669.4400
    228    229    231   1    111.4000    677.8080
    230    229    231   1    123.4000    694.5440
    229    231    232   1    116.9000    694.5440
    231    232    233   1    109.5000    418.4000
    231    232    237   1    109.5000    292.8800
    231    232    238   1    109.5000    292.8800
    233    232    237   1    110.7000    313.8000
    233    232    238   1    110.7000    313.8000
    237    232    238   1    107.8000    276.1440
    232    233    239   1    110.7000    313.8000
    232    233    240   1    110.7000    313.8000
    232    233    241   1    110.7000    313.8000
    239    233    240   1    107.8000    276.1440
    239    233    241   1    107.8000    276.1440
    240    233    241   1    107.8000    276.1440
    228    242    243   1    112.7000    488.2728
    228    242    249   1    110.7000    313.8000
    228    242    250   1    110.7000    313.8000
    243    242    249   1    110.7000    313.8000
    243    242    250   1    110.7000    313.8000
    249    242    250   1    107.8000    276.1440
    242    243    244   1    111.1000    527.1840
    242    243    251   1    110.7000    313.8000
    242    243    257   1    112.7000    488.2728
    244    243    251   1    109.5000    292.8800
    244    243    257   1    111.1000    527.1840
    251    243    257   1    110.7000    313.8000
    243    244    245   1    120.4000    669.4400
    243    244    246   1    111.4000    677.8080
    245    244    246   1    123.4000    694.5440
    244    246    247   1    116.9000    694.5440
    246    247    248   1    109.5000    418.4000
    246    247    252   1    109.5000    292.8800
    246    247    253   1    109.5000    292.8800
    248    247    252   1    110.7000    313.8000
    248    247    253   1    110.7000    313.8000
    252    247    253   1    107.8000    276.1440
    247    248    254   1    110.7000    313.8000
    247    248    255   1    110.7000    313.8000
    247    248    256   1    110.7000    313.8000
    254    248    255   1    107.8000    276.1440
    254    248    256   1    107.8000    276.1440
    255    248    256   1    107.8000    276.1440
    243    257    258   1    112.7000    488.2728
    243    257    264   1    110.7000    313.8000
    243    257    265   1    110.7000    313.8000
    258    257    264   1    110.7000    313.8000
    258    257    265   1    110.7000    313.8000
    264    257    265   1    107.8000    276.1440
    257    258    259   1    111.1000    527.1840
    257    258    266   1    110.7000    313.8000
    257    258    272   1    112.7000    488.2728
    259    258    266   1    109.5000    292.8800
    259    258    272   1    111.1000    527.1840
    266    258    272   1    110.7000    313.8000
    258    259    260   1    120.4000    669.4400
    258    259    261   1    111.4000    677.8080
    260    259    261   1    123.4000    694.5440
    259    261    262   1    116.9000    694.5440
    261    262    263   1    109.5000    418.4000
    261    262    267   1    109.5000    292.8800
    261    262    268   1    109.5000    292.8800
    263    262    267   1    110.7000    313.8000
    263    262    268   1    110.7000    313.8000
    267    262    268   1    107.8000    276.1440
    262    263    269   1    110.7000    313.8000
    262    263    270   1    110.7000    313.8000
    262    263    271   1    110.7000    313.8000
    269    263    270   1    107.8000    276.1440
    269    263    271   1    107.8000    276.1440
    270    263    271   1    107.8000    276.1440
    258    272    273   1    112.7000    488.2728
    258    272    279   1    110.7000    313.8000
    258    272    280   1    110.7000    313.8000
    273    272    279   1    110.7000    313.8000
    273    272    280   1    110.7000    313.8000
    279    272    280   1    107.8000    276.1440
    272    273    274   1    111.1000    527.1840
    272    273    281   1    110.7000    313.8000
    272    273    287   1    112.7000    488.2728
    274    273    281   1    109.5000    292.8800
    274    273    287   1    111.1000    527.1840
    281    273    287   1    110.7000    313.8000
    273    274    275   1    120.4000    669.4400
    273    274    276   1    111.4000    677.8080
    275    274    276   1    123.4000    694.5440
    274    276    277   1    116.9000    694.5440
    276    277    278   1    109.5000    418.4000
    276    277    282   1    109.5000    292.8800
    276    277    283   1    109.5000    292.8800
    278    277    282   1    110.7000    313.8000
    278    277    283   1    110.7000    313.8000
    282    277    283   1    107.8000    276.1440
    277    278    284   1    110.7000    313.8000
    277    278    285   1    110.7000    313.8000
    277    278    286   1    110.7000    313.8000
    284    278    285   1    107.8000    276.1440
    284    278    286   1    107.8000    276.1440
    285    278    286   1    107.8000    276.1440
    273    287    288   1    112.7000    488.2728
    273    287    294   1    110.7000    313.8000
    273    287    295   1    110.7000    313.8000
    288    287    294   1    110.7000    313.8000
    288    287    295   1    110.7000    313.8000
    294    287    295   1    107.8000    276.1440
    287    288    289   1    111.1000    527.1840
    287    288    296   1    110.7000    313.8000
    287    288    302   1    110.7000    313.8000
    289    288    296   1    109.5000    292.8800
    289    288    302   1    109.5000    292.8800
    296    288    302   1    107.8000    276.1440
    288    289    290   1    120.4000    669.4400
    288    289    291   1    111.4000    677.8080
    290    289    291   1    123.4000    694.5440
    289    291    292   1    116.9000    694.5440
    291    292    293   1    109.5000    418.4000
    291    292    297   1    109.5000    292.8800
    291    292    298   1    109.5000    292.8800
    293    292    297   1    110.7000    313.8000
    293    292    298   1    110.7000    313.8000
    297    292    298   1    107.8000    276.1440
    292    293    299   1    110.7000    313.8000
    292    293    300   1    110.7000    313.8000
    292    293    301   1    110.7000    313.8000
    299    293    300   1    107.8000    276.1440
    299    293    301   1    107.8000    276.1440
    300    293    301   1    107.8000    276.1440

[ dihedrals ]
; Proper dihedrals
      8      1      2      3   5     0.00000     0.00000    -0.94140  0.0
      8      1      2     10   5     0.00000     0.00000     1.25520  0.0
      8      1      2     17   5     0.00000     0.00000     1.25520  0.0
      9      1      2      3   5     0.00000     0.00000    -0.94140  0.0
      9      1      2     10   5     0.00000     0.00000     1.25520  0.0
      9      1      2     17   5     0.00000     0.00000     1.25520  0.0
     16      1      2      3   5     0.00000     0.00000    -0.94140  0.0
     16      1      2     10   5     0.00000     0.00000     1.25520  0.0
     16      1      2     17   5     0.00000     0.00000     1.25520  0.0
      1      2      3      4   5     0.00000     2.52295     0.00000  0.0
      1      2      3      5   5     0.00000     0.00000     3.07524  0.0
     10      2      3      4   5     0.00000     0.00000     0.00000  0.0
     10      2      3      5   5     0.00000     0.00000     0.00000  0.0
     17      2      3      4   5     0.00000     2.52295     0.00000  0.0
     17      2      3      5   5     0.00000     0.00000     3.07524  0.0
      1      2     17     18   5     4.74884    -0.63178     1.67360  0.0
      1      2     17     24   5     0.00000     0.00000     1.25520  0.0
      1      2     17     25   5     0.00000     0.00000     1.25520  0.0
      3      2     17     18   5    -8.00818    -1.52298     2.46438  0.0
      3      2     17     24   5     0.00000     0.00000    -0.94140  0.0
      3      2     17     25   5     0.00000     0.00000    -0.94140  0.0
     10      2     17     18   5     0.00000     0.00000     1.25520  0.0
     10      2     17     24   5     0.00000     0.00000     1.25520  0.0
     10      2     17     25   5     0.00000     0.00000     1.25520  0.0
      2      3      5      6   5    13.65239    24.43456     0.00000  0.0
      4      3      5      6   5     0.00000    25.10400     0.00000  0.0
      3      5      6      7   5    -2.16731    -3.93296     0.98324  0.0
      3      5      6     11   5     0.00000     0.00000     0.67362  0.0
      3      5      6     12   5     0.00000     0.00000     0.67362  0.0
      5      6      7     13   5     0.00000     0.00000     1.95811  0.0
      5      6      7     14   5     0.00000     0.00000     1.95811  0.0
      5      6      7     15   5     0.00000     0.00000     1.95811  0.0
     11      6      7     13   5     0.00000     0.00000     1.25520  0.0
     11      6      7     14   5     0.00000     0.00000     1.25520  0.0
     11      6      7     15   5     0.00000     0.00000     1.25520  0.0
     12      6      7     13   5     0.00000     0.00000     1.25520  0.0
     12      6      7     14   5     0.00000     0.00000     1.25520  0.0
     12      6      7     15   5     0.00000     0.00000     1.25520  0.0
      2     17     18     19   5    -8.00818    -1.52298     2.46438  0.0
      2     17     18     26   5     0.00000     0.00000     1.25520  0.0
      2     17     18     32   5     4.74884    -0.63178     1.67360  0.0
     24     17     18     19   5     0.00000     0.00000    -0.94140  0.0
     24     17     18     26   5     0.00000     0.00000     1.25520  0.0
     24     17     18     32   5     0.00000     0.00000     1.25520  0.0
     25     17     18     19   5     0.00000     0.00000    -0.94140  0.0
     25     17     18     26   5     0.00000     0.00000     1.25520  0.0
     25     17     18     32   5     0.00000     0.00000     1.25520  0.0
     17     18     19     20   5     0.00000     2.52295     0.00000  0.0
     17     18     19     21   5     0.00000     0.00000     3.07524  0.0
     26     18     19     20   5     0.00000     0.00000     0.00000  0.0
     26     18     19     21   5     0.00000     0.00000     0.00000  0.0
     32     18     19     20   5     0.00000     2.52295     0.00000  0.0
     32     18     19     21   5     0.00000     0.00000     3.07524  0.0
     17     18     32     33   5     4.74884    -0.63178     1.67360  0.0
     17     18     32     39   5     0.00000     0.00000     1.25520  0.0
     17     18     32     40   5     0.00000     0.00000     1.25520  0.0
     19     18     32     33   5    -8.00818    -1.52298     2.46438  0.0
     19     18     32     39   5     0.00000     0.00000    -0.94140  0.0
     19     18     32     40   5     0.00000     0.00000    -0.94140  0.0
     26     18     32     33   5     0.00000     0.00000     1.25520  0.0
     26     18     32     39   5     0.00000     0.00000     1.25520  0.0
     26     18     32     40   5     0.00000     0.00000     1.25520  0.0
     18     19     21     22   5    13.65239    24.43456     0.00000  0.0
     20     19     21     22   5     0.00000    25.10400     0.00000  0.0
     19     21     22     23   5    -2.16731    -3.93296     0.98324  0.0
     19     21     22     27   5     0.00000     0.00000     0.67362  0.0
     19     21     22     28   5     0.00000     0.00000     0.67362  0.0
     21     22     23     29   5     0.00000     0.00000     1.95811  0.0
     21     22     23     30   5     0.00000     0.00000     1.95811  0.0
     21     22     23     31   5     0.00000     0.00000     1.95811  0.0
     27     22     23     29   5     0.00000     0.00000     1.25520  0.0
     27     22     23     30   5     0.00000     0.00000     1.25520  0.0
     27     22     23     31   5     0.00000     0.00000     1.25520  0.0
     28     22     23     29   5     0.00000     0.00000     1.25520  0.0
     28     22     23     30   5     0.00000     0.00000     1.25520  0.0
     28     22     23     31   5     0.00000     0.00000     1.25520  0.0
     18     32     33     34   5    -8.00818    -1.52298     2.46438  0.0
     18     32     33     41   5     0.00000     0.00000     1.25520  0.0
     18     32     33     47   5     4.74884    -0.63178     1.67360  0.0
     39     32     33     34   5     0.00000     0.00000    -0.94140  0.0
     39     32     33     41   5     0.00000     0.00000     1.25520  0.0
     39     32     33     47   5     0.00000     0.00000     1.25520  0.0
     40     32     33     34   5     0.00000     0.00000    -0.94140  0.0
     40     32     33     41   5     0.00000     0.00000     1.25520  0.0
     40     32     33     47   5     0.00000     0.00000     1.25520  0.0
     32     33     34     35   5     0.00000     2.52295     0.00000  0.0
     32     33     34     36   5     0.00000     0.00000     3.07524  0.0
     41     33     34     35   5     0.00000     0.00000     0.00000  0.0
     41     33     34     36   5     0.00000     0.00000     0.00000  0.0
     47     33     34     35   5     0.00000     2.52295     0.00000  0.0
     47     33     34     36   5     0.00000     0.00000     3.07524  0.0
     32     33     47     48   5     4.74884    -0.63178     1.67360  0.0
     32     33     47     54   5     0.00000     0.00000     1.25520  0.0
     32     33     47     55   5     0.00000     0.00000     1.25520  0.0
     34     33     47     48   5    -8.00818    -1.52298     2.46438  0.0
     34     33     47     54   5     0.00000     0.00000    -0.94140  0.0
     34     33     47     55   5     0.00000     0.00000    -0.94140  0.0
     41     33     47     48   5     0.00000     0.00000     1.25520  0.0
     41     33     47     54   5     0.00000     0.00000     1.25520  0.0
     41     33     47     55   5     0.00000     0.00000     1.25520  0.0
     33     34     36     37   5    13.65239    24.43456     0.00000  0.0
     35     34     36     37   5     0.00000    25.10400     0.00000  0.0
     34     36     37     38   5    -2.16731    -3.93296     0.98324  0.0
     34     36     37     42   5     0.00000     0.00000     0.67362  0.0
     34     36     37     43   5     0.00000     0.00000     0.67362  0.0
     36     37     38     44   5     0.00000     0.00000     1.95811  0.0
     36     37     38     45   5     0.00000     0.00000     1.95811  0.0
     36     37     38     46   5     0.00000     0.00000     1.95811  0.0
     42     37     38     44   5     0.00000     0.00000     1.25520  0.0
     42     37     38     45   5     0.00000     0.00000     1.25520  0.0
     42     37     38     46   5     0.00000     0.00000     1.25520  0.0
     43     37     38     44   5     0.00000     0.00000     1.25520  0.0
     43     37     38     45   5     0.00000     0.00000     1.25520  0.0
     43     37     38     46   5     0.00000     0.00000     1.25520  0.0
     33     47     48     49   5    -8.00818    -1.52298     2.46438  0.0
     33     47     48     56   5     0.00000     0.00000     1.25520  0.0
     33     47     48     62   5     4.74884    -0.63178     1.67360  0.0
     54     47     48     49   5     0.00000     0.00000    -0.94140  0.0
     54     47     48     56   5     0.00000     0.00000     1.25520  0.0
     54     47     48     62   5     0.00000     0.00000     1.25520  0.0
     55     47     48     49   5     0.00000     0.00000    -0.94140  0.0
     55     47     48     56   5     0.00000     0.00000     1.25520  0.0
     55     47     48     62   5     0.00000     0.00000     1.25520  0.0
     47     48     49     50   5     0.00000     2.52295     0.00000  0.0
     47     48     49     51   5     0.00000     0.00000     3.07524  0.0
     56     48     49     50   5     0.00000     0.00000     0.00000  0.0
     56     48     49     51   5     0.00000     0.00000     0.00000  0.0
     62     48     49     50   5     0.00000     2.52295     0.00000  0.0
     62     48     49     51   5     0.00000     0.00000     3.07524  0.0
     47     48     62     63   5     4.74884    -0.63178     1.67360  0.0
     47     48     62     69   5     0.00000     0.00000     1.25520  0.0
     47     48     62     70   5     0.00000     0.00000     1.25520  0.0
     49     48     62     63   5    -8.00818    -1.52298     2.46438  0.0
     49     48     62     69   5     0.00000     0.00000    -0.94140  0.0
     49     48     62     70   5     0.00000     0.00000    -0.94140  0.0
     56     48     62     63   5     0.00000     0.00000     1.25520  0.0
     56     48     62     69   5     0.00000     0.00000     1.25520  0.0
     56     48     62     70   5     0.00000     0.00000     1.25520  0.0
     48     49     51     52   5    13.65239    24.43456     0.00000  0.0
     50     49     51     52   5     0.00000    25.10400     0.00000  0.0
     49     51     52     53   5    -2.16731    -3.93296     0.98324  0.0
     49     51     52     57   5     0.00000     0.00000     0.67362  0.0
     49     51     52     58   5     0.00000     0.00000     0.67362  0.0
     51     52     53     59   5     0.00000     0.00000     1.95811  0.0
     51     52     53     60   5     0.00000     0.00000     1.95811  0.0
     51     52     53     61   5     0.00000     0.00000     1.95811  0.0
     57     52     53     59   5     0.00000     0.00000     1.25520  0.0
     57     52     53     60   5     0.00000     0.00000     1.25520  0.0
     57     52     53     61   5     0.00000     0.00000     1.25520  0.0
     58     52     53     59   5     0.00000     0.00000     1.25520  0.0
     58     52     53     60   5     0.00000     0.00000     1.25520  0.0
     58     52     53     61   5     0.00000     0.00000     1.25520  0.0
     48     62     63     64   5    -8.00818    -1.52298     2.46438  0.0
     48     62     63     71   5     0.00000     0.00000     1.25520  0.0
     48     62     63     77   5     4.74884    -0.63178     1.67360  0.0
     69     62     63     64   5     0.00000     0.00000    -0.94140  0.0
     69     62     63     71   5     0.00000     0.00000     1.25520  0.0
     69     62     63     77   5     0.00000     0.00000     1.25520  0.0
     70     62     63     64   5     0.00000     0.00000    -0.94140  0.0
     70     62     63     71   5     0.00000     0.00000     1.25520  0.0
     70     62     63     77   5     0.00000     0.00000     1.25520  0.0
     62     63     64     65   5     0.00000     2.52295     0.00000  0.0
     62     63     64     66   5     0.00000     0.00000     3.07524  0.0
     71     63     64     65   5     0.00000     0.00000     0.00000  0.0
     71     63     64     66   5     0.00000     0.00000     0.00000  0.0
     77     63     64     65   5     0.00000     2.52295     0.00000  0.0
     77     63     64     66   5     0.00000     0.00000     3.07524  0.0
     62     63     77     78   5     4.74884    -0.63178     1.67360  0.0
     62     63     77     84   5     0.00000     0.00000     1.25520  0.0
     62     63     77     85   5     0.00000     0.00000     1.25520  0.0
     64     63     77     78   5    -8.00818    -1.52298     2.46438  0.0
     64     63     77     84   5     0.00000     0.00000    -0.94140  0.0
     64     63     77     85   5     0.00000     0.00000    -0.94140  0.0
     71     63     77     78   5     0.00000     0.00000     1.25520  0.0
     71     63     77     84   5     0.00000     0.00000     1.25520  0.0
     71     63     77     85   5     0.00000     0.00000     1.25520  0.0
     63     64     66     67   5    13.65239    24.43456     0.00000  0.0
     65     64     66     67   5     0.00000    25.10400     0.00000  0.0
     64     66     67     68   5    -2.16731    -3.93296     0.98324  0.0
     64     66     67     72   5     0.00000     0.00000     0.67362  0.0
     64     66     67     73   5     0.00000     0.00000     0.67362  0.0
     66     67     68     74   5     0.00000     0.00000     1.95811  0.0
     66     67     68     75   5     0.00000     0.00000     1.95811  0.0
     66     67     68     76   5     0.00000     0.00000     1.95811  0.0
     72     67     68     74   5     0.00000     0.00000     1.25520  0.0
     72     67     68     75   5     0.00000     0.00000     1.25520  0.0
     72     67     68     76   5     0.00000     0.00000     1.25520  0.0
     73     67     68     74   5     0.00000     0.00000     1.25520  0.0
     73     67     68     75   5     0.00000     0.00000     1.25520  0.0
     73     67     68     76   5     0.00000     0.00000     1.25520  0.0
     63     77     78     79   5    -8.00818    -1.52298     2.46438  0.0
     63     77     78     86   5     0.00000     0.00000     1.25520  0.0
     63     77     78     92   5     4.74884    -0.63178     1.67360  0.0
     84     77     78     79   5     0.00000     0.00000    -0.94140  0.0
     84     77     78     86   5     0.00000     0.00000     1.25520  0.0
     84     77     78     92   5     0.00000     0.00000     1.25520  0.0
     85     77     78     79   5     0.00000     0.00000    -0.94140  0.0
     85     77     78     86   5     0.00000     0.00000     1.25520  0.0
     85     77     78     92   5     0.00000     0.00000     1.25520  0.0
     77     78     79     80   5     0.00000     2.52295     0.00000  0.0
     77     78     79     81   5     0.00000     0.00000     3.07524  0.0
     86     78     79     80   5     0.00000     0.00000     0.00000  0.0
     86     78     79     81   5     0.00000     0.00000     0.00000  0.0
     92     78     79     80   5     0.00000     2.52295     0.00000  0.0
     92     78     79     81   5     0.00000     0.00000     3.07524  0.0
     77     78     92     93   5     4.74884    -0.63178     1.67360  0.0
     77     78     92     99   5     0.00000     0.00000     1.25520  0.0
     77     78     92    100   5     0.00000     0.00000     1.25520  0.0
     79     78     92     93   5    -8.00818    -1.52298     2.46438  0.0
     79     78     92     99   5     0.00000     0.00000    -0.94140  0.0
     79     78     92    100   5     0.00000     0.00000    -0.94140  0.0
     86     78     92     93   5     0.00000     0.00000     1.25520  0.0
     86     78     92     99   5     0.00000     0.00000     1.25520  0.0
     86     78     92    100   5     0.00000     0.00000     1.25520  0.0
     78     79     81     82   5    13.65239    24.43456     0.00000  0.0
     80     79     81     82   5     0.00000    25.10400     0.00000  0.0
     79     81     82     83   5    -2.16731    -3.93296     0.98324  0.0
     79     81     82     87   5     0.00000     0.00000     0.67362  0.0
     79     81     82     88   5     0.00000     0.00000     0.67362  0.0
     81     82     83     89   5     0.00000     0.00000     1.95811  0.0
     81     82     83     90   5     0.00000     0.00000     1.95811  0.0
     81     82     83     91   5     0.00000     0.00000     1.95811  0.0
     87     82     83     89   5     0.00000     0.00000     1.25520  0.0
     87     82     83     90   5     0.00000     0.00000     1.25520  0.0
     87     82     83     91   5     0.00000     0.00000     1.25520  0.0
     88     82     83     89   5     0.00000     0.00000     1.25520  0.0
     88     82     83     90   5     0.00000     0.00000     1.25520  0.0
     88     82     83     91   5     0.00000     0.00000     1.25520  0.0
     78     92     93     94   5    -8.00818    -1.52298     2.46438  0.0
     78     92     93    101   5     0.00000     0.00000     1.25520  0.0
     78     92     93    107   5     4.74884    -0.63178     1.67360  0.0
     99     92     93     94   5     0.00000     0.00000    -0.94140  0.0
     99     92     93    101   5     0.00000     0.00000     1.25520  0.0
     99     92     93    107   5     0.00000     0.00000     1.25520  0.0
    100     92     93     94   5     0.00000     0.00000    -0.94140  0.0
    100     92     93    101   5     0.00000     0.00000     1.25520  0.0
    100     92     93    107   5     0.00000     0.00000     1.25520  0.0
     92     93     94     95   5     0.00000     2.52295     0.00000  0.0
     92     93     94     96   5     0.00000     0.00000     3.07524  0.0
    101     93     94     95   5     0.00000     0.00000     0.00000  0.0
    101     93     94     96   5     0.00000     0.00000     0.00000  0.0
    107     93     94     95   5     0.00000     2.52295     0.00000  0.0
    107     93     94     96   5     0.00000     0.00000     3.07524  0.0
     92     93    107    108   5     4.74884    -0.63178     1.67360  0.0
     92     93    107    114   5     0.00000     0.00000     1.25520  0.0
     92     93    107    115   5     0.00000     0.00000     1.25520  0.0
     94     93    107    108   5    -8.00818    -1.52298     2.46438  0.0
     94     93    107    114   5     0.00000     0.00000    -0.94140  0.0
     94     93    107    115   5     0.00000     0.00000    -0.94140  0.0
    101     93    107    108   5     0.00000     0.00000     1.25520  0.0
    101     93    107    114   5     0.00000     0.00000     1.25520  0.0
    101     93    107    115   5     0.00000     0.00000     1.25520  0.0
     93     94     96     97   5    13.65239    24.43456     0.00000  0.0
     95     94     96     97   5     0.00000    25.10400     0.00000  0.0
     94     96     97     98   5    -2.16731    -3.93296     0.98324  0.0
     94     96     97    102   5     0.00000     0.00000     0.67362  0.0
     94     96     97    103   5     0.00000     0.00000     0.67362  0.0
     96     97     98    104   5     0.00000     0.00000     1.95811  0.0
     96     97     98    105   5     0.00000     0.00000     1.95811  0.0
     96     97     98    106   5     0.00000     0.00000     1.95811  0.0
    102     97     98    104   5     0.00000     0.00000     1.25520  0.0
    102     97     98    105   5     0.00000     0.00000     1.25520  0.0
    102     97     98    106   5     0.00000     0.00000     1.25520  0.0
    103     97     98    104   5     0.00000     0.00000     1.25520  0.0
    103     97     98    105   5     0.00000     0.00000     1.25520  0.0
    103     97     98    106   5     0.00000     0.00000     1.25520  0.0
     93    107    108    109   5    -8.00818    -1.52298     2.46438  0.0
     93    107    108    116   5     0.00000     0.00000     1.25520  0.0
     93    107    108    122   5     4.74884    -0.63178     1.67360  0.0
    114    107    108    109   5     0.00000     0.00000    -0.94140  0.0
    114    107    108    116   5     0.00000     0.00000     1.25520  0.0
    114    107    108    122   5     0.00000     0.00000     1.25520  0.0
    115    107    108    109   5     0.00000     0.00000    -0.94140  0.0
    115    107    108    116   5     0.00000     0.00000     1.25520  0.0
    115    107    108    122   5     0.00000     0.00000     1.25520  0.0
    107    108    109    110   5     0.00000     2.52295     0.00000  0.0
    107    108    109    111   5     0.00000     0.00000     3.07524  0.0
    116    108    109    110   5     0.00000     0.00000     0.00000  0.0
    116    108    109    111   5     0.00000     0.00000     0.00000  0.0
    122    108    109    110   5     0.00000     2.52295     0.00000  0.0
    122    108    109    111   5     0.00000     0.00000     3.07524  0.0
    107    108    122    123   5     4.74884    -0.63178     1.67360  0.0
    107    108    122    129   5     0.00000     0.00000     1.25520  0.0
    107    108    122    130   5     0.00000     0.00000     1.25520  0.0
    109    108    122    123   5    -8.00818    -1.52298     2.46438  0.0
    109    108    122    129   5     0.00000     0.00000    -0.94140  0.0
    109    108    122    130   5     0.00000     0.00000    -0.94140  0.0
    116    108    122    123   5     0.00000     0.00000     1.25520  0.0
    116    108    122    129   5     0.00000     0.00000     1.25520  0.0
    116    108    122    130   5     0.00000     0.00000     1.25520  0.0
    108    109    111    112   5    13.65239    24.43456     0.00000  0.0
    110    109    111    112   5     0.00000    25.10400     0.00000  0.0
    109    111    112    113   5    -2.16731    -3.93296     0.98324  0.0
    109    111    112    117   5     0.00000     0.00000     0.67362  0.0
    109    111    112    118   5     0.00000     0.00000     0.67362  0.0
    111    112    113    119   5     0.00000     0.00000     1.95811  0.0
    111    112    113    120   5     0.00000     0.00000     1.95811  0.0
    111    112    113    121   5     0.00000     0.00000     1.95811  0.0
    117    112    113    119   5     0.00000     0.00000     1.25520  0.0
    117    112    113    120   5     0.00000     0.00000     1.25520  0.0
    117    112    113    121   5     0.00000     0.00000     1.25520  0.0
    118    112    113    119   5     0.00000     0.00000     1.25520  0.0
    118    112    113    120   5     0.00000     0.00000     1.25520  0.0
    118    112    113    121   5     0.00000     0.00000     1.25520  0.0
    108    122    123    124   5    -8.00818    -1.52298     2.46438  0.0
    108    122    123    131   5     0.00000     0.00000     1.25520  0.0
    108    122    123    137   5     4.74884    -0.63178     1.67360  0.0
    129    122    123    124   5     0.00000     0.00000    -0.94140  0.0
    129    122    123    131   5     0.00000     0.00000     1.25520  0.0
    129    122    123    137   5     0.00000     0.00000     1.25520  0.0
    130    122    123    124   5     0.00000     0.00000    -0.94140  0.0
    130    122    123    131   5     0.00000     0.00000     1.25520  0.0
    130    122    123    137   5     0.00000     0.00000     1.25520  0.0
    122    123    124    125   5     0.00000     2.52295     0.00000  0.0
    122    123    124    126   5     0.00000     0.00000     3.07524  0.0
    131    123    124    125   5     0.00000     0.00000     0.00000  0.0
    131    123    124    126   5     0.00000     0.00000     0.00000  0.0
    137    123    124    125   5     0.00000     2.52295     0.00000  0.0
    137    123    124    126   5     0.00000     0.00000     3.07524  0.0
    122    123    137    138   5     4.74884    -0.63178     1.67360  0.0
    122    123    137    144   5     0.00000     0.00000     1.25520  0.0
    122    123    137    145   5     0.00000     0.00000     1.25520  0.0
    124    123    137    138   5    -8.00818    -1.52298     2.46438  0.0
    124    123    137    144   5     0.00000     0.00000    -0.94140  0.0
    124    123    137    145   5     0.00000     0.00000    -0.94140  0.0
    131    123    137    138   5     0.00000     0.00000     1.25520  0.0
    131    123    137    144   5     0.00000     0.00000     1.25520  0.0
    131    123    137    145   5     0.00000     0.00000     1.25520  0.0
    123    124    126    127   5    13.65239    24.43456     0.00000  0.0
    125    124    126    127   5     0.00000    25.10400     0.00000  0.0
    124    126    127    128   5    -2.16731    -3.93296     0.98324  0.0
    124    126    127    132   5     0.00000     0.00000     0.67362  0.0
    124    126    127    133   5     0.00000     0.00000     0.67362  0.0
    126    127    128    134   5     0.00000     0.00000     1.95811  0.0
    126    127    128    135   5     0.00000     0.00000     1.95811  0.0
    126    127    128    136   5     0.00000     0.00000     1.95811  0.0
    132    127    128    134   5     0.00000     0.00000     1.25520  0.0
    132    127    128    135   5     0.00000     0.00000     1.25520  0.0
    132    127    128    136   5     0.00000     0.00000     1.25520  0.0
    133    127    128    134   5     0.00000     0.00000     1.25520  0.0
    133    127    128    135   5     0.00000     0.00000     1.25520  0.0
    133    127    128    136   5     0.00000     0.00000     1.25520  0.0
    123    137    138    139   5    -8.00818    -1.52298     2.46438  0.0
    123    137    138    146   5     0.00000     0.00000     1.25520  0.0
    123    137    138    152   5     4.74884    -0.63178     1.67360  0.0
    144    137    138    139   5     0.00000     0.00000    -0.94140  0.0
    144    137    138    146   5     0.00000     0.00000     1.25520  0.0
    144    137    138    152   5     0.00000     0.00000     1.25520  0.0
    145    137    138    139   5     0.00000     0.00000    -0.94140  0.0
    145    137    138    146   5     0.00000     0.00000     1.25520  0.0
    145    137    138    152   5     0.00000     0.00000     1.25520  0.0
    137    138    139    140   5     0.00000     2.52295     0.00000  0.0
    137    138    139    141   5     0.00000     0.00000     3.07524  0.0
    146    138    139    140   5     0.00000     0.00000     0.00000  0.0
    146    138    139    141   5     0.00000     0.00000     0.00000  0.0
    152    138    139    140   5     0.00000     2.52295     0.00000  0.0
    152    138    139    141   5     0.00000     0.00000     3.07524  0.0
    137    138    152    153   5     4.74884    -0.63178     1.67360  0.0
    137    138    152    159   5     0.00000     0.00000     1.25520  0.0
    137    138    152    160   5     0.00000     0.00000     1.25520  0.0
    139    138    152    153   5    -8.00818    -1.52298     2.46438  0.0
    139    138    152    159   5     0.00000     0.00000    -0.94140  0.0
    139    138    152    160   5     0.00000     0.00000    -0.94140  0.0
    146    138    152    153   5     0.00000     0.00000     1.25520  0.0
    146    138    152    159   5     0.00000     0.00000     1.25520  0.0
    146    138    152    160   5     0.00000     0.00000     1.25520  0.0
    138    139    141    142   5    13.65239    24.43456     0.00000  0.0
    140    139    141    142   5     0.00000    25.10400     0.00000  0.0
    139    141    142    143   5    -2.16731    -3.93296     0.98324  0.0
    139    141    142    147   5     0.00000     0.00000     0.67362  0.0
    139    141    142    148   5     0.00000     0.00000     0.67362  0.0
    141    142    143    149   5     0.00000     0.00000     1.95811  0.0
    141    142    143    150   5     0.00000     0.00000     1.95811  0.0
    141    142    143    151   5     0.00000     0.00000     1.95811  0.0
    147    142    143    149   5     0.00000     0.00000     1.25520  0.0
    147    142    143    150   5     0.00000     0.00000     1.25520  0.0
    147    142    143    151   5     0.00000     0.00000     1.25520  0.0
    148    142    143    149   5     0.00000     0.00000     1.25520  0.0
    148    142    143    150   5     0.00000     0.00000     1.25520  0.0
    148    142    143    151   5     0.00000     0.00000     1.25520  0.0
    138    152    153    154   5    -8.00818    -1.52298     2.46438  0.0
    138    152    153    161   5     0.00000     0.00000     1.25520  0.0
    138    152    153    167   5     4.74884    -0.63178     1.67360  0.0
    159    152    153    154   5     0.00000     0.00000    -0.94140  0.0
    159    152    153    161   5     0.00000     0.00000     1.25520  0.0
    159    152    153    167   5     0.00000     0.00000     1.25520  0.0
    160    152    153    154   5     0.00000     0.00000    -0.94140  0.0
    160    152    153    161   5     0.00000     0.00000     1.25520  0.0
    160    152    153    167   5     0.00000     0.00000     1.25520  0.0
    152    153    154    155   5     0.00000     2.52295     0.00000  0.0
    152    153    154    156   5     0.00000     0.00000     3.07524  0.0
    161    153    154    155   5     0.00000     0.00000     0.00000  0.0
    161    153    154    156   5     0.00000     0.00000     0.00000  0.0
    167    153    154    155   5     0.00000     2.52295     0.00000  0.0
    167    153    154    156   5     0.00000     0.00000     3.07524  0.0
    152    153    167    168   5     4.74884    -0.63178     1.67360  0.0
    152    153    167    174   5     0.00000     0.00000     1.25520  0.0
    152    153    167    175   5     0.00000     0.00000     1.25520  0.0
    154    153    167    168   5    -8.00818    -1.52298     2.46438  0.0
    154    153    167    174   5     0.00000     0.00000    -0.94140  0.0
    154    153    167    175   5     0.00000     0.00000    -0.94140  0.0
    161    153    167    168   5     0.00000     0.00000     1.25520  0.0
    161    153    167    174   5     0.00000     0.00000     1.25520  0.0
    161    153    167    175   5     0.00000     0.00000     1.25520  0.0
    153    154    156    157   5    13.65239    24.43456     0.00000  0.0
    155    154    156    157   5     0.00000    25.10400     0.00000  0.0
    154    156    157    158   5    -2.16731    -3.93296     0.98324  0.0
    154    156    157    162   5     0.00000     0.00000     0.67362  0.0
    154    156    157    163   5     0.00000     0.00000     0.67362  0.0
    156    157    158    164   5     0.00000     0.00000     1.95811  0.0
    156    157    158    165   5     0.00000     0.00000     1.95811  0.0
    156    157    158    166   5     0.00000     0.00000     1.95811  0.0
    162    157    158    164   5     0.00000     0.00000     1.25520  0.0
    162    157    158    165   5     0.00000     0.00000     1.25520  0.0
    162    157    158    166   5     0.00000     0.00000     1.25520  0.0
    163    157    158    164   5     0.00000     0.00000     1.25520  0.0
    163    157    158    165   5     0.00000     0.00000     1.25520  0.0
    163    157    158    166   5     0.00000     0.00000     1.25520  0.0
    153    167    168    169   5    -8.00818    -1.52298     2.46438  0.0
    153    167    168    176   5     0.00000     0.00000     1.25520  0.0
    153    167    168    182   5     4.74884    -0.63178     1.67360  0.0
    174    167    168    169   5     0.00000     0.00000    -0.94140  0.0
    174    167    168    176   5     0.00000     0.00000     1.25520  0.0
    174    167    168    182   5     0.00000     0.00000     1.25520  0.0
    175    167    168    169   5     0.00000     0.00000    -0.94140  0.0
    175    167    168    176   5     0.00000     0.00000     1.25520  0.0
    175    167    168    182   5     0.00000     0.00000     1.25520  0.0
    167    168    169    170   5     0.00000     2.52295     0.00000  0.0
    167    168    169    171   5     0.00000     0.00000     3.07524  0.0
    176    168    169    170   5     0.00000     0.00000     0.00000  0.0
    176    168    169    171   5     0.00000     0.00000     0.00000  0.0
    182    168    169    170   5     0.00000     2.52295     0.00000  0.0
    182    168    169    171   5     0.00000     0.00000     3.07524  0.0
    167    168    182    183   5     4.74884    -0.63178     1.67360  0.0
    167    168    182    189   5     0.00000     0.00000     1.25520  0.0
    167    168    182    190   5     0.00000     0.00000     1.25520  0.0
    169    168    182    183   5    -8.00818    -1.52298     2.46438  0.0
    169    168    182    189   5     0.00000     0.00000    -0.94140  0.0
    169    168    182    190   5     0.00000     0.00000    -0.94140  0.0
    176    168    182    183   5     0.00000     0.00000     1.25520  0.0
    176    168    182    189   5     0.00000     0.00000     1.25520  0.0
    176    168    182    190   5     0.00000     0.00000     1.25520  0.0
    168    169    171    172   5    13.65239    24.43456     0.00000  0.0
    170    169    171    172   5     0.00000    25.10400     0.00000  0.0
    169    171    172    173   5    -2.16731    -3.93296     0.98324  0.0
    169    171    172    177   5     0.00000     0.00000     0.67362  0.0
    169    171    172    178   5     0.00000     0.00000     0.67362  0.0
    171    172    173    179   5     0.00000     0.00000     1.95811  0.0
    171    172    173    180   5     0.00000     0.00000     1.95811  0.0
    171    172    173    181   5     0.00000     0.00000     1.95811  0.0
    177    172    173    179   5     0.00000     0.00000     1.25520  0.0
    177    172    173    180   5     0.00000     0.00000     1.25520  0.0
    177    172    173    181   5     0.00000     0.00000     1.25520  0.0
    178    172    173    179   5     0.00000     0.00000     1.25520  0.0
    178    172    173    180   5     0.00000     0.00000     1.25520  0.0
    178    172    173    181   5     0.00000     0.00000     1.25520  0.0
    168    182    183    184   5    -8.00818    -1.52298     2.46438  0.0
    168    182    183    191   5     0.00000     0.00000     1.25520  0.0
    168    182    183    197   5     4.74884    -0.63178     1.67360  0.0
    189    182    183    184   5     0.00000     0.00000    -0.94140  0.0
    189    182    183    191   5     0.00000     0.00000     1.25520  0.0
    189    182    183    197   5     0.00000     0.00000     1.25520  0.0
    190    182    183    184   5     0.00000     0.00000    -0.94140  0.0
    190    182    183    191   5     0.00000     0.00000     1.25520  0.0
    190    182    183    197   5     0.00000     0.00000     1.25520  0.0
    182    183    184    185   5     0.00000     2.52295     0.00000  0.0
    182    183    184    186   5     0.00000     0.00000     3.07524  0.0
    191    183    184    185   5     0.00000     0.00000     0.00000  0.0
    191    183    184    186   5     0.00000     0.00000     0.00000  0.0
    197    183    184    185   5     0.00000     2.52295     0.00000  0.0
    197    183    184    186   5     0.00000     0.00000     3.07524  0.0
    182    183    197    198   5     4.74884    -0.63178     1.67360  0.0
    182    183    197    204   5     0.00000     0.00000     1.25520  0.0
    182    183    197    205   5     0.00000     0.00000     1.25520  0.0
    184    183    197    198   5    -8.00818    -1.52298     2.46438  0.0
    184    183    197    204   5     0.00000     0.00000    -0.94140  0.0
    184    183    197    205   5     0.00000     0.00000    -0.94140  0.0
    191    183    197    198   5     0.00000     0.00000     1.25520  0.0
    191    183    197    204   5     0.00000     0.00000     1.25520  0.0
    191    183    197    205   5     0.00000     0.00000     1.25520  0.0
    183    184    186    187   5    13.65239    24.43456     0.00000  0.0
    185    184    186    187   5     0.00000    25.10400     0.00000  0.0
    184    186    187    188   5    -2.16731    -3.93296     0.98324  0.0
    184    186    187    192   5     0.00000     0.00000     0.67362  0.0
    184    186    187    193   5     0.00000     0.00000     0.67362  0.0
    186    187    188    194   5     0.00000     0.00000     1.95811  0.0
    186    187    188    195   5     0.00000     0.00000     1.95811  0.0
    186    187    188    196   5     0.00000     0.00000     1.95811  0.0
    192    187    188    194   5     0.00000     0.00000     1.25520  0.0
    192    187    188    195   5     0.00000     0.00000     1.25520  0.0
    192    187    188    196   5     0.00000     0.00000     1.25520  0.0
    193    187    188    194   5     0.00000     0.00000     1.25520  0.0
    193    187    188    195   5     0.00000     0.00000     1.25520  0.0
    193    187    188    196   5     0.00000     0.00000     1.25520  0.0
    183    197    198    199   5    -8.00818    -1.52298     2.46438  0.0
    183    197    198    206   5     0.00000     0.00000     1.25520  0.0
    183    197    198    212   5     4.74884    -0.63178     1.67360  0.0
    204    197    198    199   5     0.00000     0.00000    -0.94140  0.0
    204    197    198    206   5     0.00000     0.00000     1.25520  0.0
    204    197    198    212   5     0.00000     0.00000     1.25520  0.0
    205    197    198    199   5     0.00000     0.00000    -0.94140  0.0
    205    197    198    206   5     0.00000     0.00000     1.25520  0.0
    205    197    198    212   5     0.00000     0.00000     1.25520  0.0
    197    198    199    200   5     0.00000     2.52295     0.00000  0.0
    197    198    199    201   5     0.00000     0.00000     3.07524  0.0
    206    198    199    200   5     0.00000     0.00000     0.00000  0.0
    206    198    199    201   5     0.00000     0.00000     0.00000  0.0
    212    198    199    200   5     0.00000     2.52295     0.00000  0.0
    212    198    199    201   5     0.00000     0.00000     3.07524  0.0
    197    198    212    213   5     4.74884    -0.63178     1.67360  0.0
    197    198    212    219   5     0.00000     0.00000     1.25520  0.0
    197    198    212    220   5     0.00000     0.00000     1.25520  0.0
    199    198    212    213   5    -8.00818    -1.52298     2.46438  0.0
    199    198    212    219   5     0.00000     0.00000    -0.94140  0.0
    199    198    212    220   5     0.00000     0.00000    -0.94140  0.0
    206    198    212    213   5     0.00000     0.00000     1.25520  0.0
    206    198    212    219   5     0.00000     0.00000     1.25520  0.0
    206    198    212    220   5     0.00000     0.00000     1.25520  0.0
    198    199    201    202   5    13.65239    24.43456     0.00000  0.0
    200    199    201    202   5     0.00000    25.10400     0.00000  0.0
    199    201    202    203   5    -2.16731    -3.93296     0.98324  0.0
    199    201    202    207   5     0.00000     0.00000     0.67362  0.0
    199    201    202    208   5     0.00000     0.00000     0.67362  0.0
    201    202    203    209   5     0.00000     0.00000     1.95811  0.0
    201    202    203    210   5     0.00000     0.00000     1.95811  0.0
    201    202    203    211   5     0.00000     0.00000     1.95811  0.0
    207    202    203    209   5     0.00000     0.00000     1.25520  0.0
    207    202    203    210   5     0.00000     0.00000     1.25520  0.0
    207    202    203    211   5     0.00000     0.00000     1.25520  0.0
    208    202    203    209   5     0.00000     0.00000     1.25520  0.0
    208    202    203    210   5     0.00000     0.00000     1.25520  0.0
    208    202    203    211   5     0.00000     0.00000     1.25520  0.0
    198    212    213    214   5    -8.00818    -1.52298     2.46438  0.0
    198    212    213    221   5     0.00000     0.00000     1.25520  0.0
    198    212    213    227   5     4.74884    -0.63178     1.67360  0.0
    219    212    213    214   5     0.00000     0.00000    -0.94140  0.0
    219    212    213    221   5     0.00000     0.00000     1.25520  0.0
    219    212    213    227   5     0.00000     0.00000     1.25520  0.0
    220    212    213    214   5     0.00000     0.00000    -0.94140  0.0
    220    212    213    221   5     0.00000     0.00000     1.25520  0.0
    220    212    213    227   5     0.00000     0.00000     1.25520  0.0
    212    213    214    215   5     0.00000     2.52295     0.00000  0.0
    212    213    214    216   5     0.00000     0.00000     3.07524  0.0
    221    213    214    215   5     0.00000     0.00000     0.00000  0.0
    221    213    214    216   5     0.00000     0.00000     0.00000  0.0
    227    213    214    215   5     0.00000     2.52295     0.00000  0.0
    227    213    214    216   5     0.00000     0.00000     3.07524  0.0
    212    213    227    228   5     4.74884    -0.63178     1.67360  0.0
    212    213    227    234   5     0.00000     0.00000     1.25520  0.0
    212    213    227    235   5     0.00000     0.00000     1.25520  0.0
    214    213    227    228   5    -8.00818    -1.52298     2.46438  0.0
    214    213    227    234   5     0.00000     0.00000    -0.94140  0.0
    214    213    227    235   5     0.00000     0.00000    -0.94140  0.0
    221    213    227    228   5     0.00000     0.00000     1.25520  0.0
    221    213    227    234   5     0.00000     0.00000     1.25520  0.0
    221    213    227    235   5     0.00000     0.00000     1.25520  0.0
    213    214    216    217   5    13.65239    24.43456     0.00000  0.0
    215    214    216    217   5     0.00000    25.10400     0.00000  0.0
    214    216    217    218   5    -2.16731    -3.93296     0.98324  0.0
    214    216    217    222   5     0.00000     0.00000     0.67362  0.0
    214    216    217    223   5     0.00000     0.00000     0.67362  0.0
    216    217    218    224   5     0.00000     0.00000     1.95811  0.0
    216    217    218    225   5     0.00000     0.00000     1.95811  0.0
    216    217    218    226   5     0.00000     0.00000     1.95811  0.0
    222    217    218    224   5     0.00000     0.00000     1.25520  0.0
    222    217    218    225   5     0.00000     0.00000     1.25520  0.0
    222    217    218    226   5     0.00000     0.00000     1.25520  0.0
    223    217    218    224   5     0.00000     0.00000     1.25520  0.0
    223    217    218    225   5     0.00000     0.00000     1.25520  0.0
    223    217    218    226   5     0.00000     0.00000     1.25520  0.0
    213    227    228    229   5    -8.00818    -1.52298     2.46438  0.0
    213    227    228    236   5     0.00000     0.00000     1.25520  0.0
    213    227    228    242   5     4.74884    -0.63178     1.67360  0.0
    234    227    228    229   5     0.00000     0.00000    -0.94140  0.0
    234    227    228    236   5     0.00000     0.00000     1.25520  0.0
    234    227    228    242   5     0.00000     0.00000     1.25520  0.0
    235    227    228    229   5     0.00000     0.00000    -0.94140  0.0
    235    227    228    236   5     0.00000     0.00000     1.25520  0.0
    235    227    228    242   5     0.00000     0.00000     1.25520  0.0
    227    228    229    230   5     0.00000     2.52295     0.00000  0.0
    227    228    229    231   5     0.00000     0.00000     3.07524  0.0
    236    228    229    230   5     0.00000     0.00000     0.00000  0.0
    236    228    229    231   5     0.00000     0.00000     0.00000  0.0
    242    228    229    230   5     0.00000     2.52295     0.00000  0.0
    242    228    229    231   5     0.00000     0.00000     3.07524  0.0
    227    228    242    243   5     4.74884    -0.63178     1.67360  0.0
    227    228    242    249   5     0.00000     0.00000     1.25520  0.0
    227    228    242    250   5     0.00000     0.00000     1.25520  0.0
    229    228    242    243   5    -8.00818    -1.52298     2.46438  0.0
    229    228    242    249   5     0.00000     0.00000    -0.94140  0.0
    229    228    242    250   5     0.00000     0.00000    -0.94140  0.0
    236    228    242    243   5     0.00000     0.00000     1.25520  0.0
    236    228    242    249   5     0.00000     0.00000     1.25520  0.0
    236    228    242    250   5     0.00000     0.00000     1.25520  0.0
    228    229    231    232   5    13.65239    24.43456     0.00000  0.0
    230    229    231    232   5     0.00000    25.10400     0.00000  0.0
    229    231    232    233   5    -2.16731    -3.93296     0.98324  0.0
    229    231    232    237   5     0.00000     0.00000     0.67362  0.0
    229    231    232    238   5     0.00000     0.00000     0.67362  0.0
    231    232    233    239   5     0.00000     0.00000     1.95811  0.0
    231    232    233    240   5     0.00000     0.00000     1.95811  0.0
    231    232    233    241   5     0.00000     0.00000     1.95811  0.0
    237    232    233    239   5     0.00000     0.00000     1.25520  0.0
    237    232    233    240   5     0.00000     0.00000     1.25520  0.0
    237    232    233    241   5     0.00000     0.00000     1.25520  0.0
    238    232    233    239   5     0.00000     0.00000     1.25520  0.0
    238    232    233    240   5     0.00000     0.00000     1.25520  0.0
    238    232    233    241   5     0.00000     0.00000     1.25520  0.0
    228    242    243    244   5    -8.00818    -1.52298     2.46438  0.0
    228    242    243    251   5     0.00000     0.00000     1.25520  0.0
    228    242    243    257   5     4.74884    -0.63178     1.67360  0.0
    249    242    243    244   5     0.00000     0.00000    -0.94140  0.0
    249    242    243    251   5     0.00000     0.00000     1.25520  0.0
    249    242    243    257   5     0.00000     0.00000     1.25520  0.0
    250    242    243    244   5     0.00000     0.00000    -0.94140  0.0
    250    242    243    251   5     0.00000     0.00000     1.25520  0.0
    250    242    243    257   5     0.00000     0.00000     1.25520  0.0
    242    243    244    245   5     0.00000     2.52295     0.00000  0.0
    242    243    244    246   5     0.00000     0.00000     3.07524  0.0
    251    243    244    245   5     0.00000     0.00000     0.00000  0.0
    251    243    244    246   5     0.00000     0.00000     0.00000  0.0
    257    243    244    245   5     0.00000     2.52295     0.00000  0.0
    257    243    244    246   5     0.00000     0.00000     3.07524  0.0
    242    243    257    258   5     4.74884    -0.63178     1.67360  0.0
    242    243    257    264   5     0.00000     0.00000     1.25520  0.0
    242    243    257    265   5     0.00000     0.00000     1.25520  0.0
    244    243    257    258   5    -8.00818    -1.52298     2.46438  0.0
    244    243    257    264   5     0.00000     0.00000    -0.94140  0.0
    244    243    257    265   5     0.00000     0.00000    -0.94140  0.0
    251    243    257    258   5     0.00000     0.00000     1.25520  0.0
    251    243    257    264   5     0.00000     0.00000     1.25520  0.0
    251    243    257    265   5     0.00000     0.00000     1.25520  0.0
    243    244    246    247   5    13.65239    24.43456     0.00000  0.0
    245    244    246    247   5     0.00000    25.10400     0.00000  0.0
    244    246    247    248   5    -2.16731    -3.93296     0.98324  0.0
    244    246    247    252   5     0.00000     0.00000     0.67362  0.0
    244    246    247    253   5     0.00000     0.00000     0.67362  0.0
    246    247    248    254   5     0.00000     0.00000     1.95811  0.0
    246    247    248    255   5     0.00000     0.00000     1.95811  0.0
    246    247    248    256   5     0.00000     0.00000     1.95811  0.0
    252    247    248    254   5     0.00000     0.00000     1.25520  0.0
    252    247    248    255   5     0.00000     0.00000     1.25520  0.0
    252    247    248    256   5     0.00000     0.00000     1.25520  0.0
    253    247    248    254   5     0.00000     0.00000     1.25520  0.0
    253    247    248    255   5     0.00000     0.00000     1.25520  0.0
    253    247    248    256   5     0.00000     0.00000     1.25520  0.0
    243    257    258    259   5    -8.00818    -1.52298     2.46438  0.0
    243    257    258    266   5     0.00000     0.00000     1.25520  0.0
    243    257    258    272   5     4.74884    -0.63178     1.67360  0.0
    264    257    258    259   5     0.00000     0.00000    -0.94140  0.0
    264    257    258    266   5     0.00000     0.00000     1.25520  0.0
    264    257    258    272   5     0.00000     0.00000     1.25520  0.0
    265    257    258    259   5     0.00000     0.00000    -0.94140  0.0
    265    257    258    266   5     0.00000     0.00000     1.25520  0.0
    265    257    258    272   5     0.00000     0.00000     1.25520  0.0
    257    258    259    260   5     0.00000     2.52295     0.00000  0.0
    257    258    259    261   5     0.00000     0.00000     3.07524  0.0
    266    258    259    260   5     0.00000     0.00000     0.00000  0.0
    266    258    259    261   5     0.00000     0.00000     0.00000  0.0
    272    258    259    260   5     0.00000     2.52295     0.00000  0.0
    272    258    259    261   5     0.00000     0.00000     3.07524  0.0
    257    258    272    273   5     4.74884    -0.63178     1.67360  0.0
    257    258    272    279   5     0.00000     0.00000     1.25520  0.0
    257    258    272    280   5     0.00000     0.00000     1.25520  0.0
    259    258    272    273   5    -8.00818    -1.52298     2.46438  0.0
    259    258    272    279   5     0.00000     0.00000    -0.94140  0.0
    259    258    272    280   5     0.00000     0.00000    -0.94140  0.0
    266    258    272    273   5     0.00000     0.00000     1.25520  0.0
    266    258    272    279   5     0.00000     0.00000     1.25520  0.0
    266    258    272    280   5     0.00000     0.00000     1.25520  0.0
    258    259    261    262   5    13.65239    24.43456     0.00000  0.0
    260    259    261    262   5     0.00000    25.10400     0.00000  0.0
    259    261    262    263   5    -2.16731    -3.93296     0.98324  0.0
    259    261    262    267   5     0.00000     0.00000     0.67362  0.0
    259    261    262    268   5     0.00000     0.00000     0.67362  0.0
    261    262    263    269   5     0.00000     0.00000     1.95811  0.0
    261    262    263    270   5     0.00000     0.00000     1.95811  0.0
    261    262    263    271   5     0.00000     0.00000     1.95811  0.0
    267    262    263    269   5     0.00000     0.00000     1.25520  0.0
    267    262    263    270   5     0.00000     0.00000     1.25520  0.0
    267    262    263    271   5     0.00000     0.00000     1.25520  0.0
    268    262    263    269   5     0.00000     0.00000     1.25520  0.0
    268    262    263    270   5     0.00000     0.00000     1.25520  0.0
    268    262    263    271   5     0.00000     0.00000     1.25520  0.0
    258    272    273    274   5    -8.00818    -1.52298     2.46438  0.0
    258    272    273    281   5     0.00000     0.00000     1.25520  0.0
    258    272    273    287   5     4.74884    -0.63178     1.67360  0.0
    279    272    273    274   5     0.00000     0.00000    -0.94140  0.0
    279    272    273    281   5     0.00000     0.00000     1.25520  0.0
    279    272    273    287   5     0.00000     0.00000     1.25520  0.0
    280    272    273    274   5     0.00000     0.00000    -0.94140  0.0
    280    272    273    281   5     0.00000     0.00000     1.25520  0.0
    280    272    273    287   5     0.00000     0.00000     1.25520  0.0
    272    273    274    275   5     0.00000     2.52295     0.00000  0.0
    272    273    274    276   5     0.00000     0.00000     3.07524  0.0
    281    273    274    275   5     0.00000     0.00000     0.00000  0.0
    281    273    274    276   5     0.00000     0.00000     0.00000  0.0
    287    273    274    275   5     0.00000     2.52295     0.00000  0.0
    287    273    274    276   5     0.00000     0.00000     3.07524  0.0
    272    273    287    288   5     4.74884    -0.63178     1.67360  0.0
    272    273    287    294   5     0.00000     0.00000     1.25520  0.0
    272    273    287    295   5     0.00000     0.00000     1.25520  0.0
    274    273    287    288   5    -8.00818    -1.52298     2.46438  0.0
    274    273    287    294   5     0.00000     0.00000    -0.94140  0.0
    274    273    287    295   5     0.00000     0.00000    -0.94140  0.0
    281    273    287    288   5     0.00000     0.00000     1.25520  0.0
    281    273    287    294   5     0.00000     0.00000     1.25520  0.0
    281    273    287    295   5     0.00000     0.00000     1.25520  0.0
    273    274    276    277   5    13.65239    24.43456     0.00000  0.0
    275    274    276    277   5     0.00000    25.10400     0.00000  0.0
    274    276    277    278   5    -2.16731    -3.93296     0.98324  0.0
    274    276    277    282   5     0.00000     0.00000     0.67362  0.0
    274    276    277    283   5     0.00000     0.00000     0.67362  0.0
    276    277    278    284   5     0.00000     0.00000     1.95811  0.0
    276    277    278    285   5     0.00000     0.00000     1.95811  0.0
    276    277    278    286   5     0.00000     0.00000     1.95811  0.0
    282    277    278    284   5     0.00000     0.00000     1.25520  0.0
    282    277    278    285   5     0.00000     0.00000     1.25520  0.0
    282    277    278    286   5     0.00000     0.00000     1.25520  0.0
    283    277    278    284   5     0.00000     0.00000     1.25520  0.0
    283    277    278    285   5     0.00000     0.00000     1.25520  0.0
    283    277    278    286   5     0.00000     0.00000     1.25520  0.0
    273    287    288    289   5    -8.00818    -1.52298     2.46438  0.0
    273    287    288    296   5     0.00000     0.00000     1.25520  0.0
    273    287    288    302   5     0.00000     0.00000     1.25520  0.0
    294    287    288    289   5     0.00000     0.00000    -0.94140  0.0
    294    287    288    296   5     0.00000     0.00000     1.25520  0.0
    294    287    288    302   5     0.00000     0.00000     1.25520  0.0
    295    287    288    289   5     0.00000     0.00000    -0.94140  0.0
    295    287    288    296   5     0.00000     0.00000     1.25520  0.0
    295    287    288    302   5     0.00000     0.00000     1.25520  0.0
    287    288    289    290   5     0.00000     2.52295     0.00000  0.0
    287    288    289    291   5     0.00000     0.00000     3.07524  0.0
    296    288    289    290   5     0.00000     0.00000     0.00000  0.0
    296    288    289    291   5     0.00000     0.00000     0.00000  0.0
    302    288    289    290   5     0.00000     0.00000     0.00000  0.0
    302    288    289    291   5     0.00000     0.00000     0.00000  0.0
    288    289    291    292   5    13.65239    24.43456     0.00000  0.0
    290    289    291    292   5     0.00000    25.10400     0.00000  0.0
    289    291    292    293   5    -2.16731    -3.93296     0.98324  0.0
    289    291    292    297   5     0.00000     0.00000     0.67362  0.0
    289    291    292    298   5     0.00000     0.00000     0.67362  0.0
    291    292    293    299   5     0.00000     0.00000     1.95811  0.0
    291    292    293    300   5     0.00000     0.00000     1.95811  0.0
    291    292    293    301   5     0.00000     0.00000     1.95811  0.0
    297    292    293    299   5     0.00000     0.00000     1.25520  0.0
    297    292    293    300   5     0.00000     0.00000     1.25520  0.0
    297    292    293    301   5     0.00000     0.00000     1.25520  0.0
    298    292    293    299   5     0.00000     0.00000     1.25520  0.0
    298    292    293    300   5     0.00000     0.00000     1.25520  0.0
    298    292    293    301   5     0.00000     0.00000     1.25520  0.0

[ dihedrals ]
; Improper dihedrals
; h   i   j   k   funct
      2      4      3      5   5     0.00000    87.86400     0.00000  0.0
     18     20     19     21   5     0.00000    87.86400     0.00000  0.0
     33     35     34     36   5     0.00000    87.86400     0.00000  0.0
     48     50     49     51   5     0.00000    87.86400     0.00000  0.0
     63     65     64     66   5     0.00000    87.86400     0.00000  0.0
     78     80     79     81   5     0.00000    87.86400     0.00000  0.0
     93     95     94     96   5     0.00000    87.86400     0.00000  0.0
    108    110    109    111   5     0.00000    87.86400     0.00000  0.0
    123    125    124    126   5     0.00000    87.86400     0.00000  0.0
    138    140    139    141   5     0.00000    87.86400     0.00000  0.0
    153    155    154    156   5     0.00000    87.86400     0.00000  0.0
    168    170    169    171   5     0.00000    87.86400     0.00000  0.0
    183    185    184    186   5     0.00000    87.86400     0.00000  0.0
    198    200    199    201   5     0.00000    87.86400     0.00000  0.0
    213    215    214    216   5     0.00000    87.86400     0.00000  0.0
    228    230    229    231   5     0.00000    87.86400     0.00000  0.0
    243    245    244    246   5     0.00000    87.86400     0.00000  0.0
    258    260    259    261   5     0.00000    87.86400     0.00000  0.0
    273    275    274    276   5     0.00000    87.86400     0.00000  0.0
    288    290    289    291   5     0.00000    87.86400     0.00000  0.0
