Control file title. For DL_FIELD 4.10
49830
    1MOL     C1    1   0.502   5.828   0.740  0.2352 -0.3121  0.0168
    1MOL     C2    2   0.538   5.857   0.885  0.6291 -1.1208  0.1491
    1MOL     C3    3   0.532   6.007   0.902 -0.2882  0.3341  0.2425
    1MOL     O4    4   0.626   6.075   0.930 -0.1765 -0.4926 -0.0288
    1MOL     O5    5   0.413   6.058   0.885  0.1706 -0.3336 -0.0161
    1MOL     C6    6   0.395   6.206   0.906 -0.1741 -0.1385  0.4264
    1MOL     C7    7   0.249   6.237   0.857  0.5406  0.3270  0.5205
    1MOL     H8    8   0.404   5.867   0.713 -0.0987 -1.5338 -0.5331
    1MOL     H9    9   0.497   5.722   0.718  0.4007 -0.7637  2.0061
    1MOL    H10   10   0.464   5.814   0.951 -0.5798  0.2198 -0.3169
    1MOL    H11   11   0.405   6.229   1.012  1.8477 -1.2334  0.4952
    1MOL    H12   12   0.468   6.260   0.845  0.6207 -1.6188  0.0437
    1MOL    H13   13   0.177   6.176   0.911 -1.0885  0.6793 -1.2175
    1MOL    H14   14   0.231   6.228   0.750  1.3260 -1.1506  0.5043
    1MOL    H15   15   0.218   6.339   0.877 -0.0002  0.3316 -0.2884
    1MOL    H16   16   0.573   5.869   0.668 -1.5416  1.1307 -0.9617
    1MOL    C17   17   0.686   5.797   0.910  0.3683 -0.1622  0.5156
    1MOL    C18   18   0.728   5.780   1.058 -0.4225  0.1912  0.0679
    1MOL    C19   19   0.842   5.875   1.111  0.9362  0.2832  0.0807
    1MOL    O20   20   0.944   5.888   1.043  0.5716  0.0433  0.3465
    1MOL    O21   21   0.819   5.937   1.226  0.4683 -0.7106  0.0347
    1MOL    C22   22   0.904   6.037   1.285  0.0207 -0.0986  0.3043
    1MOL    C23   23   0.822   6.107   1.396  0.2371 -0.2000 -0.3629
    1MOL    H24   24   0.702   5.707   0.851 -0.1728  1.5039 -2.3238
    1MOL    H25   25   0.758   5.868   0.869  0.1352 -0.2921 -0.1360
    1MOL    H26   26   0.636   5.812   1.107  0.4003  1.6786  0.6664
    1MOL    H27   27   0.998   5.998   1.324  1.3078  3.1818  0.6917
    1MOL    H28   28   0.928   6.114   1.212  1.8638 -0.8888  0.0662
    1MOL    H29   29   0.725   6.141   1.358 -0.0849  0.0868  0.6861
    1MOL    H30   30   0.880   6.195   1.424  0.8615 -0.8892  0.5047
    1MOL    H31   31   0.804   6.040   1.479 -0.9390  1.5617  0.8466
    1MOL    C32   32   0.756   5.635   1.098  0.1805  0.0120  0.2942
    1MOL    C33   33   0.631   5.531   1.117 -0.9963 -1.0351  0.3326
    1MOL    C34   34   0.606   5.452   0.990  0.0666  0.1268  0.4330
    1MOL    O35   35   0.521   5.484   0.909  0.6542 -0.5981 -0.1769
    1MOL    O36   36   0.689   5.342   0.976 -0.2359 -0.4087 -0.0586
    1MOL    C37   37   0.681   5.268   0.853  0.2306  0.2743 -0.5672
    1MOL    C38   38   0.819   5.301   0.790  0.2993  0.3909 -0.1195
    1MOL    H39   39   0.826   5.585   1.031  0.0424  1.1540 -0.7027
    1MOL    H40   40   0.818   5.635   1.187 -1.3114 -2.0737  1.3987
    1MOL    H41   41   0.684   5.460   1.180 -2.3799 -0.1787  2.5242
    1MOL    H42   42   0.685   5.162   0.876 -0.9068  0.4230  0.3569
    1MOL    H43   43   0.612   5.284   0.770  0.1011 -1.0309 -0.7270
    1MOL    H44   44   0.896   5.289   0.866  1.4453 -0.4580 -1.3948
    1MOL    H45   45   0.818   5.403   0.751  0.4459  0.4658  0.0718
    1MOL    H46   46   0.858   5.232   0.716  1.2810  1.8210 -0.9681
    1MOL    C47   47   0.506   5.589   1.191 -0.1648  0.2202 -0.1836
    1MOL    C48   48   0.514   5.563   1.345 -0.0949  0.3233 -0.5256
    1MOL    C49   49   0.376   5.561   1.398  0.7729 -0.5414  0.2475
    1MOL    O50   50   0.315   5.454   1.418 -0.0087 -0.0800 -0.6455
    1MOL    O51   51   0.323   5.684   1.415  0.5228 -0.3525  0.3374
    1MOL    C52   52   0.187   5.687   1.438 -0.0041 -0.3290 -0.4318
    1MOL    C53   53   0.143   5.835   1.453  0.2200  0.3616 -0.0981
    1MOL    H54   54   0.471   5.691   1.172 -1.5486  0.0682  1.3875
    1MOL    H55   55   0.422   5.533   1.149 -0.0419  1.5086 -2.2394
    1MOL    H56   56   0.552   5.463   1.367 -2.9896 -0.7434 -0.0528
    1MOL    H57   57   0.143   5.638   1.351 -1.4394 -0.6955  0.4926
    1MOL    H58   58   0.157   5.646   1.534 -3.1479  0.9337 -0.8033
    1MOL    H59   59   0.200   5.872   1.539  1.6668 -0.7305 -0.5569
    1MOL    H60   60   0.040   5.838   1.488  0.2206 -0.5180 -0.0077
    1MOL    H61   61   0.161   5.903   1.369 -1.1868  0.9455  0.0533
    1MOL    C62   62   0.605   5.670   1.412 -0.1757  0.5186 -0.3322
    1MOL    C63   63   0.640   5.663   1.562  0.2620  0.2823  0.4012
    1MOL    C64   64   0.657   5.805   1.617 -0.0360  0.1464  0.3362
    1MOL    O65   65   0.776   5.838   1.649 -0.1350  0.3936  0.2526
    1MOL    O66   66   0.542   5.874   1.635 -0.6574 -0.3595 -0.4480
    1MOL    C67   67   0.545   5.994   1.705  0.3615 -0.5622  0.2458
    1MOL    C68   68   0.536   5.995   1.853 -0.1074 -0.2174  0.2694
    1MOL    H69   69   0.704   5.667   1.365  0.7637 -1.5811  1.6568
    1MOL    H70   70   0.576   5.770   1.383  0.0099  0.0094 -2.3436
    1MOL    H71   71   0.551   5.632   1.616  0.3946  0.6423  0.8272
    1MOL    H72   72   0.629   6.055   1.672  0.2919  0.1044  1.2974
    1MOL    H73   73   0.452   6.035   1.667  0.4160 -0.9966 -0.3713
    1MOL    H74   74   0.519   6.097   1.885 -1.2727 -0.2277 -0.3069
    1MOL    H75   75   0.635   5.955   1.879 -0.9519 -1.5273  1.5826
    1MOL    H76   76   0.451   5.933   1.882 -2.0632  1.5185 -1.6495
    1MOL    C77   77   0.771   5.582   1.598  0.1913  0.5370  0.2360
    1MOL    C78   78   0.771   5.425   1.560 -0.2200  0.8362  0.1667
    1MOL    C79   79   0.671   5.352   1.654  0.3773 -0.3172  0.0958
    1MOL    O80   80   0.704   5.272   1.741 -0.2697 -0.4813 -0.3761
    1MOL    O81   81   0.545   5.396   1.637  0.0063  0.6078  0.8887
    1MOL    C82   82   0.431   5.338   1.705  0.0723  0.3048 -0.3022
    1MOL    C83   83   0.389   5.212   1.634 -0.9526  0.1673  0.6755
    1MOL    H84   84   0.855   5.630   1.547  0.1507 -0.7653 -1.1160
    1MOL    H85   85   0.798   5.594   1.703  0.8143 -0.7075  0.2408
    1MOL    H86   86   0.725   5.403   1.463 -0.5828  1.4688  0.1910
    1MOL    H87   87   0.449   5.323   1.812  2.6301 -1.3517 -0.9182
    1MOL    H88   88   0.354   5.413   1.692  0.1932  0.4313 -0.2834
    1MOL    H89   89   0.436   5.120   1.669 -0.4266 -0.0148 -0.4883
    1MOL    H90   90   0.399   5.225   1.526 -2.7480  2.5793  0.7726
    1MOL    H91   91   0.286   5.187   1.657 -1.6323  0.7432 -1.6845
    1MOL    C92   92   0.914   5.362   1.562 -0.5722 -0.6728  1.1478
    1MOL    C93   93   0.924   5.231   1.490  0.1880  0.4733  0.5908
    1MOL    C94   94   1.049   5.151   1.518 -0.3452 -0.1410  0.3492
    1MOL    O95   95   1.047   5.058   1.603  0.6607 -0.1528 -0.4040
    1MOL    O96   96   1.159   5.187   1.440 -0.4284 -0.1074 -0.6851
    1MOL    C97   97   1.284   5.134   1.484  0.2109  0.0896 -0.2585
    1MOL    C98   98   1.390   5.208   1.400  0.4506  0.6865 -0.2951
    1MOL    H99   99   0.987   5.436   1.528 -1.0039 -0.6731  0.2311
    1MOL   H100  100   0.948   5.353   1.666  1.0040 -5.1189  0.3396
    1MOL   H101  101   0.845   5.172   1.535  0.1524 -0.7371 -0.9948
    1MOL   H102  102   1.307   5.161   1.587 -2.4811  0.3506  0.3200
    1MOL   H103  103   1.283   5.025   1.480  3.8548  0.0213 -0.6371
    1MOL   H104  104   1.376   5.192   1.293  0.0675  2.7122 -0.5535
    1MOL   H105  105   1.492   5.175   1.417  1.3965  3.3781 -0.5387
    1MOL   H106  106   1.379   5.312   1.430 -0.2620  0.9134 -1.3043
    1MOL   C107  107   0.917   5.259   1.333  0.2979  0.0733 -0.4157
    1MOL   C108  108   0.842   5.153   1.250  0.7687  0.3504  0.1626
    1MOL   C109  109   0.696   5.120   1.289 -0.0738  0.4296  0.7437
    1MOL   O110  110   0.656   5.116   1.410  0.4113 -0.0094  0.2095
    1MOL   O111  111   0.621   5.101   1.179  0.3737  0.3779  0.1150
    1MOL   C112  112   0.477   5.076   1.190 -0.2322  0.6043 -0.4650
    1MOL   C113  113   0.404   5.206   1.155  0.2544  0.8340  0.2331
    1MOL   H114  114   0.858   5.350   1.318 -2.6459 -1.1768  2.7664
    1MOL   H115  115   1.011   5.282   1.284  0.9126  0.4828  0.9332
    1MOL   H116  116   0.812   5.207   1.160  0.4782 -0.0598  0.0139
    1MOL   H117  117   0.436   5.003   1.121  0.7939 -1.2984  0.8954
    1MOL   H118  118   0.452   5.045   1.291 -2.8509  1.7335 -0.7157
    1MOL   H119  119   0.300   5.224   1.185 -1.0498 -1.1431 -2.8699
    1MOL   H120  120   0.410   5.226   1.048 -1.0593 -0.2887 -0.0629
    1MOL   H121  121   0.456   5.291   1.198  0.5423  0.6411  0.2626
    1MOL   C122  122   0.930   5.020   1.211  0.3340 -0.4605 -0.1107
    1MOL   C123  123   0.874   4.936   1.096  1.0970 -0.2129 -0.1679
    1MOL   C124  124   0.779   4.824   1.143  0.8697 -0.2532 -0.0715
    1MOL   O125  125   0.659   4.827   1.118 -0.3124  0.4207 -0.0148
    1MOL   O126  126   0.836   4.723   1.222  0.7721 -0.5526  0.8268
    1MOL   C127  127   0.760   4.607   1.260 -0.0018 -0.4611  0.4713
    1MOL   C128  128   0.847   4.530   1.352 -0.8958 -0.0012  1.0632
    1MOL   H129  129   1.028   5.043   1.170 -0.3680  0.8407 -1.1030
    1MOL   H130  130   0.945   4.965   1.304 -0.6703 -0.0956  0.2757
    1MOL   H131  131   0.801   4.995   1.041 -0.2579  1.3477  3.1640
    1MOL   H132  132   0.667   4.636   1.310  0.3024  0.8034  0.3431
    1MOL   H133  133   0.736   4.555   1.168  0.1511  1.4824 -0.7012
    1MOL   H134  134   0.951   4.545   1.323 -1.0098 -0.6188  0.3259
    1MOL   H135  135   0.822   4.424   1.351  3.7670 -1.2144  0.0983
    1MOL   H136  136   0.830   4.550   1.458  0.5031 -0.8780  1.4591
    1MOL   C137  137   0.973   4.879   1.000 -0.1334 -0.1073 -0.5658
    1MOL   C138  138   1.024   4.973   0.881  0.2718 -0.0278  0.4215
    1MOL   C139  139   0.950   4.935   0.755 -0.7025 -0.2875 -0.4991
    1MOL   O140  140   0.988   4.837   0.687  0.1488 -0.0175 -0.1218
    1MOL   O141  141   0.838   4.992   0.741 -0.6133  0.2754  0.5798
    1MOL   C142  142   0.761   4.963   0.625 -0.0329 -0.0536 -0.3234
    1MOL   C143  143   0.628   4.914   0.674  0.5920  0.6620 -0.0555
    1MOL   H144  144   1.053   4.853   1.069 -0.2636  1.1978  0.0960
    1MOL   H145  145   0.945   4.786   0.950  0.1231  0.4004 -1.6638
    1MOL   H146  146   0.997   5.076   0.904 -2.9936 -0.6349 -0.3562
    1MOL   H147  147   0.755   5.053   0.563 -1.3259 -0.1329 -0.3273
    1MOL   H148  148   0.793   4.877   0.566  0.2808  0.1011 -0.3800
    1MOL   H149  149   0.637   4.823   0.734  1.5593  2.0735  1.9959
    1MOL   H150  150   0.562   4.883   0.592  1.4370 -1.0326 -0.1151
    1MOL   H151  151   0.578   4.978   0.746  2.3008  2.6689 -0.5958
    1MOL   C152  152   1.182   4.963   0.864 -0.6463 -0.0183  0.2903
    1MOL   C153  153   1.273   5.018   0.985  0.5334  0.6575  0.9536
    1MOL   C154  154   1.266   5.167   1.009  0.0516  0.4935 -0.1291
    1MOL   O155  155   1.197   5.216   1.101 -0.1130 -0.4604  0.0920
    1MOL   O156  156   1.330   5.240   0.917  0.7058 -0.3279  0.2177
    1MOL   C157  157   1.340   5.377   0.938  0.2893 -0.0736 -0.5040
    1MOL   C158  158   1.441   5.412   1.051 -0.1922  0.3377  0.5648
    1MOL   H159  159   1.210   4.860   0.840 -0.5047  0.4845 -1.7989
    1MOL   H160  160   1.207   5.013   0.771  0.3080  1.2988  1.2451
    1MOL   H161  161   1.221   4.992   1.078 -0.5948  2.6673  0.9182
    1MOL   H162  162   1.377   5.437   0.855 -0.1823  2.5712  1.1280
    1MOL   H163  163   1.240   5.411   0.967  0.3302  0.6439 -1.1896
    1MOL   H164  164   1.408   5.370   1.146 -0.8582  2.9512  1.5277
    1MOL   H165  165   1.430   5.519   1.063  0.8162  0.4431  0.5627
    1MOL   H166  166   1.543   5.378   1.030 -0.1888  0.9051 -0.3247
    1MOL   C167  167   1.422   4.962   0.969  0.1308  0.2506 -0.4718
    1MOL   C168  168   1.482   4.897   1.104  0.6893  0.2955  0.5213
    1MOL   C169  169   1.635   4.912   1.114  0.3128 -0.4149 -0.1849
    1MOL   O170  170   1.708   4.826   1.077  0.5286  0.2199 -0.4446
    1MOL   O171  171   1.665   5.041   1.148  0.1538  0.0963 -0.2246
    1MOL   C172  172   1.798   5.084   1.167 -0.2090  0.1540  0.3516
    1MOL   C173  173   1.867   5.021   1.290  0.5583  0.2661  0.1803
    1MOL   H174  174   1.441   4.895   0.886  1.7948  0.1283 -0.0096
    1MOL   H175  175   1.487   5.042   0.935  0.7132  0.0878  0.2384
    1MOL   H176  176   1.446   4.949   1.193  2.2480  0.3849  1.1092
    1MOL   H177  177   1.851   5.060   1.074 -1.3814  0.4744 -0.4192
    1MOL   H178  178   1.796   5.192   1.173  0.5909  0.6194 -5.1221
    1MOL   H179  179   1.905   4.930   1.244 -1.0117 -0.3381  0.0448
    1MOL   H180  180   1.797   5.008   1.372 -0.0819 -0.8375 -0.5340
    1MOL   H181  181   1.955   5.080   1.317  2.1197 -1.5698 -0.7910
    1MOL   C182  182   1.446   4.740   1.108  0.2875 -0.4741  0.8731
    1MOL   C183  183   1.318   4.723   1.185  0.1795 -0.1369 -0.3776
    1MOL   C184  184   1.332   4.753   1.341  0.5948 -0.2406 -0.4661
    1MOL   O185  185   1.415   4.822   1.393 -0.2293 -0.6928 -0.2054
    1MOL   O186  186   1.228   4.699   1.402  0.0121  0.5385 -0.6631
    1MOL   C187  187   1.197   4.734   1.532 -0.1245  0.3110 -0.1137
    1MOL   C188  188   1.078   4.656   1.599 -0.1637 -0.4939 -0.4527
    1MOL   H189  189   1.434   4.702   1.007 -1.3165  0.2356  0.7802
    1MOL   H190  190   1.518   4.672   1.152 -1.5899 -2.9150  0.3188
    1MOL   H191  191   1.246   4.798   1.154  0.6535 -0.2000 -1.6572
    1MOL   H192  192   1.278   4.731   1.605  0.7311  0.7395 -1.0380
    1MOL   H193  193   1.163   4.836   1.517 -2.1367 -0.2585  0.3790
    1MOL   H194  194   1.041   4.718   1.681  2.3296  0.9218 -0.3600
    1MOL   H195  195   1.102   4.558   1.640 -0.3021 -0.8791 -1.2774
    1MOL   H196  196   0.998   4.652   1.525 -1.4422  1.6215  0.7673
    1MOL   C197  197   1.250   4.581   1.151  0.0724  0.3193  0.0443
    1MOL   C198  198   1.313   4.447   1.199 -0.5728  0.2526  0.1600
    1MOL   C199  199   1.418   4.395   1.100  1.1496  0.7717  0.8693
    1MOL   O200  200   1.375   4.343   0.996 -0.1472 -0.1221  0.3472
    1MOL   O201  201   1.546   4.433   1.126 -0.4663  0.5053  0.3900
    1MOL   C202  202   1.649   4.404   1.035  0.3653 -0.4293  0.1461
    1MOL   C203  203   1.781   4.465   1.078  0.4229 -0.4356 -0.0592
    1MOL   H204  204   1.146   4.578   1.181 -0.5414  2.2107 -1.7450
    1MOL   H205  205   1.244   4.585   1.043  0.3433  0.6392  0.0362
    1MOL   H206  206   1.386   4.474   1.275  0.1520 -0.9861 -0.0825
    1MOL   H207  207   1.661   4.295   1.039 -1.9062 -0.7389 -0.6968
    1MOL   H208  208   1.619   4.422   0.931 -0.3710 -0.3501  0.3674
    1MOL   H209  209   1.864   4.425   1.019  0.5878 -0.8260  0.4344
    1MOL   H210  210   1.804   4.453   1.184 -1.9677 -0.5533  0.4681
    1MOL   H211  211   1.788   4.570   1.052  1.9654 -0.7160 -0.8457
    1MOL   C212  212   1.208   4.350   1.262 -0.1638  0.0163  0.8427
    1MOL   C213  213   1.248   4.212   1.320  0.2721  1.0077  0.1368
    1MOL   C214  214   1.295   4.113   1.220 -0.0433 -0.4033 -0.2758
    1MOL   O215  215   1.417   4.102   1.193 -0.0695 -0.2865  0.5052
    1MOL   O216  216   1.202   4.049   1.157  0.1216 -0.0316 -0.1369
    1MOL   C217  217   1.239   3.951   1.057 -0.5133 -1.2791 -0.6458
    1MOL   C218  218   1.103   3.886   1.010 -0.0835  0.1982  0.2675
    1MOL   H219  219   1.147   4.403   1.335 -0.5824  0.7703 -0.0429
    1MOL   H220  220   1.130   4.327   1.190  0.7010  0.5529 -0.2784
    1MOL   H221  221   1.337   4.234   1.381  0.9516  0.0510 -0.5044
    1MOL   H222  222   1.280   3.996   0.966  1.4955 -0.1638  0.7710
    1MOL   H223  223   1.310   3.872   1.082  1.1117 -0.4209 -2.4004
    1MOL   H224  224   1.023   3.958   0.995  0.0978  0.2970 -0.2344
    1MOL   H225  225   1.066   3.829   1.095  0.1504  0.2244  0.3887
    1MOL   H226  226   1.112   3.810   0.932  0.3113  2.7095 -2.1954
    1MOL   C227  227   1.146   4.145   1.421  0.7771  0.2093 -0.3491
    1MOL   C228  228   1.176   4.010   1.489 -0.0091  0.4447 -1.1928
    1MOL   C229  229   1.055   3.954   1.561  0.2736  0.5056  0.3077
    1MOL   O230  230   1.014   3.840   1.544 -0.0221 -1.0782  0.8311
    1MOL   O231  231   1.010   4.041   1.652  0.2308  0.8444 -0.0136
    1MOL   C232  232   0.895   4.026   1.722 -0.3219  0.1655  0.7773
    1MOL   C233  233   0.806   4.153   1.708 -0.6287 -0.2478 -0.5075
    1MOL   H234  234   1.129   4.225   1.494  0.0027 -0.7500  0.5366
    1MOL   H235  235   1.045   4.148   1.379  0.9314  0.4011 -0.7118
    1MOL   H236  236   1.187   3.933   1.412  1.2159 -0.7174  0.1114
    1MOL   H237  237   0.844   3.931   1.704  1.1588 -0.4189 -0.4037
    1MOL   H238  238   0.925   4.020   1.826  3.0204  1.4942 -0.0518
    1MOL   H239  239   0.801   4.181   1.602  2.6984  1.0317 -0.3924
    1MOL   H240  240   0.850   4.242   1.754  0.8667 -0.0126 -2.3072
    1MOL   H241  241   0.705   4.127   1.740  0.7597 -4.4225  0.7546
    1MOL   C242  242   1.308   3.996   1.568  0.0230 -0.5712 -0.1166
    1MOL   C243  243   1.316   4.052   1.712  0.4579  0.3900  0.0980
    1MOL   C244  244   1.291   4.208   1.718  0.4387 -0.6663 -0.1838
    1MOL   O245  245   1.206   4.257   1.790  0.1121 -0.2472  0.2123
    1MOL   O246  246   1.371   4.276   1.632 -0.2774 -0.3367  0.0313
    1MOL   C247  247   1.372   4.421   1.624 -0.9674 -0.7320  0.6645
    1MOL   C248  248   1.506   4.461   1.561  0.5494  0.3834 -0.1531
    1MOL   H249  249   1.320   3.889   1.588  0.1592 -0.2266  1.7658
    1MOL   H250  250   1.388   4.034   1.505 -1.1687 -0.7214 -1.7682
    1MOL   H251  251   1.244   4.014   1.784  0.8064 -0.6726 -0.1147
    1MOL   H252  252   1.295   4.461   1.558 -0.3035 -1.1376 -0.3714
    1MOL   H253  253   1.365   4.469   1.722 -1.2672  2.1179 -0.6989
    1MOL   H254  254   1.598   4.424   1.607  1.7113 -0.0425 -2.7451
    1MOL   H255  255   1.523   4.569   1.566  0.6599  0.3660 -0.1545
    1MOL   H256  256   1.519   4.431   1.457 -0.0622  0.3866 -0.2299
    1MOL   C257  257   1.449   4.019   1.782  0.0875 -0.8560  0.3329
    1MOL   C258  258   1.442   3.974   1.930  0.0855 -0.1717 -0.0070
    1MOL   C259  259   1.389   3.834   1.963  0.1992  0.1313 -0.0248
    1MOL   O260  260   1.465   3.749   2.003 -0.7217  0.0292 -0.7321
    1MOL   O261  261   1.256   3.817   1.945  0.4003  0.0768  0.0301
    1MOL   C262  262   1.195   3.690   1.957  0.3116 -0.4154 -0.1824
    1MOL   C263  263   1.068   3.684   1.868 -1.3454  0.4675 -0.3856
    1MOL   H264  264   1.499   3.939   1.728 -1.9249 -1.0021 -1.3966
    1MOL   H265  265   1.513   4.107   1.770  1.5244 -1.7290  1.4625
    1MOL   H266  266   1.546   3.978   1.961  0.8241 -2.7100 -1.9799
    1MOL   H267  267   1.263   3.611   1.925 -0.3006 -1.3782  0.8856
    1MOL   H268  268   1.173   3.672   2.062 -1.3801 -3.5942 -1.0088
    1MOL   H269  269   0.992   3.742   1.920 -1.0501 -0.1469  0.7478
    1MOL   H270  270   1.025   3.584   1.866 -3.1011  1.2086 -0.3456
    1MOL   H271  271   1.081   3.707   1.762 -1.9815  0.8783 -0.3818
    1MOL   C272  272   1.379   4.084   2.016  0.3912  0.2460 -0.4763
    1MOL   C273  273   1.405   4.061   2.175  0.2047  0.5903  0.4726
    1MOL   C274  274   1.291   3.986   2.247  0.5655 -0.1801  0.4980
    1MOL   O275  275   1.316   3.881   2.302 -0.0423  0.1487  0.0913
    1MOL   O276  276   1.174   4.057   2.242  1.0610 -0.2095 -0.2339
    1MOL   C277  277   1.047   4.013   2.288 -0.3070 -0.3607 -0.0189
    1MOL   C278  278   0.964   3.944   2.181 -0.5519 -0.5686  0.7499
    1MOL   H279  279   1.398   4.188   1.988  3.0110  0.1460  0.8363
    1MOL   H280  280   1.272   4.076   1.994  0.0202  2.8535  0.2017
    1MOL   H281  281   1.489   3.993   2.188  2.0792  2.9475  1.1333
    1MOL   H282  282   1.061   3.948   2.375 -0.1006 -0.8094 -0.3915
    1MOL   H283  283   0.998   4.105   2.321  1.5618  0.7377 -0.2387
    1MOL   H284  284   0.863   3.922   2.214 -0.4398  0.9963  2.2246
    1MOL   H285  285   1.011   3.851   2.150  0.9372  0.2855  0.3634
    1MOL   H286  286   0.963   4.010   2.094 -1.0471 -2.0398 -0.3849
    1MOL   C287  287   1.441   4.187   2.245 -0.0688  0.2938 -0.5476
    1MOL   C288  288   1.584   4.242   2.218 -0.1569  0.0064 -0.1833
    1MOL   C289  289   1.587   4.394   2.226  0.2840 -0.3849  0.1453
    1MOL   O290  290   1.640   4.453   2.320 -0.0811 -0.1799 -0.4315
    1MOL   O291  291   1.514   4.454   2.127  0.2825 -0.2025  0.2550
    1MOL   C292  292   1.514   4.593   2.120 -0.0102  0.1479 -0.1562
    1MOL   C293  293   1.396   4.634   2.027 -0.6801 -0.4680 -0.3104
    1MOL   H294  294   1.359   4.253   2.215 -0.4617  0.7321  1.4300
    1MOL   H295  295   1.431   4.167   2.351  0.7759 -2.3955 -0.9497
    1MOL   H296  296   1.658   4.196   2.283 -1.7996 -0.8970  1.0963
    1MOL   H297  297   1.493   4.636   2.218  2.5087 -0.0474  0.5046
    1MOL   H298  298   1.609   4.627   2.077  0.1703  1.1204  0.9940
    1MOL   H299  299   1.408   4.581   1.933  0.1807 -0.7368 -0.0541
    1MOL   H300  300   1.383   4.741   2.012  3.1933  0.3338  1.3553
    1MOL   H301  301   1.313   4.588   2.079 -0.2726 -1.1976 -0.2999
    1MOL   H302  302   1.613   4.231   2.113  2.1670  2.9249  0.1080
    2MOL     C1  303   6.165   6.213   0.955  0.3561  0.2630 -0.2948
    2MOL     C2  304   6.055   6.107   0.940 -0.1561 -0.4943  0.1008
    2MOL     C3  305   5.981   6.123   0.808 -0.5338  0.4322 -0.8800
    2MOL     O4  306   5.872   6.178   0.807 -0.3310 -0.6298 -0.0173
    2MOL     O5  307   6.047   6.071   0.700 -0.3456  0.3546 -0.2665
    2MOL     C6  308   5.987   6.094   0.578  0.0409  0.3676  0.7146
    2MOL     C7  309   6.067   6.024   0.470  0.2896  0.2310  0.2996
    2MOL     H8  310   6.227   6.188   1.041 -1.9676  1.7644  1.8974
    2MOL     H9  311   6.124   6.313   0.968  0.1480  0.0195  0.9419
    2MOL    H10  312   6.100   6.009   0.928 -0.5396 -0.6298 -0.2293
    2MOL    H11  313   5.886   6.053   0.585  1.1308 -2.6635 -0.3516
    2MOL    H12  314   5.979   6.199   0.549 -1.7962 -0.0739 -0.5080
    2MOL    H13  315   6.023   6.027   0.370  0.9640 -0.4029 -0.0215
    2MOL    H14  316   6.075   5.918   0.494 -1.1681  0.6986  3.0472
    2MOL    H15  317   6.168   6.062   0.453  0.1743  0.4302  0.0629
    2MOL    H16  318   6.218   6.226   0.861  1.0079 -1.0296 -0.1172
    2MOL    C17  319   5.960   6.114   1.062 -0.7514 -0.0229 -1.1642
    2MOL    C18  320   6.012   6.077   1.202 -0.1789  0.3442 -0.4876
    2MOL    C19  321   6.065   5.935   1.213 -0.3400  0.2565 -0.3063
    2MOL    O20  322   6.036   5.844   1.135 -0.1536  0.4075  0.1798
    2MOL    O21  323   6.155   5.923   1.311 -0.7327  0.1739  0.2802
    2MOL    C22  324   6.192   5.797   1.360 -0.5833  0.0462  0.4624
    2MOL    C23  325   6.323   5.749   1.294 -0.9614 -0.9025  0.7182
    2MOL    H24  326   5.910   6.210   1.074 -0.1556 -0.0286  1.9725
    2MOL    H25  327   5.869   6.055   1.049 -0.1110 -1.4893  0.6891
    2MOL    H26  328   6.099   6.139   1.225  1.1246 -1.8503  0.6308
    2MOL    H27  329   6.195   5.798   1.469  3.5302  3.0867  0.4768
    2MOL    H28  330   6.115   5.731   1.322 -0.4782  0.4717 -0.5105
    2MOL    H29  331   6.402   5.823   1.306 -0.4702 -1.5091  1.2562
    2MOL    H30  332   6.306   5.715   1.192  3.1687 -0.0285 -0.3353
    2MOL    H31  333   6.377   5.669   1.347  0.1294 -1.2203 -0.8446
    2MOL    C32  334   5.908   6.099   1.313  0.2851 -0.8699  0.1093
    2MOL    C33  335   5.856   6.244   1.321  0.8383  0.5884  0.4158
    2MOL    C34  336   5.973   6.348   1.328  0.0279  0.5291 -0.3456
    2MOL    O35  337   6.047   6.360   1.427 -0.2704  0.4305  0.5330
    2MOL    O36  338   5.984   6.414   1.214  1.0470 -0.3792 -0.0116
    2MOL    C37  339   6.083   6.516   1.215 -0.9776 -0.5065 -0.0783
    2MOL    C38  340   6.071   6.594   1.080  0.8583  0.8027  0.4101
    2MOL    H39  341   5.829   6.029   1.284  1.9027 -2.3915 -0.7521
    2MOL    H40  342   5.956   6.076   1.409  2.2117  1.0297 -0.3671
    2MOL    H41  343   5.797   6.273   1.234  1.0637  2.3636  0.8329
    2MOL    H42  344   6.072   6.585   1.298 -1.2548 -0.6236 -0.0146
    2MOL    H43  345   6.179   6.465   1.208  1.0893  2.6915  3.2240
    2MOL    H44  346   6.159   6.659   1.077  0.2737  1.6613  1.7972
    2MOL    H45  347   5.987   6.663   1.083  0.4710  0.3993 -0.9220
    2MOL    H46  348   6.053   6.529   0.994 -0.6911  2.0605 -0.2373
    2MOL    C47  349   5.748   6.250   1.429 -0.4504  0.4275  0.7188
    2MOL    C48  350   5.658   6.376   1.452  0.5578  0.1157 -0.7573
    2MOL    C49  351   5.748   6.487   1.511 -0.6321 -0.7712 -0.8386
    2MOL    O50  352   5.794   6.574   1.434 -0.4573 -0.0289  0.0713
    2MOL    O51  353   5.774   6.473   1.644 -0.1099 -0.0650  0.9194
    2MOL    C52  354   5.879   6.538   1.713 -0.4339  0.3601 -0.3030
    2MOL    C53  355   5.845   6.681   1.744 -0.1168 -0.5697  0.0289
    2MOL    H54  356   5.685   6.166   1.398  0.1034  0.4063 -0.3839
    2MOL    H55  357   5.801   6.225   1.520 -1.7319  1.0016  1.6329
    2MOL    H56  358   5.635   6.419   1.355  1.6899  2.1877 -0.1466
    2MOL    H57  359   5.898   6.498   1.812 -2.7941 -0.8963 -0.3182
    2MOL    H58  360   5.965   6.530   1.646 -0.4035 -0.3836 -0.1716
    2MOL    H59  361   5.753   6.698   1.799  0.6269  3.1079  0.2361
    2MOL    H60  362   5.823   6.725   1.646  0.1129 -0.7759 -0.1184
    2MOL    H61  363   5.937   6.721   1.787  0.2609 -0.0404 -1.2294
    2MOL    C62  364   5.534   6.354   1.543  0.7363  0.6599  0.3863
    2MOL    C63  365   5.413   6.295   1.464  0.6331 -0.0273  0.2248
    2MOL    C64  366   5.375   6.385   1.348 -0.1100 -0.5866  0.7743
    2MOL    O65  367   5.385   6.506   1.354 -0.3413 -0.4331 -0.4759
    2MOL    O66  368   5.304   6.321   1.240  0.2056 -0.2362  0.0009
    2MOL    C67  369   5.250   6.394   1.128  0.3938 -0.5143  0.0231
    2MOL    C68  370   5.359   6.456   1.046  0.4198  0.1076 -0.4946
    2MOL    H69  371   5.561   6.299   1.633 -0.4283  1.2346  1.1046
    2MOL    H70  372   5.506   6.453   1.578  0.3336  1.2139 -1.4396
    2MOL    H71  373   5.448   6.208   1.407  0.5722 -0.3444  0.6735
    2MOL    H72  374   5.197   6.317   1.072 -0.9156  1.3153 -1.2886
    2MOL    H73  375   5.172   6.463   1.160  1.1864  1.8275 -2.8866
    2MOL    H74  376   5.434   6.386   1.009 -1.1430 -1.6510 -0.3766
    2MOL    H75  377   5.413   6.534   1.099 -1.5418  0.4188  1.1030
    2MOL    H76  378   5.327   6.520   0.964 -1.0011 -3.1283 -2.5641
    2MOL    C77  379   5.282   6.278   1.549 -1.0300 -0.6835  0.5499
    2MOL    C78  380   5.159   6.193   1.507  0.3233 -0.3174  1.0112
    2MOL    C79  381   5.038   6.192   1.601  0.0150 -0.7538  0.9705
    2MOL    O80  382   5.039   6.144   1.714 -0.4675 -0.3899 -0.5963
    2MOL    O81  383   4.942   6.256   1.545 -0.0486  0.6387  0.0798
    2MOL    C82  384   4.816   6.265   1.609 -0.0641 -0.3975 -0.4212
    2MOL    C83  385   4.745   6.385   1.544  0.3652  0.4158 -0.2313
    2MOL    H84  386   5.304   6.259   1.654 -2.1365 -1.4897  0.6497
    2MOL    H85  387   5.244   6.379   1.555 -1.2278 -0.8382  2.3725
    2MOL    H86  388   5.131   6.244   1.415  1.9103 -0.6438  0.3347
    2MOL    H87  389   4.755   6.175   1.604 -1.0520  0.3262 -1.8436
    2MOL    H88  390   4.840   6.292   1.712 -0.2746  0.4561 -0.5947
    2MOL    H89  391   4.744   6.364   1.437 -0.2132  2.6706 -0.6924
    2MOL    H90  392   4.800   6.475   1.571 -3.2399  2.8666 -0.8488
    2MOL    H91  393   4.646   6.392   1.588 -0.2498 -0.6644 -1.4068
    2MOL    C92  394   5.196   6.046   1.482  0.7667  0.5405 -0.1171
    2MOL    C93  395   5.200   6.017   1.330 -0.1664 -0.3100 -0.6057
    2MOL    C94  396   5.074   6.034   1.250  0.9353  0.0120 -0.4947
    2MOL    O95  397   5.075   6.095   1.144 -0.6609 -0.1698  0.1467
    2MOL    O96  398   4.969   5.974   1.305 -0.4596 -0.2581  0.1124
    2MOL    C97  399   4.841   5.994   1.242 -0.3967  0.9819  0.1273
    2MOL    C98  400   4.818   5.875   1.147  0.6986 -0.7667  0.2024
    2MOL    H99  401   5.294   6.035   1.527  1.4710  2.3193 -1.1599
    2MOL   H100  402   5.124   5.977   1.526  0.8618 -0.2233 -1.1417
    2MOL   H101  403   5.279   6.086   1.303 -0.9584  1.5619  1.7084
    2MOL   H102  404   4.767   6.001   1.323 -1.1215 -1.1425 -0.3096
    2MOL   H103  405   4.841   6.086   1.184  1.5538  0.0600 -1.3506
    2MOL   H104  406   4.827   5.777   1.193  0.6039 -1.1392 -0.5651
    2MOL   H105  407   4.880   5.891   1.058 -0.2444  1.3127 -0.1069
    2MOL   H106  408   4.716   5.888   1.111 -0.0649  0.7125  2.8171
    2MOL   C107  409   5.254   5.873   1.313  0.7899 -0.0655 -0.5171
    2MOL   C108  410   5.295   5.819   1.169 -0.0644  0.7540 -0.0179
    2MOL   C109  411   5.195   5.719   1.112 -0.2948 -0.0373 -1.0505
    2MOL   O110  412   5.156   5.724   0.996  0.1581  0.0976  0.0477
    2MOL   O111  413   5.166   5.623   1.202  0.4264  1.0654  0.2012
    2MOL   C112  414   5.062   5.534   1.181  0.5762 -0.7324 -0.5850
    2MOL   C113  415   5.032   5.469   1.315 -0.6488 -0.7641 -0.1914
    2MOL   H114  416   5.339   5.860   1.381  1.7407  0.1444 -1.6434
    2MOL   H115  417   5.179   5.815   1.367  0.4988  1.9395  1.2924
    2MOL   H116  418   5.283   5.900   1.096 -1.5358  1.0292  0.5084
    2MOL   H117  419   4.972   5.578   1.140 -0.3072 -3.7002 -1.9585
    2MOL   H118  420   5.112   5.457   1.122 -2.1781 -0.6448 -3.1475
    2MOL   H119  421   4.945   5.405   1.300 -0.9389 -0.8476  1.7329
    2MOL   H120  422   5.023   5.547   1.390 -0.8539 -0.6264 -0.3560
    2MOL   H121  423   5.113   5.411   1.359  0.9676  1.3975 -0.2579
    2MOL   C122  424   5.440   5.752   1.168 -0.4673 -0.4695  0.9915
    2MOL   C123  425   5.568   5.821   1.231 -0.2025  0.1829  0.7357
    2MOL   C124  426   5.583   5.944   1.154 -0.1320 -0.2198  0.4147
    2MOL   O125  427   5.553   6.051   1.209  0.2825 -0.6731 -0.1471
    2MOL   O126  428   5.626   5.925   1.025  0.3432 -0.3323 -0.4388
    2MOL   C127  429   5.637   6.046   0.950  0.6821  0.5444 -0.1853
    2MOL   C128  430   5.499   6.080   0.887  0.1418  0.1190 -0.2881
    2MOL   H129  431   5.432   5.660   1.226 -1.5153 -1.6135 -0.8938
    2MOL   H130  432   5.460   5.709   1.069 -4.5584 -0.4437  0.0539
    2MOL   H131  433   5.556   5.855   1.334 -0.6323  1.5543  0.2415
    2MOL   H132  434   5.688   6.123   1.007 -0.0044  0.8413  0.0349
    2MOL   H133  435   5.707   6.022   0.870 -0.5239 -1.9547 -0.5620
    2MOL   H134  436   5.416   6.081   0.958  0.1088 -3.6474 -0.1686
    2MOL   H135  437   5.478   5.992   0.826 -0.4314  0.6178 -0.8203
    2MOL   H136  438   5.494   6.171   0.827  0.1208  0.0135 -0.4461
    2MOL   C137  439   5.698   5.738   1.225  0.7175  0.4831 -0.1333
    2MOL   C138  440   5.735   5.668   1.357 -0.1718  0.7208  0.1203
    2MOL   C139  441   5.795   5.772   1.451  0.6082  0.0153  0.5876
    2MOL   O140  442   5.919   5.788   1.457  0.4697  0.4117  0.6240
    2MOL   O141  443   5.703   5.822   1.530  0.0627  0.0156  0.2483
    2MOL   C142  444   5.737   5.919   1.625  0.8986 -0.4501  0.4555
    2MOL   C143  445   5.617   5.954   1.717 -0.6585 -0.2131 -0.2871
    2MOL   H144  446   5.703   5.676   1.136 -0.6204  2.4724 -1.6640
    2MOL   H145  447   5.778   5.812   1.214  0.1754  1.0348 -0.4392
    2MOL   H146  448   5.647   5.616   1.394  0.3193 -1.1414 -1.2621
    2MOL   H147  449   5.815   5.868   1.681  1.9128 -0.8957 -1.3214
    2MOL   H148  450   5.774   6.009   1.574 -1.2858  1.2043  1.7163
    2MOL   H149  451   5.523   5.984   1.673  0.1671  1.3001 -1.0369
    2MOL   H150  452   5.651   6.027   1.791  0.6656 -1.5052  0.4300
    2MOL   H151  453   5.595   5.863   1.774 -1.8049 -0.3948 -1.0213
    2MOL   C152  454   5.834   5.555   1.326 -0.2399  0.1404 -1.1679
    2MOL   C153  455   5.902   5.481   1.443 -0.4383 -0.1517 -0.3448
    2MOL   C154  456   6.009   5.375   1.396  0.2883  0.1077 -1.0431
    2MOL   O155  457   6.117   5.370   1.457  0.0993 -0.4591 -0.0030
    2MOL   O156  458   5.971   5.289   1.300  0.1765 -0.0164  0.0862
    2MOL   C157  459   6.059   5.182   1.269 -0.0327  0.5255 -0.1234
    2MOL   C158  460   6.134   5.225   1.142  0.2855 -0.3636 -0.1826
    2MOL   H159  461   5.779   5.482   1.267 -2.5291  0.8950 -0.0294
    2MOL   H160  462   5.908   5.595   1.256 -1.1675  1.0070 -1.6615
    2MOL   H161  463   5.967   5.545   1.503 -0.8051 -1.7649  1.8004
    2MOL   H162  464   6.124   5.149   1.351  1.6531 -1.7251 -2.3071
    2MOL   H163  465   6.005   5.091   1.245  0.5306 -0.1856  1.2017
    2MOL   H164  466   6.179   5.320   1.172  0.6476 -0.6866  0.3185
    2MOL   H165  467   6.073   5.257   1.058  0.5832  1.8730  0.3982
    2MOL   H166  468   6.200   5.147   1.105 -0.6981 -0.6755 -1.2761
    2MOL   C167  469   5.795   5.415   1.532 -0.1793 -0.2241 -0.0435
    2MOL   C168  470   5.745   5.490   1.660 -0.5185  0.2677 -0.3788
    2MOL   C169  471   5.854   5.511   1.765 -0.3565  0.6782  1.0169
    2MOL   O170  472   5.946   5.436   1.786 -0.9824  0.3632 -0.7923
    2MOL   O171  473   5.835   5.621   1.843 -0.1215 -0.3068  0.3428
    2MOL   C172  474   5.940   5.681   1.909 -0.2030  0.2290 -0.5121
    2MOL   C173  475   5.888   5.799   1.992 -0.0208  0.4306  0.3811
    2MOL   H174  476   5.709   5.394   1.468 -1.6631 -1.3173  2.2480
    2MOL   H175  477   5.838   5.323   1.570 -1.5352 -0.5364  0.7571
    2MOL   H176  478   5.724   5.593   1.630  1.4050  0.2386 -1.9595
    2MOL   H177  479   5.980   5.610   1.982 -0.4967  1.3095  0.7203
    2MOL   H178  480   6.015   5.706   1.834 -1.7768  0.1244 -2.1422
    2MOL   H179  481   5.817   5.759   2.065  0.6403 -1.5304 -0.0361
    2MOL   H180  482   5.845   5.885   1.941 -1.2317  0.3804  1.2970
    2MOL   H181  483   5.967   5.832   2.060  2.1395 -3.1291 -0.2692
    2MOL   C182  484   5.614   5.429   1.718 -0.6825  0.1399  0.0094
    2MOL   C183  485   5.492   5.463   1.619  1.0147  0.1319 -0.1981
    2MOL   C184  486   5.452   5.610   1.625  0.4558 -0.8071 -0.4250
    2MOL   O185  487   5.450   5.678   1.523 -0.0668  0.3896  0.1982
    2MOL   O186  488   5.407   5.646   1.747 -0.7527  0.0829  1.2493
    2MOL   C187  489   5.346   5.779   1.758 -0.2995 -0.2740 -0.0785
    2MOL   C188  490   5.207   5.762   1.809 -0.3336  0.3141  0.2123
    2MOL   H189  491   5.623   5.320   1.720 -0.1068  0.2003  0.9433
    2MOL   H190  492   5.593   5.460   1.820 -0.0940  1.1130 -0.1602
    2MOL   H191  493   5.515   5.451   1.514  0.4046  0.1502 -0.3387
    2MOL   H192  494   5.403   5.843   1.825 -0.7970  0.3121 -0.2122
    2MOL   H193  495   5.352   5.847   1.673  0.8888  0.6780  0.7677
    2MOL   H194  496   5.161   5.675   1.762  0.2324  1.5921 -2.8254
    2MOL   H195  497   5.153   5.844   1.763 -1.1213 -0.0300  0.5253
    2MOL   H196  498   5.202   5.745   1.917  1.9985  0.2805  0.3556
    2MOL   C197  499   5.373   5.364   1.627 -0.2530  0.0473  0.0203
    2MOL   C198  500   5.385   5.226   1.561  0.1018 -0.0163 -0.6000
    2MOL   C199  501   5.448   5.225   1.418 -0.8283  0.7575  0.0709
    2MOL   O200  502   5.549   5.157   1.402 -0.6065  0.5421  0.8177
    2MOL   O201  503   5.393   5.301   1.321 -0.3960  0.3244 -0.0109
    2MOL   C202  504   5.443   5.288   1.189 -0.0585 -0.1654 -0.0817
    2MOL   C203  505   5.357   5.202   1.098  0.4048  0.0029  0.5888
    2MOL   H204  506   5.368   5.343   1.734  3.6011 -0.5264  0.1526
    2MOL   H205  507   5.289   5.426   1.593 -0.7495 -0.4036  0.4144
    2MOL   H206  508   5.456   5.169   1.622  1.4835  1.7915 -0.4706
    2MOL   H207  509   5.416   5.383   1.143 -0.7694  0.3566  1.3776
    2MOL   H208  510   5.542   5.246   1.176 -0.2267 -0.1413 -1.5343
    2MOL   H209  511   5.335   5.118   1.164  1.9752  0.2448  1.4618
    2MOL   H210  512   5.405   5.175   1.004 -0.9882  1.6114 -0.6070
    2MOL   H211  513   5.261   5.251   1.083 -0.1117 -1.2949 -0.4308
    2MOL   C212  514   5.248   5.147   1.557  0.3747 -0.2403 -0.7477
    2MOL   C213  515   5.247   5.010   1.484  0.1776 -0.7831 -0.1773
    2MOL   C214  516   5.103   4.964   1.461  0.7154  0.0740 -0.5078
    2MOL   O215  517   5.068   4.845   1.467 -0.3444  0.1929  0.4181
    2MOL   O216  518   5.030   5.055   1.402 -0.1566 -0.1542  0.0936
    2MOL   C217  519   4.907   5.020   1.329  0.1094 -0.0202  0.5777
    2MOL   C218  520   4.789   5.097   1.388 -0.8975  0.8836 -0.1259
    2MOL   H219  521   5.212   5.134   1.659  2.0010  1.5249  0.0953
    2MOL   H220  522   5.178   5.219   1.514  0.5804  0.2831 -0.2209
    2MOL   H221  523   5.290   5.027   1.385  0.0683 -1.0614 -0.2704
    2MOL   H222  524   4.922   5.044   1.223  1.2242 -0.5803  0.5925
    2MOL   H223  525   4.887   4.913   1.331 -0.3015  0.0261 -0.5647
    2MOL   H224  526   4.811   5.203   1.387 -2.7487  1.2779 -1.2240
    2MOL   H225  527   4.751   5.077   1.488 -0.3780  0.5609  0.0079
    2MOL   H226  528   4.698   5.080   1.329 -0.0161  0.1369 -1.2946
    2MOL   C227  529   5.348   4.902   1.532 -0.0718  0.1178 -0.0796
    2MOL   C228  530   5.360   4.769   1.455  0.9087  0.0379  0.3933
    2MOL   C229  531   5.449   4.676   1.542  0.1115 -0.0974 -0.4496
    2MOL   O230  532   5.411   4.580   1.607  0.4699  0.1965  0.1133
    2MOL   O231  533   5.584   4.710   1.535 -0.4153 -0.2603  0.1679
    2MOL   C232  534   5.677   4.648   1.611 -0.6169 -0.0155 -0.7928
    2MOL   C233  535   5.725   4.529   1.526  0.1155 -0.3614 -0.8233
    2MOL   H234  536   5.441   4.949   1.566  1.0115  0.1346 -2.9313
    2MOL   H235  537   5.308   4.869   1.627 -1.8972  0.8512 -0.5794
    2MOL   H236  538   5.266   4.714   1.450  0.9446  0.2533 -5.0758
    2MOL   H237  539   5.766   4.706   1.634 -1.0804  0.0230  0.9777
    2MOL   H238  540   5.639   4.620   1.709  0.4059  0.4424 -0.2588
    2MOL   H239  541   5.667   4.437   1.533  0.5559 -0.6156 -0.4733
    2MOL   H240  542   5.811   4.490   1.580  1.0522  1.1265 -1.2211
    2MOL   H241  543   5.746   4.546   1.420  1.2326 -2.9802 -1.0521
    2MOL   C242  544   5.413   4.789   1.309 -0.5765 -0.1727  0.6053
    2MOL   C243  545   5.325   4.722   1.201 -0.0160  0.6413  0.9076
    2MOL   C244  546   5.344   4.572   1.221  0.5076 -0.3115 -0.4188
    2MOL   O245  547   5.446   4.517   1.183 -0.1412 -0.0136 -0.5013
    2MOL   O246  548   5.239   4.513   1.281  0.4723  0.1723 -0.0887
    2MOL   C247  549   5.242   4.373   1.304 -0.2060 -0.1564 -0.1078
    2MOL   C248  550   5.339   4.317   1.410 -0.0658 -0.7208  0.5207
    2MOL   H249  551   5.432   4.892   1.281  1.7340 -0.4426  1.0035
    2MOL   H250  552   5.516   4.755   1.299 -0.9798 -1.4872  0.8108
    2MOL   H251  553   5.220   4.744   1.219  0.2878  1.2609  1.9854
    2MOL   H252  554   5.140   4.343   1.327 -0.4159 -0.6939 -1.6490
    2MOL   H253  555   5.266   4.325   1.209  1.6847  1.5665 -0.5487
    2MOL   H254  556   5.333   4.209   1.419 -0.7655 -0.6660  0.7742
    2MOL   H255  557   5.311   4.364   1.505 -0.5311 -0.7972  0.4251
    2MOL   H256  558   5.446   4.332   1.401 -0.2864 -0.5998 -2.2460
    2MOL   C257  559   5.377   4.755   1.055  0.2611  0.1956 -0.7669
    2MOL   C258  560   5.260   4.724   0.953  0.3930  0.4938  0.4414
    2MOL   C259  561   5.313   4.718   0.811  0.3198  0.0542 -0.5511
    2MOL   O260  562   5.299   4.611   0.757  0.0898 -0.2302 -0.0716
    2MOL   O261  563   5.354   4.828   0.752  0.2736 -0.1447 -0.7042
    2MOL   C262  564   5.395   4.832   0.619 -0.2977 -0.5433 -0.2566
    2MOL   C263  565   5.462   4.966   0.580  0.3845 -1.0300 -0.0667
    2MOL   H264  566   5.393   4.861   1.033  0.1717  0.2975 -0.3544
    2MOL   H265  567   5.472   4.706   1.034  0.0037 -1.1911  1.1786
    2MOL   H266  568   5.213   4.628   0.974  2.3666 -0.6599 -0.3348
    2MOL   H267  569   5.470   4.758   0.592  0.7603  0.9181 -1.4558
    2MOL   H268  570   5.304   4.814   0.562 -0.7274  2.4670 -0.6079
    2MOL   H269  571   5.546   4.992   0.643  0.5459 -1.9407  0.1071
    2MOL   H270  572   5.392   5.047   0.599 -1.0817 -2.0594 -1.0164
    2MOL   H271  573   5.498   4.975   0.477  1.7937 -1.9846  0.3198
    2MOL   C272  574   5.145   4.826   0.964 -0.1936 -0.4186 -0.2941
    2MOL   C273  575   5.043   4.842   0.853  0.3411  0.2398 -0.0590
    2MOL   C274  576   4.958   4.964   0.862 -0.3499 -0.0828  0.6777
    2MOL   O275  577   4.924   5.011   0.970  0.0509 -0.4770 -0.2456
    2MOL   O276  578   4.930   5.009   0.741 -0.1344  0.6350  0.3731
    2MOL   C277  579   4.854   5.120   0.716  0.9785 -0.0983 -0.3571
    2MOL   C278  580   4.867   5.168   0.570 -0.1182 -0.2493 -0.1236
    2MOL   H279  581   5.089   4.808   1.056 -0.4359  0.6920 -0.2214
    2MOL   H280  582   5.187   4.926   0.976  0.9856 -0.7485 -1.5469
    2MOL   H281  583   5.100   4.873   0.765  1.2953 -1.3143 -0.0011
    2MOL   H282  584   4.752   5.115   0.756  1.6396  0.7248  1.5086
    2MOL   H283  585   4.900   5.194   0.781 -1.3399  1.2318 -0.1532
    2MOL   H284  586   4.822   5.100   0.497  0.8155 -0.5803 -0.3924
    2MOL   H285  587   4.973   5.181   0.551 -0.1779 -0.5882 -0.6952
    2MOL   H286  588   4.829   5.269   0.558  0.2134  0.0804  1.4939
    2MOL   C287  589   4.951   4.718   0.829 -0.2773  0.2347  0.8501
    2MOL   C288  590   4.843   4.680   0.927 -0.1348 -0.1828 -0.2955
    2MOL   C289  591   4.900   4.622   1.054 -0.1466 -0.4205 -0.0680
    2MOL   O290  592   5.010   4.568   1.064 -0.1249  0.2175 -0.0857
    2MOL   O291  593   4.810   4.622   1.150  0.3302  0.1632  0.2308
    2MOL   C292  594   4.850   4.574   1.281  0.5038 -0.4840  0.1645
    2MOL   C293  595   4.840   4.424   1.286 -0.4436 -0.3099 -0.6680
    2MOL   H294  596   4.900   4.745   0.737  0.1383  5.0291  1.8532
    2MOL   H295  597   5.000   4.624   0.807 -1.2836  0.2017 -1.3828
    2MOL   H296  598   4.772   4.758   0.952 -0.0992 -0.5991  1.1678
    2MOL   H297  599   4.948   4.615   1.305  0.3329  0.2740 -0.4215
    2MOL   H298  600   4.771   4.608   1.348  2.5718 -3.2102  4.1547
    2MOL   H299  601   4.732   4.407   1.283 -0.4964  0.0936 -1.3333
    2MOL   H300  602   4.888   4.392   1.378 -0.7956  2.5960  0.5878
    2MOL   H301  603   4.884   4.389   1.193  2.7640  0.5769  0.4705
    2MOL   H302  604   4.773   4.608   0.885 -0.1392  0.2490 -1.0333
    3MOL     C1  605   6.824   4.771   5.024 -0.2411  0.4702 -0.5461
    3MOL     C2  606   6.883   4.832   5.156  0.4401  0.7722 -0.4127
    3MOL     C3  607   7.016   4.897   5.142 -0.1886  0.3536 -0.0948
    3MOL     O4  608   7.097   4.844   5.064 -0.1757 -0.3147 -0.2094
    3MOL     O5  609   7.042   4.998   5.230  0.2692 -0.6064  0.3772
    3MOL     C6  610   7.158   5.079   5.218  0.1731  0.0122  0.6766
    3MOL     C7  611   7.116   5.223   5.214 -0.1687  0.2027  0.4990
    3MOL     H8  612   6.904   4.712   4.978  0.0104  2.0566 -2.2284
    3MOL     H9  613   6.796   4.856   4.961  1.0133  1.6490  0.4512
    3MOL    H10  614   6.806   4.892   5.205 -1.2734 -1.6645 -0.0527
    3MOL    H11  615   7.235   5.071   5.294  0.5453  1.2475  0.4476
    3MOL    H12  616   7.205   5.066   5.120 -2.6470 -1.7753 -0.5082
    3MOL    H13  617   7.195   5.294   5.188  0.2967 -0.8344 -1.0459
    3MOL    H14  618   7.088   5.266   5.310 -1.2499 -0.9501  0.7033
    3MOL    H15  619   7.032   5.249   5.150  1.5739  1.3254 -1.3899
    3MOL    H16  620   6.732   4.715   5.033  1.0827 -1.4801  1.3864
    3MOL    C17  621   6.889   4.711   5.255  0.0525  0.9237  0.2127
    3MOL    C18  622   6.925   4.753   5.399  0.1270  0.6566  0.1946
    3MOL    C19  623   6.951   4.625   5.483 -0.2848 -0.8245  0.4126
    3MOL    O20  624   6.867   4.575   5.558 -1.0697 -0.3439  0.0401
    3MOL    O21  625   7.068   4.572   5.455 -0.4511 -0.2177  0.6821
    3MOL    C22  626   7.105   4.448   5.508  0.4182  0.1820 -0.0682
    3MOL    C23  627   7.195   4.473   5.638 -0.2869  0.3062  0.5054
    3MOL    H24  628   6.793   4.661   5.269  0.5889  0.6331  3.0550
    3MOL    H25  629   6.962   4.642   5.213  1.4589  2.9982 -0.8126
    3MOL    H26  630   7.018   4.810   5.403 -0.0247  0.9308 -0.1373
    3MOL    H27  631   7.013   4.394   5.527 -0.2882  1.2891 -0.2863
    3MOL    H28  632   7.154   4.386   5.433  0.4964 -0.0815  0.1969
    3MOL    H29  633   7.260   4.560   5.626 -0.1217  0.1988  0.6209
    3MOL    H30  634   7.252   4.383   5.661 -0.4366 -0.9893 -3.8083
    3MOL    H31  635   7.129   4.494   5.722  0.8635  0.8620  1.2765
    3MOL    C32  636   6.816   4.841   5.461 -0.0181  0.1221 -0.6247
    3MOL    C33  637   6.838   4.880   5.610 -0.2753 -0.4915 -0.2128
    3MOL    C34  638   6.695   4.917   5.656  0.8367  0.1157 -0.5470
    3MOL    O35  639   6.642   4.852   5.746 -0.0990 -0.1770  0.8332
    3MOL    O36  640   6.639   5.022   5.593  0.3563 -0.6111 -0.1737
    3MOL    C37  641   6.509   5.068   5.646 -0.6864 -0.6309  0.3139
    3MOL    C38  642   6.550   5.183   5.737 -0.1521  1.1641 -0.3179
    3MOL    H39  643   6.794   4.936   5.412  0.2758  1.1461  1.1586
    3MOL    H40  644   6.727   4.779   5.453 -0.0584 -0.2858  2.2603
    3MOL    H41  645   6.867   4.798   5.675  1.0014 -2.3734 -3.0545
    3MOL    H42  646   6.434   5.091   5.570  0.4282 -0.4918 -0.7568
    3MOL    H43  647   6.452   4.999   5.709 -1.2770  0.3472  0.8580
    3MOL    H44  648   6.455   5.226   5.768 -0.5808  0.1665 -0.2304
    3MOL    H45  649   6.600   5.250   5.668 -1.3110  0.6898 -1.6568
    3MOL    H46  650   6.613   5.165   5.824 -0.1389 -1.4926 -0.8524
    3MOL    C47  651   6.951   4.993   5.616 -0.1596  0.6262 -0.3333
    3MOL    C48  652   6.989   5.032   5.764  0.4493  0.3921  0.2832
    3MOL    C49  653   6.929   5.168   5.808  0.4735 -0.0827 -0.0729
    3MOL    O50  654   6.849   5.192   5.901 -0.0188 -0.5816 -0.1923
    3MOL    O51  655   6.987   5.267   5.740 -0.2968 -0.4221 -0.0393
    3MOL    C52  656   6.939   5.402   5.750 -0.0627  0.3145  0.2902
    3MOL    C53  657   6.884   5.443   5.614  0.1464 -0.0454  0.5618
    3MOL    H54  658   7.040   4.965   5.561 -1.0323 -0.0059 -1.4332
    3MOL    H55  659   6.919   5.087   5.570  2.1187  0.0358 -3.2637
    3MOL    H56  660   6.934   4.963   5.828  0.9518 -1.8110 -1.5766
    3MOL    H57  661   6.848   5.412   5.809  1.2307  0.6280  2.3111
    3MOL    H58  662   7.009   5.471   5.799 -0.1228  0.0847  0.7035
    3MOL    H59  663   6.861   5.549   5.610  0.5026 -0.0357 -2.4449
    3MOL    H60  664   6.804   5.377   5.580  1.1080 -0.8066 -0.2484
    3MOL    H61  665   6.963   5.425   5.541 -0.0683  0.5431  0.1858
    3MOL    C62  666   7.143   5.007   5.776 -0.1448 -0.5999 -0.4295
    3MOL    C63  667   7.190   4.862   5.767 -1.1513  0.0696 -0.0261
    3MOL    C64  668   7.125   4.772   5.876 -0.1026 -0.1639  0.6494
    3MOL    O65  669   7.038   4.691   5.832  0.0881 -0.4017 -0.8497
    3MOL    O66  670   7.170   4.779   6.001  0.3362 -0.3896  0.1780
    3MOL    C67  671   7.133   4.681   6.095  0.0994 -0.0812 -0.8356
    3MOL    C68  672   7.172   4.742   6.232 -0.1769  0.0425 -0.6621
    3MOL    H69  673   7.195   5.084   5.719 -0.0549  0.9196  1.6313
    3MOL    H70  674   7.163   5.045   5.876  0.6773 -0.1758 -0.7543
    3MOL    H71  675   7.158   4.814   5.674  0.5248 -0.0867 -0.5429
    3MOL    H72  676   7.026   4.660   6.093 -0.0140  0.5195 -1.1041
    3MOL    H73  677   7.184   4.588   6.073 -0.6360 -0.4554 -0.9671
    3MOL    H74  678   7.152   4.668   6.309  1.2656  0.2474 -0.0811
    3MOL    H75  679   7.117   4.831   6.261 -0.0044  0.3033 -1.1273
    3MOL    H76  680   7.279   4.760   6.223 -0.0884 -1.8431 -4.5156
    3MOL    C77  681   7.344   4.835   5.775  0.4685 -0.1306 -0.2812
    3MOL    C78  682   7.423   4.901   5.660 -0.2542 -0.4858 -0.5595
    3MOL    C79  683   7.376   4.856   5.518 -0.3668  0.2640 -0.3980
    3MOL    O80  684   7.314   4.933   5.444  0.0735  0.0200 -0.2208
    3MOL    O81  685   7.417   4.733   5.476  0.1843 -0.1840 -0.3906
    3MOL    C82  686   7.377   4.694   5.340 -0.0167 -0.5932 -0.1861
    3MOL    C83  687   7.447   4.557   5.309  0.2719  0.4438 -0.2242
    3MOL    H84  688   7.380   4.880   5.867 -0.7154  0.8009 -0.2675
    3MOL    H85  689   7.354   4.727   5.787 -0.6550 -0.1696  0.3160
    3MOL    H86  690   7.396   5.006   5.665 -1.1950 -0.6742 -1.5797
    3MOL    H87  691   7.269   4.682   5.330 -0.5110  2.8417  0.1912
    3MOL    H88  692   7.409   4.759   5.259  0.4544  1.5341  1.6494
    3MOL    H89  693   7.422   4.482   5.384  0.6288  1.3151  0.7720
    3MOL    H90  694   7.551   4.568   5.279  0.4846  1.8327  0.9710
    3MOL    H91  695   7.397   4.516   5.221 -1.2501 -0.4134  1.0098
    3MOL    C92  696   7.569   4.887   5.695  0.4856 -0.8185  0.1827
    3MOL    C93  697   7.669   4.952   5.583  0.0815  0.3029  0.0466
    3MOL    C94  698   7.803   4.886   5.602  0.8631 -0.1984  0.0162
    3MOL    O95  699   7.841   4.797   5.527  0.1611 -0.0871 -0.0353
    3MOL    O96  700   7.862   4.922   5.716 -1.2000  0.4380 -0.2679
    3MOL    C97  701   0.085   4.888   5.746 -0.2612  1.1384 -0.2641
    3MOL    C98  702   0.130   4.921   5.889 -0.3782  0.9085 -0.0898
    3MOL    H99  703   7.588   4.924   5.795 -0.3814  0.8129 -0.2271
    3MOL   H100  704   7.596   4.782   5.689  1.0826 -0.5849 -1.6046
    3MOL   H101  705   7.644   4.931   5.479 -1.2216 -0.4552  0.4982
    3MOL   H102  706   0.099   4.781   5.730  0.7089  1.3682 -0.9768
    3MOL   H103  707   0.152   4.937   5.676 -0.2794 -1.2337 -2.0049
    3MOL   H104  708   0.234   4.912   5.918 -0.5162  1.6657  0.6862
    3MOL   H105  709   0.080   4.851   5.955 -1.7774  1.2528 -0.7575
    3MOL   H106  710   0.093   5.023   5.908 -1.2748  0.4891  0.4728
    3MOL   C107  711   7.675   5.109   5.608  0.0846 -0.1005 -0.2324
    3MOL   C108  712   7.766   5.186   5.504  0.2509  0.4582  0.1554
    3MOL   C109  713   0.007   5.196   5.539  0.2937  0.0362  0.3516
    3MOL   O110  714   0.045   5.238   5.647  0.3179  0.1804 -0.1692
    3MOL   O111  715   0.094   5.150   5.440 -0.6062  0.2230  0.2669
    3MOL   C112  716   0.231   5.141   5.460  0.2301 -0.0135  0.5493
    3MOL   C113  717   0.289   5.016   5.394 -0.4698 -1.1107  0.5231
    3MOL   H114  718   7.576   5.153   5.618  0.6132  1.0381 -0.0040
    3MOL   H115  719   7.712   5.134   5.707 -0.5231  1.8108 -0.4708
    3MOL   H116  720   7.767   5.128   5.412  0.2399 -0.7038  0.8877
    3MOL   H117  721   0.280   5.229   5.420  0.2723 -0.8053 -1.1885
    3MOL   H118  722   0.264   5.140   5.564  1.5849  2.0111  0.1516
    3MOL   H119  723   0.380   4.985   5.445  0.2504  2.8706  1.9041
    3MOL   H120  724   0.313   5.038   5.291 -0.6907 -0.9037  0.5143
    3MOL   H121  725   0.219   4.933   5.409  0.1202 -1.7900 -0.4993
    3MOL   C122  726   7.710   5.325   5.459 -0.2288 -0.4928 -0.2489
    3MOL   C123  727   7.584   5.329   5.364 -0.1960 -0.5416  0.4343
    3MOL   C124  728   7.593   5.250   5.231 -0.5408  0.0663  0.1395
    3MOL   O125  729   7.697   5.248   5.167  0.1755 -0.1811 -0.0578
    3MOL   O126  730   7.476   5.183   5.205 -0.0794  0.1040 -0.4237
    3MOL   C127  731   7.473   5.111   5.084  0.9676  0.4306  0.7767
    3MOL   C128  732   7.438   5.202   4.957  0.3367 -0.4598  0.0987
    3MOL   H129  733   7.683   5.371   5.554 -4.4606 -1.5810 -0.8188
    3MOL   H130  734   7.794   5.379   5.418 -0.7604  0.5361 -0.0005
    3MOL   H131  735   7.507   5.273   5.416 -1.7803  1.0919 -0.0940
    3MOL   H132  736   7.568   5.062   5.062  0.0037 -1.2179  0.1356
    3MOL   H133  737   7.400   5.030   5.084  2.6663 -1.1399 -1.2556
    3MOL   H134  738   7.519   5.275   4.949 -2.1339  2.4901  1.2537
    3MOL   H135  739   7.358   5.275   4.969  1.4338  1.0508 -1.5890
    3MOL   H136  740   7.429   5.168   4.854 -0.0194  0.2700 -0.1092
    3MOL   C137  741   7.545   5.477   5.331 -0.2160  1.0400 -0.3715
    3MOL   C138  742   7.475   5.570   5.444 -0.3136 -0.9205  0.3322
    3MOL   C139  743   7.365   5.492   5.520 -0.1965 -0.3046  0.1665
    3MOL   O140  744   7.249   5.500   5.486 -0.1656 -0.6506 -0.5022
    3MOL   O141  745   7.419   5.423   5.621  0.5874 -0.3452  0.2470
    3MOL   C142  746   7.350   5.316   5.680  0.5785 -0.0466 -0.1475
    3MOL   C143  747   7.321   5.343   5.827 -0.4907  0.4666 -0.5339
    3MOL   H144  748   7.637   5.515   5.286 -0.4368  0.8639 -0.9861
    3MOL   H145  749   7.473   5.481   5.250  0.2306  1.3934 -0.7520
    3MOL   H146  750   7.557   5.597   5.511  1.1895 -1.8305 -1.1054
    3MOL   H147  751   7.261   5.290   5.623  0.5476  2.0920 -1.1086
    3MOL   H148  752   7.415   5.229   5.682  2.0639  1.0457  0.2955
    3MOL   H149  753   7.249   5.422   5.851 -0.4700 -0.1412  1.6595
    3MOL   H150  754   7.409   5.349   5.891 -1.4679  1.9533  0.7295
    3MOL   H151  755   7.266   5.255   5.860 -0.9748  0.8599 -0.2804
    3MOL   C152  756   7.411   5.701   5.398 -0.4045  0.4544  0.1220
    3MOL   C153  757   7.503   5.793   5.304 -0.2375  0.2021 -0.4539
    3MOL   C154  758   7.628   5.833   5.389  0.2161 -0.2137 -0.2880
    3MOL   O155  759   7.740   5.814   5.344  0.2507  0.0651 -0.2576
    3MOL   O156  760   7.596   5.915   5.493  0.0115  0.1536  0.2968
    3MOL   C157  761   7.693   5.988   5.558  0.1431  0.6161 -0.4881
    3MOL   C158  762   7.634   6.124   5.593  0.7082  0.7767 -0.2394
    3MOL   H159  763   7.316   5.693   5.346 -1.3371  0.1929  1.8293
    3MOL   H160  764   7.385   5.750   5.492  0.1889 -2.7099  2.0121
    3MOL   H161  765   7.524   5.722   5.223  0.8566 -0.2659  0.2278
    3MOL   H162  766   7.725   5.935   5.648  0.8594 -0.3985 -1.3333
    3MOL   H163  767   7.782   5.996   5.496  0.9418  2.6995  0.8652
    3MOL   H164  768   7.549   6.118   5.660  0.5378  1.6565 -0.3651
    3MOL   H165  769   7.606   6.169   5.497  0.1279 -2.0499 -1.4352
    3MOL   H166  770   7.709   6.190   5.636  2.5697 -0.4394 -1.5358
    3MOL   C167  771   7.427   5.911   5.236 -0.3179  0.3822 -0.0413
    3MOL   C168  772   7.418   5.914   5.079  0.1850 -0.4058  0.3788
    3MOL   C169  773   7.345   5.796   5.025  0.6010  0.3118  0.9350
    3MOL   O170  774   7.405   5.696   4.986 -0.2883 -0.0569 -0.3704
    3MOL   O171  775   7.214   5.815   5.013 -0.3288  0.0351 -0.1295
    3MOL   C172  776   7.128   5.713   4.961 -0.0941  0.9736 -0.3034
    3MOL   C173  777   7.114   5.585   5.057  0.2508 -0.3561 -0.3597
    3MOL   H174  778   7.326   5.926   5.273 -0.3800 -1.4034  0.5751
    3MOL   H175  779   7.475   6.000   5.275 -0.3733  0.0150  0.8703
    3MOL   H176  780   7.366   6.005   5.048  1.0503  0.2240  0.7490
    3MOL   H177  781   7.030   5.758   4.944 -0.0200  1.7938  1.3430
    3MOL   H178  782   7.177   5.689   4.866  0.0517 -0.5509  0.1365
    3MOL   H179  783   7.206   5.528   5.070 -0.1511 -0.3974  2.4750
    3MOL   H180  784   7.035   5.513   5.035  0.8632 -2.0984  2.8528
    3MOL   H181  785   7.097   5.620   5.159  1.7336 -0.3392 -0.1108
    3MOL   C182  786   7.559   5.938   5.011  0.8802 -0.3701 -0.0982
    3MOL   C183  787   7.647   6.054   5.062 -0.0150  0.1478 -0.4686
    3MOL   C184  788   7.567   6.189   5.057 -0.7885  0.7248  0.1946
    3MOL   O185  789   7.483   6.221   4.971 -0.8428 -0.0059 -0.0191
    3MOL   O186  790   7.611   6.278   5.155 -0.3868 -0.3990 -0.4255
    3MOL   C187  791   7.560   6.416   5.153  1.1105 -0.0933 -0.5358
    3MOL   C188  792   7.627   6.510   5.055 -0.5264 -0.0787  0.4531
    3MOL   H189  793   7.617   5.846   5.006 -0.8059 -1.4568 -0.0239
    3MOL   H190  794   7.547   5.966   4.906  1.2941  4.0497  0.9401
    3MOL   H191  795   7.670   6.032   5.167 -0.9913 -2.4781 -0.7657
    3MOL   H192  796   7.457   6.407   5.118  1.2116  2.6602 -1.6985
    3MOL   H193  797   7.549   6.466   5.249 -0.1559 -0.7791 -0.3108
    3MOL   H194  798   7.591   6.479   4.956 -0.7416 -0.1962  0.5680
    3MOL   H195  799   7.734   6.492   5.065 -0.9255 -2.2196  1.1142
    3MOL   H196  800   7.600   6.609   5.091 -2.3257 -0.9741  1.6186
    3MOL   C197  801   7.785   6.086   5.001 -0.5176  0.1829  0.3476
    3MOL   C198  802   7.907   6.017   5.065 -0.6107  0.2499  0.4225
    3MOL   C199  803   0.054   6.083   5.188  0.0792  0.3519 -0.7360
    3MOL   O200  804   7.889   6.153   5.260 -0.3239 -0.4763  0.1952
    3MOL   O201  805   0.174   6.034   5.216  0.7676 -0.1445  0.2833
    3MOL   C202  806   0.214   6.026   5.352  0.1597  0.0957  0.4327
    3MOL   C203  807   0.360   5.974   5.358 -0.2804  0.4492  0.8181
    3MOL   H204  808   7.771   6.051   4.899 -0.5435  0.2777  0.3186
    3MOL   H205  809   7.801   6.194   5.000 -2.7372  0.5400  0.6906
    3MOL   H206  810   7.877   5.915   5.090 -0.2601 -0.5436 -2.1747
    3MOL   H207  811   0.220   6.126   5.396  0.5834  0.1783  0.1928
    3MOL   H208  812   0.144   5.964   5.408  1.2834 -0.7643  0.9159
    3MOL   H209  813   0.429   6.049   5.319 -0.5572  1.2865  1.9304
    3MOL   H210  814   0.364   5.890   5.288 -2.2816  1.4317 -0.5478
    3MOL   H211  815   0.393   5.941   5.456 -0.1325  1.0095  0.9537
    3MOL   C212  816   0.104   5.999   4.951  0.4490 -0.0392  0.7422
    3MOL   C213  817   0.191   6.110   4.902 -0.5509  0.1332  0.2171
    3MOL   C214  818   0.131   6.229   4.831 -0.6445 -0.1420  0.2799
    3MOL   O215  819   0.147   6.343   4.863  0.4067 -0.2939  0.1677
    3MOL   O216  820   0.055   6.192   4.733 -0.1439 -0.1017  0.3088
    3MOL   C217  821   7.881   6.286   4.661 -0.0035  0.4311 -0.5942
    3MOL   C218  822   7.745   6.221   4.619 -0.7057  0.2158  0.1361
    3MOL   H219  823   0.172   5.921   4.986  1.5736 -0.3004 -1.8779
    3MOL   H220  824   0.061   5.952   4.862 -1.8035  1.1014  1.1916
    3MOL   H221  825   0.227   6.155   4.995  0.4587  2.3670 -1.2083
    3MOL   H222  826   7.864   6.374   4.723 -3.0793  0.4600 -1.3942
    3MOL   H223  827   0.028   6.313   4.571  0.7105  3.6469  0.7507
    3MOL   H224  828   7.757   6.123   4.574 -0.6424  0.2432  0.0948
    3MOL   H225  829   7.680   6.285   4.560 -1.4007  0.2132  0.8838
    3MOL   H226  830   7.686   6.212   4.711 -2.4187  2.7290 -0.6532
    3MOL   C227  831   0.317   6.061   4.817  0.2799  0.3218 -0.1799
    3MOL   C228  832   0.438   6.001   4.895  0.1484  0.1500  0.1153
    3MOL   C229  833   0.428   5.852   4.937  0.4316  0.4385  0.0374
    3MOL   O230  834   0.442   5.814   5.052 -0.4720 -0.0771  0.3191
    3MOL   O231  835   0.396   5.768   4.836 -0.4074  0.0269 -0.5152
    3MOL   C232  836   0.411   5.629   4.850  0.5633  0.3355 -0.1178
    3MOL   C233  837   0.280   5.562   4.869 -0.4139 -0.0565 -0.2468
    3MOL   H234  838   0.278   6.006   4.731  0.6657  0.7222 -0.6072
    3MOL   H235  839   0.362   6.141   4.759  2.4728 -0.7787 -0.0422
    3MOL   H236  840   0.524   5.999   4.828 -1.8680 -0.8299 -2.4974
    3MOL   H237  841   0.456   5.591   4.759  0.0767 -0.0199 -0.2097
    3MOL   H238  842   0.481   5.598   4.928 -0.6015  0.5000  1.0066
    3MOL   H239  843   0.213   5.564   4.782  1.1940 -1.7701 -1.5726
    3MOL   H240  844   0.219   5.610   4.946 -0.9533 -0.9326 -0.1228
    3MOL   H241  845   0.288   5.457   4.896  3.1678  0.3406  0.4554
    3MOL   C242  846   0.489   6.094   5.009  0.1222  0.2906 -0.1643
    3MOL   C243  847   0.526   6.238   4.962  0.9220  0.1152  0.2497
    3MOL   C244  848   0.651   6.240   4.880 -0.0260 -0.3703  0.7029
    3MOL   O245  849   0.661   6.302   4.774 -0.1168 -0.0298  0.6663
    3MOL   O246  850   0.757   6.166   4.925  0.5233 -0.1400  0.0069
    3MOL   C247  851   0.887   6.180   4.875  0.2855 -0.2086 -0.5230
    3MOL   C248  852   0.982   6.099   4.968  0.0505  0.0541 -0.2186
    3MOL   H249  853   0.408   6.094   5.083  0.8977  1.2858  0.7040
    3MOL   H250  854   0.573   6.042   5.055 -0.4611 -0.4919  0.0258
    3MOL   H251  855   0.453   6.297   4.907 -0.6098 -1.2445  0.8000
    3MOL   H252  856   0.897   6.153   4.770  0.6638  1.9058 -1.0455
    3MOL   H253  857   0.905   6.287   4.879  2.2214 -0.5528  1.4272
    3MOL   H254  858   1.085   6.097   4.933  0.0730  2.6942 -0.4477
    3MOL   H255  859   0.936   6.000   4.968  1.5479 -0.6546 -1.2702
    3MOL   H256  860   0.980   6.143   5.068  0.7380 -1.0220  0.2738
    3MOL   C257  861   0.564   6.325   5.086 -0.4164  0.1887 -0.1721
    3MOL   C258  862   0.585   6.481   5.053  1.0604 -0.4749 -0.2848
    3MOL   C259  863   0.724   6.531   5.082 -0.0834  0.5520 -0.2477
    3MOL   O260  864   0.820   6.455   5.113 -0.5732 -0.1365  1.0718
    3MOL   O261  865   0.741   6.662   5.075  0.5889  0.6248 -0.1628
    3MOL   C262  866   0.859   6.732   5.046 -0.0529  0.6047 -0.2064
    3MOL   C263  867   0.840   6.880   5.082  0.2313 -0.1253  0.5118
    3MOL   H264  868   0.481   6.321   5.157  0.1115 -1.2579  0.3736
    3MOL   H265  869   0.636   6.273   5.149 -0.7015  0.9863  0.8304
    3MOL   H266  870   0.579   6.497   4.945 -2.0312 -0.3252 -0.1164
    3MOL   H267  871   0.939   6.691   5.108 -0.9616  0.7355  1.0831
    3MOL   H268  872   0.890   6.717   4.943 -0.6895 -0.3398 -0.2696
    3MOL   H269  873   0.739   6.916   5.059  0.3600 -0.6947 -0.9951
    3MOL   H270  874   0.923   6.937   5.040 -1.1872  1.2370 -0.5317
    3MOL   H271  875   0.847   6.893   5.190  0.9706 -2.8786  0.8130
    3MOL   C272  876   0.460   6.572   5.100 -0.0370  0.2964 -0.2005
    3MOL   C273  877   0.464   6.588   5.260 -0.4082 -0.2828  0.1494
    3MOL   C274  878   0.362   6.506   5.337 -0.0738 -0.3165  0.0482
    3MOL   O275  879   0.408   6.415   5.409  0.2231  0.6061  0.0326
    3MOL   O276  880   0.237   6.538   5.323 -0.1685  0.3723 -0.5963
    3MOL   C277  881   0.137   6.475   5.403 -0.2601 -0.0405 -0.3387
    3MOL   C278  882   0.008   6.462   5.311 -0.1505 -0.6609 -0.5387
    3MOL   H279  883   0.484   6.658   5.037  1.3072  0.1148  0.0362
    3MOL   H280  884   0.369   6.525   5.063  0.9040 -1.2149 -0.6774
    3MOL   H281  885   0.564   6.553   5.286  0.5289  0.7278 -1.9473
    3MOL   H282  886   0.161   6.379   5.449 -2.1778 -0.5626 -0.3612
    3MOL   H283  887   0.114   6.544   5.485 -0.3452  1.9781 -2.0174
    3MOL   H284  888   7.877   6.561   5.287  0.9269 -0.1627 -0.2637
    3MOL   H285  889   7.840   6.403   5.364  0.0769  2.2116  3.2166
    3MOL   H286  890   0.027   6.418   5.214  0.0244  1.2578 -1.4020
    3MOL   C287  891   0.469   6.736   5.297  0.5096 -0.1419  0.3315
    3MOL   C288  892   0.448   6.773   5.448 -0.1607 -0.6739 -0.5572
    3MOL   C289  893   0.576   6.770   5.529  0.4453  0.4185 -0.6515
    3MOL   O290  894   0.578   6.729   5.646 -0.2750 -0.5158  0.0669
    3MOL   O291  895   0.679   6.822   5.465 -0.3177 -0.2681  0.1340
    3MOL   C292  896   0.815   6.817   5.507  0.2768 -0.0719 -0.5720
    3MOL   C293  897   0.853   6.667   5.485 -0.5151  0.0723 -0.2871
    3MOL   H294  898   0.564   6.775   5.260 -0.3775  1.0018 -0.7607
    3MOL   H295  899   0.395   6.789   5.237  0.9466 -0.7317 -0.7230
    3MOL   H296  900   0.420   6.878   5.447  0.6957 -0.4302  0.1402
    3MOL   H297  901   0.883   6.882   5.453  1.7218 -1.5335 -0.5672
    3MOL   H298  902   0.810   6.844   5.612 -0.6125 -0.3040 -0.5498
    3MOL   H299  903   0.957   6.650   5.512 -0.6595 -1.0642 -0.4187
    3MOL   H300  904   0.856   6.631   5.382  1.4948 -1.0783  0.1561
    3MOL   H301  905   0.794   6.601   5.549  0.6964  0.3157  1.0875
    3MOL   H302  906   0.366   6.721   5.498 -0.5889  0.7706  0.2437
    4MOL     C1  907   4.641   2.760   6.197 -0.4367  0.1625  0.0636
    4MOL     C2  908   4.610   2.905   6.143  0.4997 -0.6035  0.4875
    4MOL     C3  909   4.646   2.924   5.994  0.5318 -0.0532  0.3026
    4MOL     O4  910   4.720   2.848   5.931  0.1033  0.2513 -0.1315
    4MOL     O5  911   4.591   3.039   5.944  0.4783 -0.0083  0.2454
    4MOL     C6  912   4.620   3.066   5.805  0.9715 -0.1400 -0.0505
    4MOL     C7  913   4.547   2.966   5.712  0.1044 -0.1831  0.3600
    4MOL     H8  914   4.727   2.709   6.155 -0.9280 -2.3104  1.9672
    4MOL     H9  915   4.556   2.693   6.184  1.9066 -3.3204  2.0175
    4MOL    H10  916   4.503   2.924   6.155  0.7156  0.7109  0.3977
    4MOL    H11  917   4.578   3.164   5.786 -2.3389 -0.9770  2.6277
    4MOL    H12  918   4.727   3.068   5.783  0.7127  1.0690 -1.2577
    4MOL    H13  919   4.441   2.957   5.735  0.2664  0.2823  1.3196
    4MOL    H14  920   4.571   2.860   5.728  0.1650 -0.2119  0.0754
    4MOL    H15  921   4.550   2.991   5.606  0.6439  0.1407  0.4501
    4MOL    H16  922   4.657   2.765   6.305  1.1403 -1.0919 -0.0957
    4MOL    C17  923   4.676   3.016   6.227  0.0506 -0.0595 -1.1726
    4MOL    C18  924   4.832   3.019   6.231 -0.1822  0.2453  0.2920
    4MOL    C19  925   4.889   2.933   6.344 -0.1851 -0.2480  0.7020
    4MOL    O20  926   4.935   2.826   6.321 -0.7755 -0.6968 -0.6293
    4MOL    O21  927   4.877   2.987   6.463  0.2674 -0.4568 -0.4374
    4MOL    C22  928   4.930   2.927   6.584 -0.2355  0.3572  0.3559
    4MOL    C23  929   4.834   2.816   6.630 -0.1250  0.2530  0.5017
    4MOL    H24  930   4.647   3.117   6.196  0.5478  1.3078  2.6214
    4MOL    H25  931   4.627   3.008   6.324  0.6890 -2.1942 -1.0000
    4MOL    H26  932   4.863   2.967   6.141 -0.0790  0.5590  0.1447
    4MOL    H27  933   5.029   2.886   6.565 -0.6264 -0.5953  0.3380
    4MOL    H28  934   4.943   3.003   6.662  2.4920 -0.9101  1.1872
    4MOL    H29  935   4.830   2.745   6.547 -0.2641  0.7978  0.0397
    4MOL    H30  936   4.732   2.848   6.649 -0.3921  1.5046 -2.7289
    4MOL    H31  937   4.872   2.761   6.716  1.5052  0.6361  0.0523
    4MOL    C32  938   4.895   3.169   6.225  0.3258  0.0536  0.1549
    4MOL    C33  939   4.886   3.254   6.096  0.0491 -0.2972  0.3962
    4MOL    C34  940   4.991   3.207   5.995 -0.3437  0.6383  0.0748
    4MOL    O35  941   5.072   3.285   5.946  0.9352  0.4195 -0.5523
    4MOL    O36  942   4.987   3.070   5.968  0.2384  0.4391  0.6800
    4MOL    C37  943   5.065   3.009   5.862  0.1609  0.1175 -0.3849
    4MOL    C38  944   5.215   3.003   5.918 -0.1151 -0.3711 -0.1619
    4MOL    H39  945   4.844   3.226   6.303 -0.0186  1.3552 -1.0095
    4MOL    H40  946   4.998   3.177   6.261  0.3824 -0.5679  0.1234
    4MOL    H41  947   4.795   3.223   6.044 -0.1694  0.0162  0.5854
    4MOL    H42  948   5.020   2.913   5.838  0.0145 -0.1762  1.0356
    4MOL    H43  949   5.058   3.069   5.771 -2.0473  0.2842 -0.1282
    4MOL    H44  950   5.274   2.930   5.863 -1.4429 -2.7753  1.5098
    4MOL    H45  951   5.208   2.970   6.022 -2.8014  1.2896  0.2400
    4MOL    H46  952   5.263   3.100   5.904  0.1554 -0.6452 -1.1795
    4MOL    C47  953   4.895   3.410   6.120 -0.0836  0.0582 -0.2088
    4MOL    C48  954   4.772   3.483   6.187  0.0847  0.1332  0.3303
    4MOL    C49  955   4.649   3.478   6.097  0.1739  0.2946 -0.4262
    4MOL    O50  956   4.550   3.409   6.126  0.7574 -0.3440  0.3480
    4MOL    O51  957   4.665   3.559   5.992  0.0163  0.1570 -0.3665
    4MOL    C52  958   4.552   3.571   5.909 -0.1944 -0.1768  0.4669
    4MOL    C53  959   4.554   3.458   5.804 -0.2205 -0.4675 -0.1461
    4MOL    H54  960   4.992   3.433   6.165  0.1334  0.7853 -1.0356
    4MOL    H55  961   4.898   3.456   6.021  0.2961 -1.7145 -1.0251
    4MOL    H56  962   4.736   3.425   6.272 -2.1016  0.0251 -0.6242
    4MOL    H57  963   4.463   3.566   5.972 -0.3499 -0.5257  0.2220
    4MOL    H58  964   4.543   3.665   5.856  1.2200  0.0794  0.6718
    4MOL    H59  965   4.523   3.361   5.843 -0.5021 -0.2655  0.1371
    4MOL    H60  966   4.653   3.447   5.760  0.0405 -0.0635  0.3387
    4MOL    H61  967   4.492   3.498   5.724  0.9682  1.4981 -0.1176
    4MOL    C62  968   4.790   3.636   6.238  0.0377  0.3852 -0.2136
    4MOL    C63  969   4.666   3.696   6.304  0.6238  0.5579  0.2919
    4MOL    C64  970   4.710   3.823   6.355 -0.8183 -0.8147  0.3018
    4MOL    O65  971   4.807   3.825   6.430  0.3250  0.2118 -0.4121
    4MOL    O66  972   4.639   3.933   6.315 -0.4318  0.3875 -0.3766
    4MOL    C67  973   4.687   4.063   6.335 -0.0414  0.2487 -0.1970
    4MOL    C68  974   4.627   4.152   6.227 -0.1385 -0.7272 -0.5765
    4MOL    H69  975   4.875   3.628   6.305  0.0950 -1.7574 -0.4832
    4MOL    H70  976   4.830   3.697   6.157 -0.8580  1.5783  0.2376
    4MOL    H71  977   4.596   3.714   6.223 -0.4804 -0.7541  0.9451
    4MOL    H72  978   4.670   4.099   6.436 -5.0140 -2.3084  0.0391
    4MOL    H73  979   4.793   4.061   6.310  0.1331 -0.6988  0.5899
    4MOL    H74  980   4.672   4.252   6.232 -0.8084 -0.4446 -0.1395
    4MOL    H75  981   4.519   4.145   6.234 -0.0544 -1.2426  0.2480
    4MOL    H76  982   4.656   4.124   6.126  1.8727 -0.8213 -0.0048
    4MOL    C77  983   4.595   3.615   6.415 -0.0912 -0.5826  0.2916
    4MOL    C78  984   4.458   3.675   6.461 -0.6491  0.1828  0.5462
    4MOL    C79  985   4.406   3.609   6.592 -0.0874  0.4592 -0.2766
    4MOL    O80  986   4.445   3.652   6.703  0.4430 -0.1034 -0.2178
    4MOL    O81  987   4.335   3.497   6.566  0.2465 -0.5245 -0.3437
    4MOL    C82  988   4.304   3.408   6.673 -1.0898  0.1506  0.6794
    4MOL    C83  989   4.174   3.334   6.633  0.4147 -0.2251 -0.0466
    4MOL    H84  990   4.576   3.512   6.387  1.0848 -0.9066  0.6457
    4MOL    H85  991   4.666   3.617   6.498  1.2060  0.6928 -0.8110
    4MOL    H86  992   4.471   3.772   6.509 -1.8360 -0.1557  1.5994
    4MOL    H87  993   4.381   3.332   6.684 -0.5050  0.6677  0.1807
    4MOL    H88  994   4.292   3.457   6.770  1.3553 -1.7830  2.0327
    4MOL    H89  995   4.163   3.248   6.700 -1.5316  1.4113  1.7918
    4MOL    H90  996   4.176   3.300   6.530 -1.3794  0.4838 -0.3235
    4MOL    H91  997   4.095   3.408   6.639  1.7041  1.1547  0.1863
    4MOL    C92  998   4.345   3.702   6.357 -0.4789  0.0429 -0.0135
    4MOL    C93  999   4.313   3.852   6.322 -0.1447  0.4388 -0.0710
    4MOL    C94 1000   4.274   3.935   6.447  0.5234 -0.6608  0.5467
    4MOL    O95 1001   4.244   3.888   6.557  0.2399 -0.0516  0.8312
    4MOL    O96 1002   4.271   4.060   6.414  0.7244  0.4135 -0.1541
    4MOL    C97 1003   4.250   4.152   6.525  0.1552  0.2608 -0.2904
    4MOL    C98 1004   4.282   4.290   6.479  0.6470 -0.2936 -0.3503
    4MOL    H99 1005   4.358   3.637   6.270 -2.9678  1.1702 -1.2894
    4MOL   H100 1006   4.254   3.664   6.405 -0.2671 -1.4796 -0.7808
    4MOL   H101 1007   4.409   3.883   6.281  0.0418 -2.3561 -1.8812
    4MOL   H102 1008   4.142   4.152   6.533  0.0558  0.3930 -1.5773
    4MOL   H103 1009   4.310   4.127   6.613  2.0748 -0.1932 -1.7017
    4MOL   H104 1010   4.384   4.320   6.504  0.1702  0.1693  1.1053
    4MOL   H105 1011   4.220   4.347   6.549  0.0183 -0.3451 -0.8688
    4MOL   H106 1012   4.263   4.302   6.373  1.4078 -2.7470 -0.7984
    4MOL   C107 1013   4.206   3.861   6.207 -0.3766 -0.0208  0.2938
    4MOL   C108 1014   4.255   3.815   6.066  0.0949 -0.3275  0.4529
    4MOL   C109 1015   4.367   3.911   6.017 -0.1226  0.2187 -0.0104
    4MOL   O110 1016   4.488   3.878   6.039 -0.4205 -0.4136 -0.1736
    4MOL   O111 1017   4.328   4.028   5.948  0.8183 -0.5822 -0.6704
    4MOL   C112 1018   4.432   4.113   5.914  0.2370  0.1607  0.0575
    4MOL   C113 1019   4.375   4.234   5.847  0.4205  0.1236  0.5596
    4MOL   H114 1020   4.132   3.787   6.236  0.3269 -0.8820 -0.1027
    4MOL   H115 1021   4.148   3.953   6.196 -1.3090 -0.4871  1.1899
    4MOL   H116 1022   4.297   3.715   6.071 -1.1172 -0.9243 -0.8639
    4MOL   H117 1023   4.486   4.151   6.001  0.1390  0.5410 -0.0445
    4MOL   H118 1024   4.489   4.053   5.844 -0.5194 -1.2727  0.6527
    4MOL   H119 1025   4.308   4.196   5.770 -0.9411 -0.4889  2.0284
    4MOL   H120 1026   4.449   4.299   5.801  1.0569 -0.6232  0.5073
    4MOL   H121 1027   4.320   4.299   5.915 -1.0127  1.5580 -1.8942
    4MOL   C122 1028   4.142   3.790   5.965 -0.9290  0.0885  0.2268
    4MOL   C123 1029   4.171   3.685   5.849 -0.0254  0.3781 -0.5781
    4MOL   C124 1030   4.234   3.751   5.728 -0.0233  0.9261  0.1469
    4MOL   O125 1031   4.355   3.745   5.699  0.0296  0.1669 -0.3459
    4MOL   O126 1032   4.151   3.834   5.671 -0.2076 -0.5659 -0.3876
    4MOL   C127 1033   4.185   3.911   5.556 -0.1681  0.0603 -0.4344
    4MOL   C128 1034   4.085   4.020   5.538 -0.1519 -0.0200 -0.1381
    4MOL   H129 1035   4.045   3.781   6.013 -0.3276  2.6555  2.0332
    4MOL   H130 1036   4.126   3.890   5.925  1.1818  0.6033  0.6489
    4MOL   H131 1037   4.242   3.608   5.878 -1.9811 -0.5696  1.8583
    4MOL   H132 1038   4.282   3.961   5.558 -1.4172  2.6473 -1.5898
    4MOL   H133 1039   4.182   3.838   5.476  0.7541 -1.0159  0.4932
    4MOL   H134 1040   4.085   4.073   5.634 -2.2590  0.6180 -0.4495
    4MOL   H135 1041   3.983   3.982   5.524  0.1027 -0.0006 -2.1462
    4MOL   H136 1042   4.108   4.088   5.456 -0.7151  0.5958  0.1997
    4MOL   C137 1043   4.039   3.618   5.817  0.3562 -0.1299  0.1151
    4MOL   C138 1044   4.027   3.521   5.694 -0.5550  0.3732 -0.0871
    4MOL   C139 1045   3.887   3.526   5.624 -0.2026  0.2605 -0.3067
    4MOL   O140 1046   3.871   3.533   5.501  0.6886  0.0221 -0.2002
    4MOL   O141 1047   3.790   3.501   5.715 -0.7748  0.3982  0.1421
    4MOL   C142 1048   3.652   3.488   5.676 -0.4298 -0.1930 -0.2613
    4MOL   C143 1049   3.568   3.535   5.802 -0.0519 -0.2470  0.1530
    4MOL   H144 1050   4.014   3.561   5.907 -0.1062 -0.6906 -0.3634
    4MOL   H145 1051   3.966   3.697   5.800 -0.5181 -1.1766 -1.1308
    4MOL   H146 1052   4.103   3.565   5.629 -0.4800  1.7705  0.9359
    4MOL   H147 1053   3.635   3.555   5.592 -1.8472  0.4143  0.4895
    4MOL   H148 1054   3.608   3.389   5.663 -0.0603 -0.4945  0.6743
    4MOL   H149 1055   3.464   3.531   5.768  0.1640  0.8593 -0.6863
    4MOL   H150 1056   3.608   3.629   5.840 -0.8084 -0.3895  1.3301
    4MOL   H151 1057   3.578   3.461   5.881 -0.8093  1.4591  1.8757
    4MOL   C152 1058   4.068   3.373   5.732  1.1617  0.7267  0.2195
    4MOL   C153 1059   4.081   3.274   5.616  0.0974 -0.9036  0.9236
    4MOL   C154 1060   4.080   3.126   5.657  0.0580 -0.4528  0.5430
    4MOL   O155 1061   4.155   3.080   5.742  0.2242  0.0599 -0.2034
    4MOL   O156 1062   3.982   3.058   5.603  0.0971 -0.1371 -0.3809
    4MOL   C157 1063   3.949   2.927   5.630  0.7879  0.1576 -0.1879
    4MOL   C158 1064   3.991   2.835   5.517  0.4185 -0.5205 -1.2472
    4MOL   H159 1065   4.154   3.365   5.799 -1.4189  0.5642  3.6847
    4MOL   H160 1066   3.996   3.339   5.807 -0.0960  2.0450 -0.3795
    4MOL   H161 1067   4.002   3.298   5.545  0.4430  0.4978  0.9957
    4MOL   H162 1068   4.006   2.895   5.717  0.3322 -0.8070 -0.2336
    4MOL   H163 1069   3.846   2.921   5.666  0.0750  2.1463 -1.7491
    4MOL   H164 1070   3.962   2.734   5.544  1.0093 -0.0733  1.2562
    4MOL   H165 1071   4.097   2.831   5.494 -0.0868  0.3372 -3.8515
    4MOL   H166 1072   3.930   2.853   5.429  1.0765  0.8825 -1.4404
    4MOL   C167 1073   4.212   3.300   5.536 -0.4135  1.3508  0.3355
    4MOL   C168 1074   4.174   3.360   5.398  0.1636 -0.4136 -0.4723
    4MOL   C169 1075   4.095   3.256   5.315  0.6578 -0.0146  0.0954
    4MOL   O170 1076   3.982   3.287   5.282  0.8125 -0.4765  0.2086
    4MOL   O171 1077   4.162   3.150   5.280 -0.2354  0.0068  0.8559
    4MOL   C172 1078   4.111   3.059   5.191 -0.2815  0.2158  0.7304
    4MOL   C173 1079   4.218   2.952   5.152 -0.8863 -0.7893  0.7294
    4MOL   H174 1080   4.274   3.373   5.588  1.3989  1.4274 -1.8604
    4MOL   H175 1081   4.281   3.215   5.533 -1.4402  0.5367 -0.7929
    4MOL   H176 1082   4.108   3.445   5.418  0.6920 -0.1067  0.0093
    4MOL   H177 1083   4.015   3.018   5.225  0.3836 -2.1465 -0.1404
    4MOL   H178 1084   4.066   3.113   5.108  1.2801 -1.5782 -1.3500
    4MOL   H179 1085   4.245   2.916   5.252  0.8625  2.4525  1.5053
    4MOL   H180 1086   4.307   3.004   5.116 -1.5155  0.6686  1.2734
    4MOL   H181 1087   4.193   2.872   5.082 -3.3092  0.3176  0.2833
    4MOL   C182 1088   4.305   3.411   5.333 -0.2066  0.3018 -0.3133
    4MOL   C183 1089   4.281   3.474   5.199  0.1171 -0.3157 -0.0697
    4MOL   C184 1090   4.286   3.372   5.085  1.0546  0.0195  0.2057
    4MOL   O185 1091   4.352   3.270   5.086  0.0567  0.0765  1.0848
    4MOL   O186 1092   4.221   3.412   4.979  0.1099  0.6878  0.1633
    4MOL   C187 1093   4.222   3.339   4.861  0.3885  0.3843 -0.1275
    4MOL   C188 1094   4.156   3.412   4.746  0.1113  0.4322  0.7553
    4MOL   H189 1095   4.353   3.475   5.408 -0.0171  0.3422 -0.4682
    4MOL   H190 1096   4.374   3.327   5.320 -1.5133 -0.6823 -1.0314
    4MOL   H191 1097   4.182   3.520   5.200 -0.6411 -1.8597 -1.8425
    4MOL   H192 1098   4.324   3.311   4.836  0.6048 -0.2789  1.4127
    4MOL   H193 1099   4.172   3.246   4.891  0.6399 -0.1594 -1.3871
    4MOL   H194 1100   4.117   3.353   4.662  0.6251 -1.0979  1.5644
    4MOL   H195 1101   4.233   3.473   4.699 -0.2895 -0.9524 -1.7921
    4MOL   H196 1102   4.077   3.473   4.790 -0.6105 -0.2324  0.3991
    4MOL   C197 1103   4.392   3.578   5.180 -0.1269 -0.2917  0.6423
    4MOL   C198 1104   4.359   3.719   5.255 -0.3264 -0.5269  0.1037
    4MOL   C199 1105   4.231   3.784   5.196  0.6989  0.0753  0.0613
    4MOL   O200 1106   4.127   3.801   5.259 -0.2562 -0.0251  0.2738
    4MOL   O201 1107   4.238   3.820   5.068 -0.0311 -0.2136 -0.3068
    4MOL   C202 1108   4.144   3.912   5.014 -0.9811 -0.2596 -0.2931
    4MOL   C203 1109   4.209   4.057   5.020 -0.6068  0.1514  0.0255
    4MOL   H204 1110   4.487   3.537   5.214  0.8754  0.1117 -1.6504
    4MOL   H205 1111   4.400   3.590   5.072 -0.4297  0.7033  0.7233
    4MOL   H206 1112   4.343   3.703   5.361  0.1975  0.8215  0.4014
    4MOL   H207 1113   4.126   3.891   4.909 -0.2168 -1.0641 -0.2723
    4MOL   H208 1114   4.045   3.916   5.061 -0.7201  0.4508  0.2081
    4MOL   H209 1115   4.299   4.061   4.959 -0.1922  1.3034  0.7047
    4MOL   H210 1116   4.232   4.072   5.126 -1.4362 -0.7921  0.3604
    4MOL   H211 1117   4.134   4.134   5.004  0.4159  1.5653  1.8059
    4MOL   C212 1118   4.479   3.811   5.245 -0.2465  0.2055  0.2435
    4MOL   C213 1119   4.585   3.779   5.354 -0.0015  0.2405 -0.5751
    4MOL   C214 1120   4.587   3.868   5.474  0.2613  0.1068  0.2040
    4MOL   O215 1121   4.536   3.981   5.464 -0.1737 -0.0441 -0.1197
    4MOL   O216 1122   4.653   3.818   5.590 -0.0888  0.0673  0.2654
    4MOL   C217 1123   4.649   3.891   5.711  0.4517 -0.2091 -0.7038
    4MOL   C218 1124   4.772   3.835   5.786  0.0657 -0.2421  0.5992
    4MOL   H219 1125   4.518   3.800   5.144 -3.6871 -1.2559 -0.9957
    4MOL   H220 1126   4.445   3.914   5.237 -1.3103 -0.1886 -0.4143
    4MOL   H221 1127   4.556   3.685   5.400  1.0131 -1.3393 -3.0312
    4MOL   H222 1128   4.644   3.997   5.687 -3.6290  0.2345  1.6021
    4MOL   H223 1129   4.555   3.887   5.766 -1.3138  0.0228 -3.6063
    4MOL   H224 1130   4.767   3.727   5.797 -0.6142 -0.4712 -1.6620
    4MOL   H225 1131   4.780   3.882   5.884 -1.0959  0.3072  0.4378
    4MOL   H226 1132   4.866   3.843   5.731  0.7915  0.8153  1.9576
    4MOL   C227 1133   4.725   3.725   5.301 -0.3448  0.0560  0.0246
    4MOL   C228 1134   4.800   3.823   5.207 -0.0822  0.1153  0.3774
    4MOL   C229 1135   4.770   3.811   5.057 -0.1965  0.1048  0.7783
    4MOL   O230 1136   4.714   3.714   5.008 -0.0753 -0.5006 -0.1135
    4MOL   O231 1137   4.805   3.928   4.993 -0.0916  0.2647 -0.5278
    4MOL   C232 1138   4.793   3.945   4.856  0.1780  0.2434  0.1149
    4MOL   C233 1139   4.675   4.037   4.826  0.1967  0.8584 -0.2942
    4MOL   H234 1140   4.785   3.693   5.387  0.5497  2.2984  0.2726
    4MOL   H235 1141   4.701   3.632   5.250 -2.1258  1.6333 -2.1098
    4MOL   H236 1142   4.747   3.915   5.232 -1.3758 -1.0961  2.1837
    4MOL   H237 1143   4.886   3.996   4.831  1.4426 -1.0230  2.0751
    4MOL   H238 1144   4.777   3.860   4.790  3.1556  0.3532 -0.8058
    4MOL   H239 1145   4.584   3.978   4.813  0.2207  1.1456 -1.9232
    4MOL   H240 1146   4.700   4.090   4.734 -0.3486  0.3999 -0.7088
    4MOL   H241 1147   4.664   4.123   4.892 -0.4419 -0.1902  0.9798
    4MOL   C242 1148   4.953   3.860   5.246  0.4265 -0.1778 -0.1978
    4MOL   C243 1149   5.048   3.744   5.275 -0.2077 -0.0327 -0.1220
    4MOL   C244 1150   5.171   3.772   5.366  0.5365 -0.5730  0.3345
    4MOL   O245 1151   5.288   3.779   5.328 -0.4757 -0.5773 -0.6860
    4MOL   O246 1152   5.124   3.803   5.489  0.1844 -0.0227 -0.0898
    4MOL   C247 1153   5.212   3.860   5.583 -0.0846  0.2718 -0.2264
    4MOL   C248 1154   5.161   4.000   5.635  0.3851 -0.4076  0.0041
    4MOL   H249 1155   5.008   3.923   5.176  0.2201  0.1248 -0.0866
    4MOL   H250 1156   4.954   3.915   5.340 -2.7014  0.9169 -0.7702
    4MOL   H251 1157   4.990   3.685   5.345  1.5133 -0.2779  1.1262
    4MOL   H252 1158   5.230   3.792   5.666  0.3467 -1.4690 -1.6936
    4MOL   H253 1159   5.313   3.882   5.549  0.1505  0.0200  0.3089
    4MOL   H254 1160   5.130   4.070   5.558  1.1633 -0.5123 -0.4154
    4MOL   H255 1161   5.234   4.056   5.694  0.2512 -0.9793  0.7199
    4MOL   H256 1162   5.070   3.984   5.693 -0.5860 -1.7464 -1.8581
    4MOL   C257 1163   5.078   3.648   5.155  0.2024  0.0967  0.4910
    4MOL   C258 1164   5.007   3.517   5.183 -0.4088 -0.2623  0.2676
    4MOL   C259 1165   5.093   3.432   5.276  0.3196  0.5360 -0.4244
    4MOL   O260 1166   5.049   3.403   5.388  0.7177  0.0605  0.1914
    4MOL   O261 1167   5.200   3.385   5.212 -0.3980 -0.4195 -1.0168
    4MOL   C262 1168   5.296   3.316   5.288 -0.5902 -0.0355 -0.6611
    4MOL   C263 1169   5.396   3.228   5.219  0.3351 -0.3726 -0.0372
    4MOL   H264 1170   5.023   3.694   5.073 -0.2228 -0.7127  0.3086
    4MOL   H265 1171   5.182   3.651   5.125  0.6592 -2.2817  1.6785
    4MOL   H266 1172   4.914   3.537   5.236  0.3179  1.0952  1.0502
    4MOL   H267 1173   5.341   3.399   5.344  1.2588 -1.2836 -0.2638
    4MOL   H268 1174   5.236   3.251   5.352  1.4752 -0.6603  0.6626
    4MOL   H269 1175   5.458   3.168   5.285  1.7641  1.0403 -0.0545
    4MOL   H270 1176   5.455   3.293   5.154 -2.3682  2.5538  0.3042
    4MOL   H271 1177   5.342   3.153   5.161  1.1440 -1.0596  0.0957
    4MOL   C272 1178   4.959   3.441   5.057  0.2492 -0.9903 -0.5272
    4MOL   C273 1179   4.832   3.354   5.062  0.4211 -0.0986 -0.3203
    4MOL   C274 1180   4.860   3.225   5.144  0.3727  0.2171  0.8380
    4MOL   O275 1181   4.946   3.149   5.108 -0.5277 -0.0845  0.5336
    4MOL   O276 1182   4.789   3.217   5.258 -0.2991  0.6109 -0.3170
    4MOL   C277 1183   4.843   3.130   5.356 -1.1016  0.3640 -0.5367
    4MOL   C278 1184   4.781   3.151   5.496 -0.1639  0.2841 -0.1846
    4MOL   H279 1185   4.938   3.513   4.978  1.5780 -0.4788 -0.4305
    4MOL   H280 1186   5.034   3.367   5.031  2.0016  1.1608 -1.7232
    4MOL   H281 1187   4.764   3.420   5.116  0.9114 -0.5469  0.8729
    4MOL   H282 1188   4.844   3.027   5.322 -1.3810 -0.2884  1.3618
    4MOL   H283 1189   4.949   3.155   5.364 -1.0500  1.5019 -4.1219
    4MOL   H284 1190   4.809   3.246   5.542  0.4869 -0.3430  0.7380
    4MOL   H285 1191   4.833   3.078   5.559 -1.0027 -0.4536 -0.3296
    4MOL   H286 1192   4.674   3.134   5.511 -0.0549  0.9198  1.4428
    4MOL   C287 1193   4.775   3.319   4.926 -0.0564  0.9987  0.9221
    4MOL   C288 1194   4.630   3.255   4.937 -0.7358  0.1461  0.1713
    4MOL   C289 1195   4.590   3.171   4.815 -0.2236  0.2753 -0.6761
    4MOL   O290 1196   4.634   3.199   4.701 -0.2107 -0.3255  0.0229
    4MOL   O291 1197   4.497   3.072   4.845  0.8705 -0.2499  0.0701
    4MOL   C292 1198   4.455   2.978   4.748 -0.5408 -0.1841  0.3231
    4MOL   C293 1199   4.488   2.840   4.803  0.4721  0.3955 -0.0647
    4MOL   H294 1200   4.753   3.410   4.870  0.5435  0.8376  0.4211
    4MOL   H295 1201   4.848   3.266   4.865  0.4841  0.4939  1.9881
    4MOL   H296 1202   4.621   3.183   5.019 -0.4865 -0.7691 -0.6045
    4MOL   H297 1203   4.351   2.995   4.720 -0.6385 -3.7428 -1.7651
    4MOL   H298 1204   4.507   2.992   4.653  0.6689 -2.1459  0.6713
    4MOL   H299 1205   4.597   2.832   4.796  0.2337 -2.6400 -1.2709
    4MOL   H300 1206   4.432   2.784   4.728  0.7360  1.7887 -1.3265
    4MOL   H301 1207   4.450   2.820   4.903  1.6977  0.8738  0.5052
    4MOL   H302 1208   4.558   3.338   4.941 -1.9758 -0.9362  0.6409
    5MOL     C1 1209   0.596   2.481   0.370 -0.2453  0.1161 -0.0124
    5MOL     C2 1210   0.442   2.469   0.394  0.0716 -1.1378 -0.2072
    5MOL     C3 1211   0.408   2.374   0.509 -0.6008  0.9975 -0.0195
    5MOL     O4 1212   0.395   2.253   0.490 -0.6144  0.0045  0.2136
    5MOL     O5 1213   0.378   2.436   0.626 -0.8880 -0.0886  0.3507
    5MOL     C6 1214   0.338   2.365   0.744 -0.2734  0.5073  0.1859
    5MOL     C7 1215   0.283   2.473   0.836 -0.3014 -0.1222 -0.5127
    5MOL     H8 1216   0.625   2.575   0.325  0.3877  0.4401  1.0575
    5MOL     H9 1217   0.620   2.407   0.293  0.0890 -1.0478  1.1823
    5MOL    H10 1218   0.414   2.564   0.438 -0.0840 -1.4531  0.3753
    5MOL    H11 1219   0.260   2.292   0.721 -1.2275  1.3672  0.6421
    5MOL    H12 1220   0.428   2.318   0.782 -0.4336  0.7010  0.8133
    5MOL    H13 1221   0.271   2.434   0.937  0.9589 -1.1374 -0.7358
    5MOL    H14 1222   0.205   2.535   0.791  1.3000  0.8694 -1.9851
    5MOL    H15 1223   0.363   2.546   0.843  1.1411 -1.7044 -0.2776
    5MOL    H16 1224   0.650   2.442   0.456  1.7289  1.5841 -0.5646
    5MOL    C17 1225   0.351   2.439   0.266  0.0306 -0.6316  0.3862
    5MOL    C18 1226   0.198   2.473   0.259 -0.2555 -0.9511 -0.1964
    5MOL    C19 1227   0.170   2.625   0.267  0.0007 -0.2960  0.7298
    5MOL    O20 1228   0.261   2.705   0.237 -0.1291 -0.1670  0.2989
    5MOL    O21 1229   0.046   2.661   0.305 -0.2167 -0.1250  0.3922
    5MOL    C22 1230   0.018   2.800   0.294  0.6468 -0.4515 -0.3505
    5MOL    C23 1231   7.802   2.830   0.383 -0.6345 -0.2601  0.5685
    5MOL    H24 1232   0.397   2.498   0.187 -0.8530 -0.8466 -0.2920
    5MOL    H25 1233   0.359   2.333   0.241  0.9417 -0.2293 -1.1012
    5MOL    H26 1234   0.165   2.456   0.156 -0.7128 -0.7239 -0.0894
    5MOL    H27 1235   0.101   2.860   0.330 -0.1167  0.7038 -0.4735
    5MOL    H28 1236   0.001   2.827   0.190  1.5969  0.3183 -0.3052
    5MOL    H29 1237   7.767   2.929   0.355  2.6985 -0.2061 -3.9174
    5MOL    H30 1238   7.832   2.828   0.488  0.1624  0.3299  0.3612
    5MOL    H31 1239   7.721   2.760   0.360 -0.8570  0.3441 -0.5330
    5MOL    C32 1240   0.109   2.372   0.338  0.3165 -0.4385  0.2401
    5MOL    C33 1241   0.082   2.231   0.286 -0.3261 -0.6469  0.5166
    5MOL    C34 1242   0.006   2.242   0.153 -0.6198 -0.3673 -0.5653
    5MOL    O35 1243   0.058   2.213   0.048  0.2899 -0.2151  0.0588
    5MOL    O36 1244   7.792   2.291   0.170  0.2822  0.2518 -0.4050
    5MOL    C37 1245   7.717   2.334   0.052 -0.2797 -0.0506 -0.2788
    5MOL    C38 1246   7.728   2.483   0.038 -0.7134  0.3805  0.1738
    5MOL    H39 1247   0.121   2.374   0.446  0.4646 -0.8584  0.2296
    5MOL    H40 1248   0.007   2.411   0.340 -0.7203 -3.0150 -0.1240
    5MOL    H41 1249   0.172   2.174   0.263 -0.6336 -0.6414 -0.7360
    5MOL    H42 1250   7.755   2.296   7.866 -0.9220 -0.4786 -0.3680
    5MOL    H43 1251   7.613   2.307   0.068 -0.3340  0.9283  1.1149
    5MOL    H44 1252   7.703   2.540   0.128  0.1057  0.4093  0.3878
    5MOL    H45 1253   7.660   2.505   7.864  2.0701 -0.9068 -2.5535
    5MOL    H46 1254   7.828   2.513   0.007 -1.3521  0.5638 -1.7649
    5MOL    C47 1255   7.906   2.136   0.381  0.4482 -0.5932 -0.1056
    5MOL    C48 1256   0.076   2.070   0.492 -0.9866 -0.6551  0.1456
    5MOL    C49 1257   0.151   1.952   0.432 -0.1556 -0.4604  0.7696
    5MOL    O50 1258   0.100   1.841   0.414 -0.2326 -0.4003  0.1798
    5MOL    O51 1259   0.280   1.981   0.401 -0.1838 -0.7815  0.2005
    5MOL    C52 1260   0.369   1.891   0.337  0.6280 -0.2554 -0.4378
    5MOL    C53 1261   0.487   1.973   0.270  0.6549 -0.5490  0.5430
    5MOL    H54 1262   7.826   2.198   0.421  0.5409  0.7779 -1.9945
    5MOL    H55 1263   7.853   2.061   0.323  0.1162 -0.1441 -0.3861
    5MOL    H56 1264   0.148   2.147   0.521 -1.6291  0.9369 -2.3157
    5MOL    H57 1265   0.408   1.823   0.413  0.2633 -0.6540 -0.5999
    5MOL    H58 1266   0.323   1.832   0.258 -0.2556 -0.4778  0.2223
    5MOL    H59 1267   0.557   1.893   0.248 -0.5804 -1.7659  0.9752
    5MOL    H60 1268   0.526   2.037   0.350 -0.2445 -0.1488  0.6674
    5MOL    H61 1269   0.450   2.024   0.181  1.9334 -0.1469  0.2409
    5MOL    C62 1270   7.896   2.035   0.615  0.7565 -0.0753 -0.1853
    5MOL    C63 1271   0.046   2.035   0.762 -0.5997 -0.0984 -0.0968
    5MOL    C64 1272   0.171   1.948   0.760 -0.5241  0.1307  0.2341
    5MOL    O65 1273   0.281   1.994   0.782 -0.0392 -0.1080  0.0347
    5MOL    O66 1274   0.150   1.811   0.745  0.2417 -0.0498  1.0274
    5MOL    C67 1275   0.257   1.732   0.706 -0.2243  0.4067 -0.3768
    5MOL    C68 1276   0.213   1.607   0.634 -0.0554 -0.0595  1.0025
    5MOL    H69 1277   7.806   2.097   0.619  0.1544 -0.9627  0.1972
    5MOL    H70 1278   7.866   1.930   0.612 -3.9833  1.1735 -0.7389
    5MOL    H71 1279   0.094   2.131   0.783 -1.5283  0.0058  1.6544
    5MOL    H72 1280   0.335   1.782   0.649 -0.1882 -0.8453 -1.4508
    5MOL    H73 1281   0.299   1.701   0.801 -1.9066  1.9854  0.9156
    5MOL    H74 1282   0.157   1.536   0.695  1.1574 -2.5328 -0.7172
    5MOL    H75 1283   0.303   1.551   0.611 -0.9687 -2.0786  2.2266
    5MOL    H76 1284   0.162   1.635   0.542 -0.7019 -0.7006  1.1595
    5MOL    C77 1285   7.861   1.989   0.883  0.0129 -0.8592  0.8348
    5MOL    C78 1286   7.728   2.069   0.888  0.2697 -0.8870 -0.1055
    5MOL    C79 1287   7.757   2.218   0.901 -0.6230 -0.8568  0.5337
    5MOL    O80 1288   7.772   2.271   1.011  0.4965  0.4577  0.0931
    5MOL    O81 1289   7.773   2.280   0.785 -0.2905 -0.0487 -0.2633
    5MOL    C82 1290   7.806   2.419   0.797 -0.0040 -0.0262  0.2075
    5MOL    C83 1291   7.839   2.475   0.658  0.5443  0.5683 -0.0840
    5MOL    H84 1292   7.834   1.885   0.860  0.3191 -0.9032  0.6727
    5MOL    H85 1293   0.014   1.996   0.973 -0.7103  2.0417  1.1586
    5MOL    H86 1294   7.673   2.043   0.798 -1.1135  2.0109 -0.1561
    5MOL    H87 1295   7.722   2.477   0.836  1.3771  0.6887  2.2338
    5MOL    H88 1296   7.891   2.435   0.864 -0.1750 -0.2102  0.4698
    5MOL    H89 1297   7.865   2.580   0.674 -1.6302  1.2808 -1.1036
    5MOL    H90 1298   7.753   2.467   0.592  1.3915 -0.0647 -1.1432
    5MOL    H91 1299   0.012   2.434   0.598  0.5536  0.8980 -0.2994
    5MOL    C92 1300   7.645   2.015   1.004  0.0532  0.3513  0.4519
    5MOL    C93 1301   7.564   1.891   0.970 -0.6583  0.0471 -0.6195
    5MOL    C94 1302   7.437   1.903   0.877 -0.0843 -0.0672  0.0300
    5MOL    O95 1303   7.437   1.852   0.770  0.0379  0.0542 -0.4614
    5MOL    O96 1304   7.344   1.989   0.920 -0.4978 -0.3957  0.0849
    5MOL    C97 1305   7.219   1.972   0.861 -0.4131 -0.2821 -0.3696
    5MOL    C98 1306   7.122   2.066   0.923 -0.4275 -0.6420 -0.6891
    5MOL    H99 1307   7.707   1.988   1.090 -1.7382  0.1566  1.6994
    5MOL   H100 1308   7.581   2.089   1.051 -1.7613 -1.3312  0.6978
    5MOL   H101 1309   7.635   1.828   0.916 -0.7264  0.9032 -1.7225
    5MOL   H102 1310   7.221   1.996   0.755  0.0436  1.5921  0.0482
    5MOL   H103 1311   7.190   1.868   0.878 -1.6160  0.0052 -0.6180
    5MOL   H104 1312   7.031   2.080   0.864 -0.2833  1.5289 -0.4241
    5MOL   H105 1313   7.161   2.166   0.940  2.1666 -1.4907 -1.4589
    5MOL   H106 1314   7.102   2.022   1.021 -0.7319  0.7220 -0.1284
    5MOL   C107 1315   7.536   1.805   1.097  0.0281  0.3169 -0.8512
    5MOL   C108 1316   7.425   1.858   1.196  0.0259 -0.0506  0.4630
    5MOL   C109 1317   7.447   1.992   1.262 -0.1926 -0.5152  0.0971
    5MOL   O110 1318   7.362   2.083   1.256 -0.2722  0.3622  0.7748
    5MOL   O111 1319   7.561   1.995   1.330 -0.3436 -0.5481  0.0755
    5MOL   C112 1320   7.598   2.109   1.401  0.0558  0.1242 -0.4017
    5MOL   C113 1321   7.696   2.074   1.514  0.2259  0.1970 -0.0128
    5MOL   H114 1322   7.498   1.706   1.070  0.6938 -0.6991  1.7561
    5MOL   H115 1323   7.629   1.774   1.145 -1.1129 -0.6578  0.7890
    5MOL   H116 1324   7.326   1.854   1.150  0.8488 -1.6216 -1.2220
    5MOL   H117 1325   7.644   2.172   1.325  0.2305 -0.6107 -0.9048
    5MOL   H118 1326   7.512   2.164   1.442  0.3817 -0.5185  1.1706
    5MOL   H119 1327   7.655   2.063   1.615  0.3847  0.6358  0.0996
    5MOL   H120 1328   7.764   2.157   1.531  1.8373 -1.2666  0.9627
    5MOL   H121 1329   7.749   1.980   1.498  0.4049  0.1460  0.8669
    5MOL   C122 1330   7.409   1.754   1.315 -0.1203 -0.9173  0.3566
    5MOL   C123 1331   7.294   1.652   1.291  0.2938  0.6071 -0.0787
    5MOL   C124 1332   7.161   1.695   1.355 -0.7597  0.0261 -0.0532
    5MOL   O125 1333   7.123   1.647   1.462 -0.0178  0.1134 -0.0048
    5MOL   O126 1334   7.095   1.786   1.280  0.0589 -0.2534  0.2455
    5MOL   C127 1335   6.989   1.857   1.342  0.1681  0.1024 -1.2693
    5MOL   C128 1336   6.868   1.870   1.249  0.2955 -0.0129 -0.3440
    5MOL   H129 1337   7.498   1.693   1.329  1.2862  0.8367 -0.6696
    5MOL   H130 1338   7.379   1.798   1.410  3.4998 -0.3551  1.2997
    5MOL   H131 1339   7.266   1.648   1.185 -0.7179  2.0557  0.1199
    5MOL   H132 1340   6.951   1.812   1.433  0.5787  2.8925  0.3215
    5MOL   H133 1341   7.041   1.947   1.374 -1.6528  0.6275  0.2593
    5MOL   H134 1342   6.907   1.893   1.150 -1.1477 -0.1437 -0.9645
    5MOL   H135 1343   6.793   1.943   1.282  0.5122  0.3520 -0.6569
    5MOL   H136 1344   6.829   1.769   1.235  2.2094 -0.6648 -1.1023
    5MOL   C137 1345   7.334   1.508   1.340  0.2271 -0.1079  0.1791
    5MOL   C138 1346   7.454   1.436   1.269  0.3253 -0.2158 -0.2402
    5MOL   C139 1347   7.411   1.400   1.117  0.1566 -0.6823 -0.3542
    5MOL   O140 1348   7.488   1.433   1.025  0.2872  0.3198  0.5090
    5MOL   O141 1349   7.291   1.324   1.109  0.4832  0.0429  0.2232
    5MOL   C142 1350   7.235   1.277   0.991  0.1068 -0.5803 -1.0564
    5MOL   C143 1351   7.312   1.161   0.935 -0.1032  0.2550 -0.1957
    5MOL   H144 1352   7.367   1.516   1.444  2.8765 -1.2640 -0.5453
    5MOL   H145 1353   7.240   1.452   1.341 -0.1023  0.2392 -4.2547
    5MOL   H146 1354   7.536   1.506   1.255 -0.1113  0.6727  1.5304
    5MOL   H147 1355   7.134   1.238   1.009  0.8211 -1.8607  0.2606
    5MOL   H148 1356   7.239   1.355   0.916  2.1133  1.9664  1.5954
    5MOL   H149 1357   7.268   1.114   0.847  1.5694  1.9933 -2.0591
    5MOL   H150 1358   7.320   1.089   1.016 -1.1652  2.6718  2.1240
    5MOL   H151 1359   7.414   1.190   0.907 -0.0089  0.3918  0.2926
    5MOL   C152 1360   7.503   1.310   1.346 -0.0280 -0.6409 -0.8346
    5MOL   C153 1361   7.567   1.336   1.479 -0.3546  0.1800 -0.0027
    5MOL   C154 1362   7.697   1.408   1.449 -0.3465 -0.5358  0.2801
    5MOL   O155 1363   7.704   1.533   1.456 -0.1340  0.0725 -0.0464
    5MOL   O156 1364   7.801   1.332   1.419  0.1208 -0.6876 -0.1448
    5MOL   C157 1365   0.021   1.394   1.402 -0.2826  0.0789 -0.2803
    5MOL   C158 1366   0.124   1.279   1.408 -0.2801 -0.4099  0.3068
    5MOL   H159 1367   7.412   1.250   1.349  1.4342 -2.8845 -0.6323
    5MOL   H160 1368   7.571   1.251   1.284  1.2802 -0.6080  0.5584
    5MOL   H161 1369   7.503   1.384   1.554  0.1917 -2.0609  1.9493
    5MOL   H162 1370   0.032   1.448   1.307 -1.1608  0.8658  0.0504
    5MOL   H163 1371   0.050   1.473   1.471 -0.1472 -1.4639  1.4570
    5MOL   H164 1372   0.146   1.262   1.514 -0.5036  1.2001  0.6165
    5MOL   H165 1373   0.223   1.302   1.369 -0.4633  0.8831  0.5906
    5MOL   H166 1374   0.093   1.190   1.353 -1.8056 -0.1824  0.7905
    5MOL   C167 1375   7.588   1.201   1.555  0.0658  0.1478 -0.2057
    5MOL   C168 1376   7.623   1.218   1.704 -0.2760 -0.8019 -0.2559
    5MOL   C169 1377   7.765   1.222   1.744 -0.6612 -0.0238 -0.2823
    5MOL   O170 1378   7.820   1.317   1.801  0.1397  0.4805  0.0082
    5MOL   O171 1379   7.827   1.102   1.713 -0.3372 -0.0615 -0.6024
    5MOL   C172 1380   0.050   1.081   1.757 -0.4741  0.2955  0.1425
    5MOL   C173 1381   0.059   1.052   1.909 -0.2384 -0.2720 -0.4688
    5MOL   H174 1382   7.502   1.141   1.525 -0.1667  0.9192 -1.0904
    5MOL   H175 1383   7.666   1.140   1.510 -0.3004  0.7191 -1.6364
    5MOL   H176 1384   7.583   1.314   1.736  2.3053 -0.1884  1.2117
    5MOL   H177 1385   0.106   1.009   1.698  0.2867  1.2806 -0.3523
    5MOL   H178 1386   0.100   1.177   1.746  3.0956 -1.1463  2.6760
    5MOL   H179 1387   0.046   1.142   1.969  1.0313  0.4946 -1.3339
    5MOL   H180 1388   0.152   1.008   1.946 -0.2062 -0.2313 -0.5013
    5MOL   H181 1389   7.887   0.983   1.935 -0.2426  0.2855  1.0595
    5MOL   C182 1390   7.545   1.124   1.802 -0.3144 -0.4783 -0.1136
    5MOL   C183 1391   7.567   0.969   1.798 -0.6093 -0.3645 -0.8497
    5MOL   C184 1392   7.518   0.896   1.672  0.1793  0.4147  0.1786
    5MOL   O185 1393   7.587   0.831   1.600 -0.1531 -0.2261  0.5544
    5MOL   O186 1394   7.385   0.918   1.662 -0.1990  0.2082  0.0719
    5MOL   C187 1395   7.306   0.868   1.553 -1.2116 -0.2388  0.2126
    5MOL   C188 1396   7.161   0.838   1.595 -0.0489  0.1800  0.0990
    5MOL   H189 1397   7.565   1.173   1.897 -0.3197  0.7211 -0.7156
    5MOL   H190 1398   7.441   1.156   1.794 -0.1340  0.3701  0.8701
    5MOL   H191 1399   7.672   0.943   1.815 -0.8071 -1.3023 -1.0200
    5MOL   H192 1400   7.322   0.941   1.473 -0.1813  1.1860  1.6982
    5MOL   H193 1401   7.342   0.769   1.524 -0.5674  0.3291 -0.9783
    5MOL   H194 1402   7.095   0.801   1.517 -0.5869  0.6224  0.3440
    5MOL   H195 1403   7.107   0.922   1.640 -0.3907 -0.5828  1.1282
    5MOL   H196 1404   7.167   0.765   1.675  0.4106  1.4273  1.2283
    5MOL   C197 1405   7.489   0.908   1.923 -0.9714  0.0257  0.2397
    5MOL   C198 1406   7.502   0.759   1.957  0.1841 -0.0202  0.4874
    5MOL   C199 1407   7.382   0.706   2.039 -0.6451  0.0778 -0.4436
    5MOL   O200 1408   7.399   0.686   2.159 -0.1436 -0.1486  0.2428
    5MOL   O201 1409   7.276   0.682   1.967 -0.1556 -0.3897 -0.1789
    5MOL   C202 1410   7.153   0.652   2.031 -0.0091 -0.3132  0.5316
    5MOL   C203 1411   7.060   0.596   1.925 -1.3037 -0.4836 -0.1042
    5MOL   H204 1412   7.538   0.958   2.006 -1.1225  0.1189  0.2727
    5MOL   H205 1413   7.383   0.931   1.922 -1.1761 -0.9069 -1.1108
    5MOL   H206 1414   7.491   0.707   1.862 -0.5388  2.8091 -1.0234
    5MOL   H207 1415   7.173   0.573   2.104  0.2320 -0.5823  0.1817
    5MOL   H208 1416   7.107   0.732   2.088 -2.2062 -1.8721  1.0317
    5MOL   H209 1417   6.969   0.572   1.980 -0.0280  0.6580  2.6044
    5MOL   H210 1418   7.104   0.499   1.906 -0.1692  0.0205 -0.1088
    5MOL   H211 1419   7.058   0.664   1.840  1.0335  0.2624  0.4083
    5MOL   C212 1420   7.642   0.738   2.017  0.2577  0.1059  0.1061
    5MOL   C213 1421   7.719   0.615   1.981  0.4884 -0.1076  0.5687
    5MOL   C214 1422   7.754   0.623   1.831 -0.8046 -0.0892 -0.1879
    5MOL   O215 1423   7.833   0.702   1.784  0.3737 -0.3576  0.3332
    5MOL   O216 1424   7.682   0.538   1.757  0.7360 -0.0790 -0.2175
    5MOL   C217 1425   7.688   0.532   1.616  0.2921  0.0070 -0.5644
    5MOL   C218 1426   7.549   0.510   1.556  0.5973  0.0905  0.5092
    5MOL   H219 1427   7.704   0.816   1.974 -0.0055  0.0049 -0.4528
    5MOL   H220 1428   7.654   0.755   2.124 -0.0600 -1.8090  0.4807
    5MOL   H221 1429   7.820   0.619   2.021  1.0954 -1.5756 -0.7483
    5MOL   H222 1430   7.736   0.625   1.585  1.0859  0.1114  0.9284
    5MOL   H223 1431   7.756   0.455   1.578 -0.8686 -0.9873 -0.6386
    5MOL   H224 1432   7.558   0.541   1.452 -1.0682  1.4001  0.7325
    5MOL   H225 1433   7.471   0.573   1.600  1.2759  2.1150 -1.0676
    5MOL   H226 1434   7.511   0.410   1.570  0.4944  0.0174 -0.3136
    5MOL   C227 1435   7.656   0.471   2.021 -0.1999  0.4134  0.3507
    5MOL   C228 1436   7.709   0.421   2.165 -0.0673 -0.2619 -0.7038
    5MOL   C229 1437   7.861   0.415   2.173 -0.0268  0.3561  0.1846
    5MOL   O230 1438   0.012   0.482   2.257 -0.0719  0.3423  0.3561
    5MOL   O231 1439   0.009   0.327   2.082  0.3206 -0.2213 -0.2948
    5MOL   C232 1440   0.144   0.322   2.065 -0.3387 -0.8737  0.5190
    5MOL   C233 1441   0.210   0.182   2.073  0.6133  0.1561  0.4593
    5MOL   H234 1442   7.548   0.483   2.021 -0.4138 -1.2166 -0.6022
    5MOL   H235 1443   7.689   0.391   1.953  1.6756  1.8737 -0.5075
    5MOL   H236 1444   7.672   0.496   2.235 -2.2113 -0.0706 -1.9801
    5MOL   H237 1445   0.174   0.367   1.971 -2.2644  0.1849  0.3681
    5MOL   H238 1446   0.188   0.387   2.141 -1.1699 -1.4159  1.4751
    5MOL   H239 1447   0.318   0.195   2.081  0.3309  2.6824  0.5009
    5MOL   H240 1448   0.195   0.129   1.979 -2.1786 -1.4824  1.7604
    5MOL   H241 1449   0.167   0.111   2.145  1.8878 -1.0110  0.0855
    5MOL   C242 1450   7.658   0.286   2.207  1.1639  0.2959  0.0029
    5MOL   C243 1451   7.513   0.294   2.268 -0.6115  0.2370 -0.2222
    5MOL   C244 1452   7.523   0.365   2.405  0.1930  0.5863 -0.3915
    5MOL   O245 1453   7.540   0.297   2.505 -0.4761  0.6234 -0.3600
    5MOL   O246 1454   7.517   0.496   2.396 -0.0126  0.0274 -0.0353
    5MOL   C247 1455   7.572   0.583   2.493  0.0593  0.2501  0.1648
    5MOL   C248 1456   7.629   0.709   2.417  0.8297 -0.3104  0.1418
    5MOL   H249 1457   7.654   0.230   2.113 -1.7790  0.9725 -0.3263
    5MOL   H250 1458   7.725   0.223   2.265  0.4336  1.2242  1.8914
    5MOL   H251 1459   7.443   0.351   2.207 -2.4656 -2.8523 -1.1079
    5MOL   H252 1460   7.493   0.605   2.564  0.0349 -1.5611  0.7345
    5MOL   H253 1461   7.651   0.539   2.554 -0.6387  0.1740  1.0205
    5MOL   H254 1462   7.552   0.741   2.347 -0.3024 -3.4450 -0.1057
    5MOL   H255 1463   7.722   0.702   2.361 -1.1842 -2.2196 -3.1677
    5MOL   H256 1464   7.641   0.790   2.489  0.5928  1.6160 -1.8993
    5MOL   C257 1465   7.435   0.158   2.272 -0.3419  0.2217  1.0307
    5MOL   C258 1466   7.406   0.102   2.133 -0.6034  0.5988  1.2711
    5MOL   C259 1467   7.349   0.191   2.029  0.9266 -0.9899 -0.0379
    5MOL   O260 1468   7.273   0.282   2.060 -0.1593  0.2176 -0.0078
    5MOL   O261 1469   7.385   0.161   1.899  0.6399  0.0760 -0.6589
    5MOL   C262 1470   7.382   0.265   1.808  0.1460 -0.4233 -0.1979
    5MOL   C263 1471   7.245   0.291   1.728 -0.2397 -0.2614  0.2881
    5MOL   H264 1472   7.495   0.089   2.332  2.9006  1.7047 -0.3445
    5MOL   H265 1473   7.343   0.195   2.317 -0.2999  3.1729 -1.1028
    5MOL   H266 1474   7.507   0.079   2.098 -1.3727 -0.4748 -0.3422
    5MOL   H267 1475   7.396   0.363   1.854  2.3388 -0.2021 -1.2878
    5MOL   H268 1476   7.458   0.272   1.731  0.8070  0.7892  0.5460
    5MOL   H269 1477   7.183   0.340   1.804  1.5236  0.2897  1.4019
    5MOL   H270 1478   7.185   0.205   1.699  0.5078 -0.1260 -1.7115
    5MOL   H271 1479   7.267   0.363   1.650  0.4554 -1.5292 -0.7141
    5MOL   C272 1480   7.340   7.868   2.136 -0.1258  0.2638  0.8700
    5MOL   C273 1481   7.208   7.859   2.213 -0.3907  0.4918 -0.4960
    5MOL   C274 1482   7.166   7.715   2.233  0.2742 -0.3232 -0.2056
    5MOL   O275 1483   7.182   7.621   2.151 -0.4072 -0.1187 -0.0625
    5MOL   O276 1484   7.108   7.698   2.348  0.4610 -0.6671 -0.3195
    5MOL   C277 1485   7.011   7.596   2.368 -0.3691  0.3738 -0.2300
    5MOL   C278 1486   6.876   7.662   2.404  0.2910 -0.8515 -0.6931
    5MOL   H279 1487   7.318   7.834   2.034  0.5829 -3.3718  1.8588
    5MOL   H280 1488   7.419   7.801   2.170 -2.7248 -2.6523  1.3797
    5MOL   H281 1489   7.215   7.885   2.318 -1.3157 -0.8331 -0.0973
    5MOL   H282 1490   6.995   7.534   2.280 -0.0984  0.5395 -0.3918
    5MOL   H283 1491   7.049   7.538   2.452  0.5610  1.3859  0.0532
    5MOL   H284 1492   6.828   7.693   2.311  1.7303  0.0027 -1.1755
    5MOL   H285 1493   6.875   7.747   2.472  0.3056  1.6471 -3.6980
    5MOL   H286 1494   6.799   7.598   2.447  1.0090  0.0861  2.0541
    5MOL   C287 1495   7.084   0.032   2.163  0.6239 -0.3875  0.0193
    5MOL   C288 1496   7.057   0.023   2.013 -0.2266  0.1555  0.3722
    5MOL   C289 1497   6.940   0.114   1.971  0.3218 -0.0587 -0.0290
    5MOL   O290 1498   6.861   0.163   2.051  0.0187 -0.9100  0.0173
    5MOL   O291 1499   6.936   0.130   1.839  0.3574  0.3060 -0.0286
    5MOL   C292 1500   6.821   0.178   1.769 -0.0332 -0.8780  0.6848
    5MOL   C293 1501   6.806   0.327   1.799  0.0230  0.2155 -0.3750
    5MOL   H294 1502   6.989   0.007   2.211  1.3490  0.6091  2.0473
    5MOL   H295 1503   7.115   0.136   2.178  4.0523 -0.7747 -3.6683
    5MOL   H296 1504   7.149   0.053   1.963  0.4043 -0.5126  1.1193
    5MOL   H297 1505   6.834   0.167   1.661 -1.0952 -0.0845  0.4659
    5MOL   H298 1506   6.730   0.125   1.797 -0.5289  0.0191  0.7950
    5MOL   H299 1507   6.773   0.344   1.901  1.2342 -0.8401  0.2159
    5MOL   H300 1508   6.738   0.379   1.732  0.7704 -1.8822 -2.8540
    5MOL   H301 1509   6.907   0.368   1.796  0.9503 -1.7870  2.2130
    5MOL   H302 1510   7.045   7.830   1.973 -0.3977  0.4607 -0.3562
    6MOL     C1 1511   1.273   1.928   0.037  0.5677  0.0847 -0.1281
    6MOL     C2 1512   1.188   1.894   7.824 -0.6193  0.7041  0.2230
    6MOL     C3 1513   1.111   2.014   7.765 -0.5392 -0.2206 -0.4663
    6MOL     O4 1514   1.127   2.127   7.805  0.2785 -0.0467 -0.1479
    6MOL     O5 1515   1.037   1.987   7.651  0.6682 -0.9896  0.4728
    6MOL     C6 1516   0.956   2.097   7.601  0.4289  0.4083  0.3377
    6MOL     C7 1517   0.889   2.078   7.462 -0.6274 -0.1655 -0.1570
    6MOL     H8 1518   1.359   1.863   0.051 -0.9561 -1.9568 -0.0814
    6MOL     H9 1519   1.211   1.925   0.127  1.4960  1.7497  0.5858
    6MOL    H10 1520   1.264   1.867   7.751 -1.2042  1.2270 -0.5871
    6MOL    H11 1521   0.876   2.129   7.667  0.2150 -1.2764  0.9233
    6MOL    H12 1522   1.021   2.183   7.588 -1.1103  1.2674 -2.0708
    6MOL    H13 1523   0.853   2.172   7.421  1.8775  0.8229 -0.1940
    6MOL    H14 1524   0.814   2.000   7.477 -0.6719 -0.2703 -0.9293
    6MOL    H15 1525   0.964   2.058   7.385 -2.5921  1.0234 -2.4143
    6MOL    H16 1526   1.321   2.026   0.029  0.0949  0.2566 -1.0518
    6MOL    C17 1527   1.101   1.773   7.846  0.1339  0.0658 -0.3321
    6MOL    C18 1528   1.101   1.665   7.734  0.2180 -0.4214 -0.0715
    6MOL    C19 1529   0.999   1.689   7.627  0.1841 -0.4934  0.3382
    6MOL    O20 1530   0.882   1.686   7.655 -0.4040 -0.7845 -0.1333
    6MOL    O21 1531   1.044   1.698   7.500 -1.1038 -0.3291  0.0831
    6MOL    C22 1532   0.954   1.730   7.398 -0.0393  0.3598  0.5448
    6MOL    C23 1533   0.905   1.593   7.337 -0.0363  0.2398  0.1625
    6MOL    H24 1534   1.134   1.710   0.021 -2.0504 -0.7139 -0.0142
    6MOL    H25 1535   1.002   1.812   7.871  0.4923  0.1045  1.0715
    6MOL    H26 1536   1.198   1.673   7.684 -0.1068  0.0494 -0.6385
    6MOL    H27 1537   0.869   1.787   7.435 -1.1478 -1.1771  0.4263
    6MOL    H28 1538   1.003   1.782   7.316 -0.0511 -0.0530  0.2739
    6MOL    H29 1539   0.993   1.529   7.331 -0.3035 -0.3417  2.0336
    6MOL    H30 1540   0.860   1.604   7.239  0.0467  0.3471  0.1361
    6MOL    H31 1541   0.830   1.549   7.403 -0.5055  0.1086 -0.4562
    6MOL    C32 1542   1.068   1.530   7.793  0.1240  1.1538 -0.5024
    6MOL    C33 1543   1.094   1.398   7.712 -0.2674 -0.0862 -0.0856
    6MOL    C34 1544   1.039   1.274   7.796 -0.2393  0.3964 -0.2348
    6MOL    O35 1545   1.096   1.232   7.897  0.1355 -0.0053 -0.4864
    6MOL    O36 1546   0.917   1.239   7.760  0.1950 -0.2130 -0.1107
    6MOL    C37 1547   0.844   1.154   7.841  0.1505 -0.3162  0.1091
    6MOL    C38 1548   0.718   1.124   7.753 -0.1665 -1.2347 -0.0754
    6MOL    H39 1549   1.126   1.503   7.882  0.2985 -0.2799 -1.0236
    6MOL    H40 1550   0.964   1.520   7.823  0.1008 -0.4776 -1.0224
    6MOL    H41 1551   1.029   1.394   7.625  0.9981 -2.3626 -0.9513
    6MOL    H42 1552   0.897   1.058   7.847  0.2535 -0.2552  0.1854
    6MOL    H43 1553   0.810   1.202   0.024  1.7618  0.2245  0.4444
    6MOL    H44 1554   0.669   1.030   7.779  0.1677 -0.7561  2.3462
    6MOL    H45 1555   0.747   1.118   7.648  1.8669  0.5352  0.3507
    6MOL    H46 1556   0.639   1.198   7.757  1.5802  0.6217  0.9338
    6MOL    C47 1557   1.240   1.385   7.675  0.4079  0.2492  0.1162
    6MOL    C48 1558   1.277   1.426   7.526  0.2987  0.6696  0.1558
    6MOL    C49 1559   1.258   1.325   7.416  0.1853  0.1187  0.3236
    6MOL    O50 1560   1.355   1.274   7.358 -0.4180  0.3860 -0.0583
    6MOL    O51 1561   1.123   1.305   7.389  0.5109  0.6189  0.4000
    6MOL    C52 1562   1.077   1.209   7.295  0.6181  0.5909  0.0123
    6MOL    C53 1563   0.922   1.192   7.269 -0.6951 -0.9009  0.2445
    6MOL    H54 1564   1.316   1.407   7.751  1.2888 -2.9935  0.2639
    6MOL    H55 1565   1.264   1.279   7.670  0.6135  0.3740 -2.0676
    6MOL    H56 1566   1.211   1.505   7.491  0.4590  0.9250  0.4228
    6MOL    H57 1567   1.130   1.214   7.200  0.3498 -1.0623 -0.2285
    6MOL    H58 1568   1.104   1.110   7.331  2.2426  0.5086 -1.3623
    6MOL    H59 1569   0.866   1.142   7.348 -0.8667  0.3009  0.9015
    6MOL    H60 1570   0.902   1.130   7.182 -2.2928  0.1658 -0.1761
    6MOL    H61 1571   0.882   1.290   7.241  1.7772  0.2930  0.7377
    6MOL    C62 1572   1.429   1.476   7.523  0.5563 -1.2124 -0.1532
    6MOL    C63 1573   1.457   1.576   7.408 -0.8430  0.6137  0.4462
    6MOL    C64 1574   1.607   1.584   7.367  0.6954 -0.0995 -0.9042
    6MOL    O65 1575   1.645   1.581   7.253  0.2061 -0.1370  0.3846
    6MOL    O66 1576   1.689   1.607   7.477  0.0611 -0.1052  0.4016
    6MOL    C67 1577   1.830   1.636   7.462 -0.0469 -0.0099  0.9935
    6MOL    C68 1578   1.904   1.659   7.595  0.4207  0.1250 -0.4049
    6MOL    H69 1579   1.444   1.525   7.620 -2.3095  0.8506 -0.6954
    6MOL    H70 1580   1.498   1.391   7.518  0.9679 -0.9603  0.9910
    6MOL    H71 1581   1.406   1.544   7.317 -0.7419  1.5589  0.0501
    6MOL    H72 1582   1.875   1.554   7.405 -0.5845 -0.3973  1.1265
    6MOL    H73 1583   1.843   1.712   7.384 -1.6944 -0.6199  0.1037
    6MOL    H74 1584   1.859   1.747   7.641 -1.2942 -1.7028  1.5275
    6MOL    H75 1585   2.008   1.692   7.589  0.8935 -1.1850  0.4102
    6MOL    H76 1586   1.909   1.570   7.658  2.5039  0.6792  0.2583
    6MOL    C77 1587   1.401   1.713   7.437 -0.2984  0.1266 -0.3263
    6MOL    C78 1588   1.401   1.828   7.328 -0.2119  0.2469  0.1587
    6MOL    C79 1589   1.539   1.890   7.335 -0.6810 -0.4954 -0.5506
    6MOL    O80 1590   1.591   1.932   7.443  0.5528  0.2326 -0.1729
    6MOL    O81 1591   1.599   1.902   7.213 -0.6573  0.3122  0.0347
    6MOL    C82 1592   1.723   1.969   7.200  0.2855 -0.2401  0.2914
    6MOL    C83 1593   1.721   2.067   7.084 -0.0145  0.5290 -0.2005
    6MOL    H84 1594   1.297   1.696   7.466 -1.2023  2.5908 -1.9642
    6MOL    H85 1595   1.437   1.752   7.532  1.8693 -0.8369 -0.7176
    6MOL    H86 1596   1.382   1.788   7.229  1.0591  1.2508 -0.5011
    6MOL    H87 1597   1.758   2.008   7.296  0.1931  0.4791  0.0299
    6MOL    H88 1598   1.786   1.883   7.177 -2.7102 -2.2203 -0.6827
    6MOL    H89 1599   1.705   2.012   6.991  1.0286  1.1461 -0.7671
    6MOL    H90 1600   1.819   2.116   7.083  0.4703 -0.2815 -5.6103
    6MOL    H91 1601   1.637   2.137   7.084 -0.1629  0.4240 -3.6461
    6MOL    C92 1602   1.301   1.939   7.380  0.1907 -0.7055 -0.0991
    6MOL    C93 1603   1.266   2.066   7.294  0.0440  0.2690 -0.8111
    6MOL    C94 1604   1.211   2.013   7.158  0.8108 -0.5337 -0.1370
    6MOL    O95 1605   1.086   1.998   7.136  0.3593 -0.2721 -0.3889
    6MOL    O96 1606   1.308   1.971   7.083 -0.2928  0.4974 -0.2175
    6MOL    C97 1607   1.284   1.909   6.954 -0.2185  0.3612  0.4691
    6MOL    C98 1608   1.225   1.989   6.835  0.7309 -0.3445  0.1530
    6MOL    H99 1609   1.205   1.893   7.400 -1.4073  2.0323 -1.1132
    6MOL   H100 1610   1.336   1.967   7.479 -0.0087  0.0738 -0.2466
    6MOL   H101 1611   1.189   2.121   7.348 -0.1970 -1.5425  0.7617
    6MOL   H102 1612   1.380   1.865   6.926 -0.7773  0.1685 -1.1851
    6MOL   H103 1613   1.224   1.820   6.974 -0.8390  0.8086  0.6147
    6MOL   H104 1614   1.207   1.941   6.738  0.3545 -1.1854  0.6356
    6MOL   H105 1615   1.285   2.077   6.809  1.4444  0.0176  2.9119
    6MOL   H106 1616   1.123   2.009   6.867  0.2437 -2.7987  0.2237
    6MOL   C107 1617   1.389   2.160   7.286 -1.0480  0.1829  0.8163
    6MOL   C108 1618   1.377   2.298   7.209 -0.5715 -0.3025  0.3237
    6MOL   C109 1619   1.283   2.393   7.281 -0.0306  0.0463  0.2984
    6MOL   O110 1620   1.190   2.446   7.227 -0.3969  0.4398  0.3330
    6MOL   O111 1621   1.313   2.418   7.417  0.3584  0.0178  0.0230
    6MOL   C112 1622   1.239   2.523   7.483  0.4029  0.1886 -0.0201
    6MOL   C113 1623   1.101   2.475   7.525  0.5604 -0.4120  0.2710
    6MOL   H114 1624   1.430   2.186   7.384 -0.0890  2.0429 -0.0522
    6MOL   H115 1625   1.471   2.111   7.233 -0.7205  2.1874 -0.5848
    6MOL   H116 1626   1.472   2.351   7.210 -0.7527  0.0272  0.1617
    6MOL   H117 1627   1.296   2.548   7.572 -0.1225 -0.4095  0.4836
    6MOL   H118 1628   1.242   2.616   7.426  1.4520 -1.4016 -2.6343
    6MOL   H119 1629   1.048   2.563   7.560  0.1708 -0.0895 -1.0942
    6MOL   H120 1630   1.107   2.407   7.610 -1.0530 -2.2305 -1.0351
    6MOL   H121 1631   1.047   2.433   7.440  2.6822  1.1681 -1.9355
    6MOL   C122 1632   1.357   2.283   7.060  0.3230 -0.0036 -0.9085
    6MOL   C123 1633   1.399   2.407   6.978 -0.0139 -0.0520 -0.3981
    6MOL   C124 1634   1.331   2.411   6.843  1.2328 -0.1488 -0.1239
    6MOL   O125 1635   1.383   2.356   6.740 -0.6599  0.3964 -0.0133
    6MOL   O126 1636   1.210   2.485   6.848  0.4935 -0.4262  0.2056
    6MOL   C127 1637   1.118   2.486   6.732 -0.0620 -0.0816 -0.3329
    6MOL   C128 1638   1.158   2.603   6.645 -0.0511  0.1854 -0.0115
    6MOL   H129 1639   1.415   2.198   7.026  0.4218 -0.9118  1.4847
    6MOL   H130 1640   1.251   2.263   7.043 -0.4669  1.5227  1.9830
    6MOL   H131 1641   1.365   2.492   7.038  0.2206 -0.6082  0.5422
    6MOL   H132 1642   1.109   2.388   6.685 -0.6921 -0.4656  0.5703
    6MOL   H133 1643   1.018   2.500   6.774  1.2925  0.8215  2.7150
    6MOL   H134 1644   1.105   2.601   6.549 -1.2260  0.1611  0.6271
    6MOL   H135 1645   1.264   2.592   6.626 -0.1254  0.5456 -0.6848
    6MOL   H136 1646   1.132   2.695   6.698 -0.1519  1.2853 -1.9115
    6MOL   C137 1647   1.551   2.415   6.962 -0.4519 -0.2563  0.5231
    6MOL   C138 1648   1.593   2.554   6.903 -0.1516 -0.5865 -0.5467
    6MOL   C139 1649   1.688   2.542   6.779 -0.0573 -0.1529  0.9193
    6MOL   O140 1650   1.793   2.604   6.778 -0.6612 -0.5120  0.3639
    6MOL   O141 1651   1.645   2.462   6.681  0.6595 -0.3097 -0.3552
    6MOL   C142 1652   1.729   2.435   6.568 -0.2476 -0.0393 -0.1719
    6MOL   C143 1653   1.681   2.509   6.448  0.1663 -0.3500  0.6796
    6MOL   H144 1654   1.597   2.394   7.059  0.2389  0.6632  0.3977
    6MOL   H145 1655   1.583   2.336   6.895 -0.5525 -0.1004  0.2908
    6MOL   H146 1656   1.507   2.608   6.865 -0.2775  1.2811  2.2331
    6MOL   H147 1657   1.832   2.463   6.586 -0.9900  1.3335  2.1945
    6MOL   H148 1658   1.730   2.327   6.558 -0.4494  0.1991 -3.0104
    6MOL   H149 1659   1.710   2.614   6.452 -0.2972 -0.2422  1.3876
    6MOL   H150 1660   1.572   2.504   6.447 -0.0184  2.6749  1.5336
    6MOL   H151 1661   1.709   2.475   6.348 -1.9304 -0.1417 -0.0033
    6MOL   C152 1662   1.654   2.650   7.010 -0.0077 -0.2756  0.5566
    6MOL   C153 1663   1.570   2.673   7.141 -0.1802 -0.1412  0.1400
    6MOL   C154 1664   1.445   2.751   7.108  0.5141  0.5086  0.2431
    6MOL   O155 1665   1.433   2.814   7.004  0.3825 -0.5080  0.5794
    6MOL   O156 1666   1.351   2.739   7.209  0.3097  0.1983  0.2473
    6MOL   C157 1667   1.214   2.788   7.191 -0.4319  0.2073 -0.0744
    6MOL   C158 1668   1.204   2.924   7.265  0.8274  0.0988  0.0802
    6MOL   H159 1669   1.748   2.608   7.046  0.6145  0.7095  0.1147
    6MOL   H160 1670   1.676   2.750   6.972  2.4761 -0.0432  2.4334
    6MOL   H161 1671   1.531   2.583   7.187 -2.1618  0.8744  0.5069
    6MOL   H162 1672   1.194   2.795   7.084 -0.5009  0.7850 -0.0266
    6MOL   H163 1673   1.138   2.717   7.224 -0.8934  0.3591 -0.7946
    6MOL   H164 1674   1.237   2.902   7.366 -0.3539 -1.6825  0.0900
    6MOL   H165 1675   1.102   2.964   7.261  1.2243  1.6318  3.5301
    6MOL   H166 1676   1.274   2.997   7.222  1.7739 -2.3374 -2.6901
    6MOL   C167 1677   1.656   2.758   7.244  0.0262 -0.3517  0.3234
    6MOL   C168 1678   1.611   2.749   7.394  0.0249 -0.0173 -0.6126
    6MOL   C169 1679   1.540   2.878   7.442 -0.5212  0.0078 -0.3731
    6MOL   O170 1680   1.446   2.868   7.524 -0.1232 -0.5520  0.7043
    6MOL   O171 1681   1.593   2.993   7.396  0.0412  0.4280 -0.1992
    6MOL   C172 1682   1.529   3.120   7.410 -0.1376 -0.4465  0.2025
    6MOL   C173 1683   1.518   3.187   7.280  0.3552 -0.2268 -0.1338
    6MOL   H174 1684   1.757   2.716   7.237 -0.0305 -0.5313  0.5671
    6MOL   H175 1685   1.668   2.860   7.209 -2.6700 -0.7060 -1.8160
    6MOL   H176 1686   1.539   2.667   7.399 -0.6687  0.6372  0.4148
    6MOL   H177 1687   1.437   3.115   7.468 -0.0546 -1.2442  0.2708
    6MOL   H178 1688   1.595   3.182   7.471 -1.2606  1.2431 -0.2747
    6MOL   H179 1689   1.613   3.205   7.230 -1.0751  1.8529 -2.1964
    6MOL   H180 1690   1.459   3.279   7.281  0.4732 -0.1364 -0.9393
    6MOL   H181 1691   1.447   3.133   7.218  1.0696 -0.5615 -0.6689
    6MOL   C182 1692   1.732   2.723   7.498 -0.2059 -0.1784 -0.3081
    6MOL   C183 1693   1.750   2.578   7.532 -1.2800 -0.0660 -0.3291
    6MOL   C184 1694   1.783   2.484   7.414 -0.0808  1.0015 -0.7432
    6MOL   O185 1695   1.697   2.418   7.356  0.1241 -0.5617 -0.0931
    6MOL   O186 1696   1.913   2.478   7.394  0.1170 -0.4996 -0.6725
    6MOL   C187 1697   1.968   2.388   7.302 -0.0424  0.3724 -0.0940
    6MOL   C188 1698   2.121   2.393   7.327 -0.0174  0.0967 -0.3167
    6MOL   H189 1699   1.816   2.768   7.444  0.2558 -1.7969 -0.9499
    6MOL   H190 1700   1.727   2.784   7.588  1.3509  0.8599 -0.8984
    6MOL   H191 1701   1.843   2.578   7.589 -0.3954  0.2970 -1.7507
    6MOL   H192 1702   1.924   2.289   7.311 -2.0065  1.0805 -1.6705
    6MOL   H193 1703   1.950   2.422   7.200 -1.0020 -1.6999 -0.6451
    6MOL   H194 1704   2.147   2.336   7.416 -2.3154 -1.5332 -0.6321
    6MOL   H195 1705   2.160   2.493   7.345  1.5491 -0.9453  2.4657
    6MOL   H196 1706   2.186   2.358   7.247 -0.9341 -1.0112 -0.5955
    6MOL   C197 1707   1.633   2.533   7.627 -0.5084  0.6119  0.1975
    6MOL   C198 1708   1.662   2.416   7.718 -0.1463 -0.0578 -0.7190
    6MOL   C199 1709   1.527   2.346   7.760  0.2514  0.3871  0.1551
    6MOL   O200 1710   1.501   2.224   7.761 -0.7040  0.2382 -0.0111
    6MOL   O201 1711   1.429   2.438   7.808 -0.0537  0.2681  0.1592
    6MOL   C202 1712   1.300   2.381   7.849  0.2884 -0.3945  0.3070
    6MOL   C203 1713   1.213   2.500   7.897  0.4267  0.5377 -0.0578
    6MOL   H204 1714   1.603   2.620   7.686 -2.1308  0.8271 -0.9247
    6MOL   H205 1715   1.544   2.517   7.567 -0.8235 -2.5096  1.3847
    6MOL   H206 1716   1.723   2.346   7.662  0.2602  0.6060 -1.1086
    6MOL   H207 1717   1.282   2.340   7.749  1.2747 -2.0913  0.8076
    6MOL   H208 1718   1.317   2.301   0.012  0.2945 -0.8815 -0.2289
    6MOL   H209 1719   1.109   2.471   7.886  0.4284 -0.3157  2.0155
    6MOL   H210 1720   1.231   2.588   7.835  0.3763 -0.2186 -1.1407
    6MOL   H211 1721   1.238   2.519   0.093  0.3985 -0.9269  0.2170
    6MOL   C212 1722   1.756   2.457   7.839  0.9073 -0.2998 -0.2942
    6MOL   C213 1723   1.872   2.360   7.862  0.2234  0.1657  0.1405
    6MOL   C214 1724   1.905   2.344   0.108  0.0398  0.2584  0.2564
    6MOL   O215 1725   1.945   2.237   0.155  0.6596 -0.0582  0.2219
    6MOL   O216 1726   1.914   2.476   0.165 -0.4820  0.1231  0.3579
    6MOL   C217 1727   1.941   2.492   0.307 -0.1324  0.3244 -0.3747
    6MOL   C218 1728   1.846   2.578   0.375 -0.1334  0.1673 -0.0245
    6MOL   H219 1729   1.780   2.562   7.830 -2.0139  0.4618  0.3229
    6MOL   H220 1730   1.689   2.454   0.016  0.0713 -0.8153 -0.9615
    6MOL   H221 1731   1.829   2.263   7.835 -0.1167  0.5379 -0.6544
    6MOL   H222 1732   1.939   2.389   0.343 -1.1042  0.6461  0.4943
    6MOL   H223 1733   2.040   2.536   0.314  2.4377 -4.5991 -2.6945
    6MOL   H224 1734   1.881   2.599   0.476  1.3492  1.0333 -0.6962
    6MOL   H225 1735   1.752   2.525   0.388  0.2578 -0.6168 -0.3739
    6MOL   H226 1736   1.830   2.673   0.323  1.2228  0.1554 -0.4730
    6MOL   C227 1737   2.004   2.401   7.784 -0.8133  0.1576 -0.1843
    6MOL   C228 1738   2.116   2.295   7.784 -0.9874  0.4657 -0.4587
    6MOL   C229 1739   2.246   2.360   7.741 -0.1977  0.0428  0.6546
    6MOL   O230 1740   2.304   2.329   7.635  0.3884  0.1746 -0.7424
    6MOL   O231 1741   2.299   2.450   7.830 -0.2571 -0.0362  0.6224
    6MOL   C232 1742   2.424   2.513   7.803  0.6746 -0.2448 -0.2045
    6MOL   C233 1743   2.509   2.494   0.015 -0.2219  0.2366  0.1955
    6MOL   H234 1744   1.967   2.410   7.682 -0.9492 -1.1014 -0.2523
    6MOL   H235 1745   2.045   2.496   7.818  1.1152 -0.6478 -0.1974
    6MOL   H236 1746   2.133   2.256   7.885  0.4962  1.5243 -0.2766
    6MOL   H237 1747   2.475   2.478   7.714  0.2516 -1.0327 -0.1423
    6MOL   H238 1748   2.410   2.620   7.794  2.0482  0.0228  0.7932
    6MOL   H239 1749   2.610   2.531   7.908 -1.2199  1.8015 -2.9911
    6MOL   H240 1750   2.510   2.391   0.051  0.9948  0.6699  1.4778
    6MOL   H241 1751   2.475   2.554   0.099  0.8959 -0.6570  1.3156
    6MOL   C242 1752   2.081   2.177   7.695  0.3017 -0.5416  0.0764
    6MOL   C243 1753   2.182   2.058   7.707  0.0095  0.3767 -0.5673
    6MOL   C244 1754   2.211   1.986   7.572 -1.1066 -0.3880 -0.5609
    6MOL   O245 1755   2.320   1.995   7.516 -0.5247  0.1998 -0.2673
    6MOL   O246 1756   2.105   1.925   7.523  0.2871 -0.2918 -0.5095
    6MOL   C247 1757   2.112   1.886   7.387  0.3756  0.5349 -0.5199
    6MOL   C248 1758   2.090   2.010   7.292  0.6633  0.2193  0.2956
    6MOL   H249 1759   1.979   2.148   7.721 -0.0460  0.6640  0.0826
    6MOL   H250 1760   2.077   2.205   7.589 -0.3478 -1.8977 -0.2697
    6MOL   H251 1761   2.280   2.100   7.732 -0.0993  0.4287 -0.2158
    6MOL   H252 1762   2.205   1.839   7.355 -0.4869  0.4914 -3.1092
    6MOL   H253 1763   2.028   1.816   7.384  2.4737 -2.1067  0.9443
    6MOL   H254 1764   2.162   2.089   7.313  2.8679 -1.6917  0.1536
    6MOL   H255 1765   1.988   2.048   7.299 -0.0831 -1.1185 -2.6529
    6MOL   H256 1766   2.105   1.977   7.190 -1.6017  0.8212 -0.2708
    6MOL   C257 1767   2.138   1.957   7.817  0.0812 -0.0293 -0.2974
    6MOL   C258 1768   2.254   1.888   7.901  0.1820 -0.4195 -0.2607
    6MOL   C259 1769   2.330   1.780   7.826 -0.5140 -0.1186 -0.1938
    6MOL   O260 1770   2.451   1.768   7.823  0.4760  0.1908 -0.7604
    6MOL   O261 1771   2.254   1.690   7.760  0.2088 -0.1988  0.1078
    6MOL   C262 1772   2.310   1.581   7.690 -0.0136  0.2739  0.4569
    6MOL   C263 1773   2.227   1.539   7.572 -0.2916 -0.2233  0.4755
    6MOL   H264 1774   2.064   1.998   7.887  0.5692 -1.3149  1.0015
    6MOL   H265 1775   2.086   1.870   7.776  2.1080 -0.6842 -1.5402
    6MOL   H266 1776   2.338   1.953   0.018 -0.5843 -0.9177  3.9527
    6MOL   H267 1777   2.404   1.612   7.644  0.5273 -1.2060  0.5547
    6MOL   H268 1778   2.325   1.494   7.753  0.1844 -0.2027 -0.2434
    6MOL   H269 1779   2.130   1.504   7.608  0.9799 -2.5616  1.7412
    6MOL   H270 1780   2.262   1.450   7.520  0.6780  0.2752  0.2623
    6MOL   H271 1781   2.208   1.621   7.502  0.4157  0.6455  1.2813
    6MOL   C272 1782   2.199   1.844   0.131  0.2198  0.0502  0.2732
    6MOL   C273 1783   2.295   1.752   0.222 -0.4809 -0.6479  0.0745
    6MOL   C274 1784   2.217   1.681   0.331 -0.0836 -0.2190 -0.7255
    6MOL   O275 1785   2.185   1.566   0.314  0.0109 -0.4537 -0.7099
    6MOL   O276 1786   2.190   1.751   0.447  0.3130  0.0411  0.1191
    6MOL   C277 1787   2.121   1.676   0.551  0.0924  0.5249  0.1960
    6MOL   C278 1788   2.118   1.753   0.687 -0.0319  0.2156  0.3965
    6MOL   H279 1789   2.171   1.934   0.186 -0.1123  0.4825 -0.5850
    6MOL   H280 1790   2.101   1.798   0.120  0.0181  0.7650 -1.0696
    6MOL   H281 1791   2.325   1.670   0.156 -0.3208  0.8360 -1.7262
    6MOL   H282 1792   2.017   1.657   0.523 -0.1823  1.8326  0.3263
    6MOL   H283 1793   2.167   1.577   0.551 -3.6296 -1.3679 -3.3811
    6MOL   H284 1794   2.215   1.777   0.730  0.1502  2.5660 -1.1889
    6MOL   H285 1795   2.060   1.688   0.752 -1.2191  0.2498 -0.6078
    6MOL   H286 1796   2.064   1.848   0.681 -0.8922 -0.2094  1.3025
    6MOL   C287 1797   2.429   1.812   0.276  0.9943 -0.2312  0.1842
    6MOL   C288 1798   2.420   1.932   0.374  0.3318  0.1755  0.2718
    6MOL   C289 1799   2.384   2.064   0.301  0.2268  0.9096 -0.1708
    6MOL   O290 1800   2.439   2.116   0.209  0.5690 -0.3213 -0.4632
    6MOL   O291 1801   2.278   2.122   0.362 -0.6276 -0.7545 -0.4199
    6MOL   C292 1802   2.235   2.246   0.315  0.1331  0.0325 -0.1778
    6MOL   C293 1803   2.319   2.360   0.357  0.1847 -0.6612  0.5310
    6MOL   H294 1804   2.485   1.732   0.324  1.1929  0.5909  1.3479
    6MOL   H295 1805   2.486   1.833   0.186  0.4964 -0.0300 -0.0893
    6MOL   H296 1806   2.374   1.910   0.471 -1.9247 -1.6030 -1.1407
    6MOL   H297 1807   2.227   2.246   0.207 -1.5619 -0.6467 -0.0695
    6MOL   H298 1808   2.133   2.270   0.345 -0.4987  2.0040 -3.7148
    6MOL   H299 1809   2.281   2.455   0.316  1.5067 -0.4465 -0.2301
    6MOL   H300 1810   2.419   2.350   0.314 -0.6600 -1.1561 -1.3743
    6MOL   H301 1811   2.330   2.367   0.465  0.9680  0.8060  0.3690
    6MOL   H302 1812   2.524   1.953   0.398  0.1127 -0.2127  1.6376
    7MOL     C1 1813   3.595   7.316   1.407  0.0185 -0.7768 -0.5922
    7MOL     C2 1814   3.454   7.342   1.466  0.3103  0.0103  0.6858
    7MOL     C3 1815   3.442   7.308   1.614  0.2672 -0.4231  0.3687
    7MOL     O4 1816   3.367   7.368   1.686  0.5808 -0.1683  0.6839
    7MOL     O5 1817   3.522   7.204   1.651  0.4357  0.1267 -0.4650
    7MOL     C6 1818   3.537   7.184   1.790 -0.2943 -0.0185  0.0053
    7MOL     C7 1819   3.688   7.197   1.828 -0.2342  0.1931 -0.2429
    7MOL     H8 1820   3.619   7.366   1.314  1.2164 -2.3833 -1.1621
    7MOL     H9 1821   3.604   7.209   1.388  1.3105 -0.4927 -1.6380
    7MOL    H10 1822   3.438   7.450   1.468 -0.9700 -0.1750  1.5561
    7MOL    H11 1823   3.488   7.259   1.851 -1.3831 -0.6334 -0.1130
    7MOL    H12 1824   3.498   7.086   1.817  0.3472 -0.0472  0.8446
    7MOL    H13 1825   3.684   7.217   1.935 -1.5743 -1.2199 -0.0048
    7MOL    H14 1826   3.745   7.275   1.778 -1.1702  0.2767 -1.2049
    7MOL    H15 1827   3.734   7.102   1.803 -3.1121 -1.2095 -0.4939
    7MOL    H16 1828   3.674   7.349   1.475 -0.6047  0.6822 -0.5600
    7MOL    C17 1829   3.340   7.276   1.383 -0.0296  0.0571  0.8012
    7MOL    C18 1830   3.318   7.364   1.253  0.2110  0.1496 -0.5238
    7MOL    C19 1831   3.195   7.454   1.263  0.3748 -0.9155  0.1665
    7MOL    O20 1832   3.100   7.434   1.342 -0.8088  0.1365  0.3152
    7MOL    O21 1833   3.205   7.552   1.172 -0.1447 -0.0042  0.2997
    7MOL    C22 1834   3.120   7.666   1.189  0.8564 -0.0281  0.3187
    7MOL    C23 1835   3.142   7.777   1.086 -0.1686 -0.0163  0.4567
    7MOL    H24 1836   3.374   7.177   1.355  0.1301  1.0312 -2.6823
    7MOL    H25 1837   3.249   7.261   1.442  1.0389 -0.1843  2.4118
    7MOL    H26 1838   3.409   7.423   1.238 -1.3301  2.1738 -2.3204
    7MOL    H27 1839   3.016   7.631   1.186  0.1540  2.0426 -0.3411
    7MOL    H28 1840   3.140   7.699   1.291 -0.3903 -0.1041  0.5956
    7MOL    H29 1841   3.091   7.865   1.124  1.1922  0.2046  1.8575
    7MOL    H30 1842   3.108   7.750   0.987  0.4407  1.3937 -0.1488
    7MOL    H31 1843   3.245   7.805   1.062 -0.7109  1.6879  0.1183
    7MOL    C32 1844   3.309   7.271   1.129  0.1862  0.1071 -0.3260
    7MOL    C33 1845   3.404   7.301   1.015 -0.0701  0.2820  0.2076
    7MOL    C34 1846   3.377   7.433   0.942  0.0116 -0.1959 -0.0677
    7MOL    O35 1847   3.455   7.528   0.950 -0.0966  0.3400 -0.5698
    7MOL    O36 1848   3.251   7.434   0.875 -0.3228  0.4733  0.0183
    7MOL    C37 1849   3.221   7.545   0.792  0.5034 -0.1682 -0.5946
    7MOL    C38 1850   3.065   7.550   0.774  0.3888  0.4208  0.7147
    7MOL    H39 1851   3.320   7.165   1.153 -0.7653  0.5300  2.1143
    7MOL    H40 1852   3.211   7.278   1.082 -0.3417 -1.6020  0.4789
    7MOL    H41 1853   3.502   7.321   1.059 -0.0950  0.5531  0.1464
    7MOL    H42 1854   3.251   7.639   0.838 -2.0004 -0.4623  1.7624
    7MOL    H43 1855   3.282   7.547   0.702  2.2778 -2.9652  0.4650
    7MOL    H44 1856   3.039   7.457   0.723  1.4906  0.4768  0.0324
    7MOL    H45 1857   3.032   7.627   0.704 -1.3081 -0.8012  0.1113
    7MOL    H46 1858   3.014   7.565   0.869  3.0612  0.7282  2.1439
    7MOL    C47 1859   3.421   7.181   0.918 -0.5834  0.1499  0.0263
    7MOL    C48 1860   3.548   7.167   0.830  0.6643 -0.1866  0.3925
    7MOL    C49 1861   3.679   7.135   0.915 -0.5585  0.2661  0.5096
    7MOL    O50 1862   3.755   7.037   0.889  0.2520  0.0866  0.3096
    7MOL    O51 1863   3.704   7.222   1.010 -0.6038  0.7670  0.2444
    7MOL    C52 1864   3.804   7.203   1.109 -0.5988 -0.4170 -0.0833
    7MOL    C53 1865   3.933   7.280   1.059 -0.0374  0.1706 -0.4791
    7MOL    H54 1866   3.431   7.094   0.983 -1.1945  0.7961  1.0007
    7MOL    H55 1867   3.328   7.156   0.867 -0.4849 -1.2647  0.5374
    7MOL    H56 1868   3.525   7.077   0.772 -1.0579  1.7014 -1.9735
    7MOL    H57 1869   3.767   7.230   1.208  0.1537 -0.2551  0.1556
    7MOL    H58 1870   3.836   7.099   1.121 -0.9059 -0.5432 -0.3524
    7MOL    H59 1871   3.910   7.386   1.055 -2.1644 -0.2192  0.5907
    7MOL    H60 1872   3.971   7.247   0.963 -1.6999 -1.3376 -0.6633
    7MOL    H61 1873   4.010   7.275   1.135 -0.5719  0.0338  0.0604
    7MOL    C62 1874   3.578   7.293   0.733 -0.0013  0.0188 -0.5256
    7MOL    C63 1875   3.639   7.250   0.588  0.5215 -0.5294 -0.6569
    7MOL    C64 1876   3.549   7.155   0.515  0.5335 -1.2456  0.1726
    7MOL    O65 1877   3.582   7.044   0.493 -0.6012  0.0386  0.4941
    7MOL    O66 1878   3.435   7.214   0.475  0.2736  0.1144 -0.1382
    7MOL    C67 1879   3.323   7.139   0.433  0.1169 -0.3449  0.2963
    7MOL    C68 1880   3.191   7.200   0.480 -0.1111 -0.3988 -0.0486
    7MOL    H69 1881   3.478   7.329   0.710 -0.1027  0.0998  0.0501
    7MOL    H70 1882   3.635   7.372   0.783 -0.6886  0.5495 -0.5725
    7MOL    H71 1883   3.629   7.348   0.540  4.2054 -0.7818 -2.0933
    7MOL    H72 1884   3.322   7.110   0.328 -0.3713 -0.4135  0.3151
    7MOL    H73 1885   3.333   7.044   0.486  0.6881  0.0853  0.9612
    7MOL    H74 1886   3.187   7.216   0.588 -0.8329 -0.7681 -0.0211
    7MOL    H75 1887   3.114   7.123   0.474  0.6307 -1.0044 -2.2222
    7MOL    H76 1888   3.176   7.300   0.439 -1.0517 -0.3571  0.3952
    7MOL    C77 1889   3.791   7.206   0.585 -0.3667  0.4266  0.2342
    7MOL    C78 1890   3.895   7.320   0.626 -0.6450  0.4852  0.1248
    7MOL    C79 1891   3.897   7.442   0.527  0.0306  0.4066 -0.8482
    7MOL    O80 1892   3.814   7.446   0.437 -0.1225  0.3463 -0.1566
    7MOL    O81 1893   3.990   7.531   0.548  0.7017  0.0185 -0.1023
    7MOL    C82 1894   4.010   7.640   0.453  0.1589  0.4511  0.0514
    7MOL    C83 1895   4.086   7.752   0.527 -0.3508 -0.4204 -0.4935
    7MOL    H84 1896   3.805   7.123   0.654  0.0894 -0.6378 -1.1201
    7MOL    H85 1897   3.823   7.164   0.490 -1.6716 -0.1411  0.0293
    7MOL    H86 1898   3.862   7.364   0.720  2.2422 -0.0179  1.4515
    7MOL    H87 1899   4.063   7.604   0.365  0.0896  0.5125 -0.0160
    7MOL    H88 1900   3.911   7.672   0.421  0.0642  0.8792  0.7524
    7MOL    H89 1901   4.188   7.719   0.549 -0.7936 -1.4054  0.1054
    7MOL    H90 1902   4.034   7.778   0.619  1.0659 -0.7650  0.4241
    7MOL    H91 1903   4.086   7.842   0.465 -0.7105  1.3124  1.9728
    7MOL    C92 1904   4.037   7.263   0.664  0.3495 -1.1922 -0.2628
    7MOL    C93 1905   4.139   7.238   0.554 -0.0225 -1.1164 -0.3717
    7MOL    C94 1906   4.095   7.128   0.465  0.1343 -0.0773  0.1132
    7MOL    O95 1907   4.082   7.141   0.343 -0.0514  0.1331 -0.3457
    7MOL    O96 1908   4.068   7.013   0.535  0.2653  0.0731 -0.5826
    7MOL    C97 1909   4.015   6.900   0.473 -0.2978 -0.4682 -0.4977
    7MOL    C98 1910   3.883   6.859   0.537 -0.1790 -0.3869 -0.4978
    7MOL    H99 1911   4.081   7.340   0.728  2.1766 -1.2261 -1.4463
    7MOL   H100 1912   4.021   7.179   0.731 -1.5810 -1.9970 -1.6915
    7MOL   H101 1913   4.144   7.333   0.500 -0.7779  0.0856  1.6357
    7MOL   H102 1914   3.995   6.916   0.367 -1.3823  1.7071  0.0180
    7MOL   H103 1915   4.081   6.814   0.487  2.1699  1.7788  2.0162
    7MOL   H104 1916   3.883   6.858   0.646 -0.7058 -1.4951 -0.4989
    7MOL   H105 1917   3.865   6.756   0.508  0.5420  0.0101 -2.4182
    7MOL   H106 1918   3.797   6.916   0.503 -0.5130 -0.4520  0.2187
    7MOL   C107 1919   4.277   7.214   0.616  0.2037  0.9516 -0.0628
    7MOL   C108 1920   4.391   7.198   0.516 -0.3802 -0.0842 -0.7860
    7MOL   C109 1921   4.519   7.148   0.577  0.3099  0.6968  0.2215
    7MOL   O110 1922   4.567   7.201   0.672  0.1367  0.2112  0.2164
    7MOL   O111 1923   4.578   7.052   0.509 -0.2122  0.0741 -0.2991
    7MOL   C112 1924   4.707   7.010   0.548 -0.8693  0.8630  0.6558
    7MOL   C113 1925   4.768   6.912   0.448 -0.2191  0.1190  0.0808
    7MOL   H114 1926   4.309   7.302   0.673 -2.2942 -0.1064  3.1571
    7MOL   H115 1927   4.278   7.140   0.697 -0.4496  0.3659 -0.5854
    7MOL   H116 1928   4.365   7.127   0.438  0.1878  1.0181 -2.0090
    7MOL   H117 1929   4.770   7.099   0.548  0.3932 -0.0034 -0.7157
    7MOL   H118 1930   4.707   6.977   0.652  1.0566  1.4554  0.8737
    7MOL   H119 1931   4.755   6.939   0.343  0.6984 -1.7034 -0.5195
    7MOL   H120 1932   4.717   6.816   0.455 -1.7498  0.8949 -0.0809
    7MOL   H121 1933   4.871   6.889   0.476  0.0228  0.2080 -0.7293
    7MOL   C122 1934   4.433   7.331   0.436  0.1195 -0.1055  0.7232
    7MOL   C123 1935   4.440   7.306   0.278  0.0225 -0.0546  0.2855
    7MOL   C124 1936   4.583   7.292   0.238  0.0727 -0.4361 -0.6295
    7MOL   O125 1937   4.620   7.176   0.220  0.4854 -0.6026 -0.0689
    7MOL   O126 1938   4.664   7.406   0.251  0.0406  0.3654  0.0192
    7MOL   C127 1939   4.805   7.393   0.257 -0.2218  0.3819  0.2856
    7MOL   C128 1940   4.868   7.529   0.290 -0.7971 -0.1124 -0.0075
    7MOL   H129 1941   4.349   7.395   0.461 -0.7757 -0.9304 -0.1046
    7MOL   H130 1942   4.527   7.377   0.464  1.6611 -2.3964 -0.5214
    7MOL   H131 1943   4.386   7.212   0.261  0.6782 -0.9320  2.9014
    7MOL   H132 1944   4.832   7.314   0.327 -1.1187 -1.0707 -0.9849
    7MOL   H133 1945   4.846   7.362   0.161 -0.1990  0.5184  0.2512
    7MOL   H134 1946   4.824   7.568   0.382  0.6262  4.0162 -0.9352
    7MOL   H135 1947   4.844   7.595   0.207 -1.0869  0.1208  0.2586
    7MOL   H136 1948   4.974   7.510   0.307 -0.4761  0.8840 -0.8223
    7MOL   C137 1949   4.360   7.418   0.194  0.1917  0.1386 -0.2481
    7MOL   C138 1950   4.321   7.385   0.048  0.7570  0.1859 -0.3907
    7MOL   C139 1951   4.443   7.380   7.857 -0.1792  1.4298 -0.2669
    7MOL   O140 1952   4.485   7.270   7.814  1.0530 -0.9941  0.0915
    7MOL   O141 1953   4.502   7.500   7.844  0.0893 -0.0875  0.4427
    7MOL   C142 1954   4.613   7.516   7.755  0.3366  0.6829 -0.5007
    7MOL   C143 1955   4.742   7.528   7.836 -0.3263  0.2718  0.3779
    7MOL   H144 1956   4.269   7.443   0.249  0.9672  2.0248  0.2394
    7MOL   H145 1957   4.416   7.512   0.194  3.6175 -1.8129  0.2070
    7MOL   H146 1958   4.271   7.288   0.041 -2.1824  1.7819 -2.7367
    7MOL   H147 1959   4.623   7.427   7.693  2.0968  0.6291 -0.1691
    7MOL   H148 1960   4.592   7.603   7.692  1.6844 -0.2992 -2.3544
    7MOL   H149 1961   4.747   7.454   0.008  0.4673  0.6534  0.6885
    7MOL   H150 1962   4.744   7.620   7.894  0.2684 -0.4798  1.5697
    7MOL   H151 1963   4.829   7.527   7.771 -1.3338 -1.2789 -0.9820
    7MOL   C152 1964   4.218   7.487   0.000  0.4232  0.4558  0.1413
    7MOL   C153 1965   4.182   7.498   7.759 -0.2087 -0.2858  0.1101
    7MOL   C154 1966   4.084   7.618   7.740  0.2844  0.1843 -0.2455
    7MOL   O155 1967   4.115   7.702   7.661  0.4277 -0.7801 -0.5584
    7MOL   O156 1968   3.986   7.611   7.823 -0.6598  0.7524 -0.3649
    7MOL   C157 1969   3.892   7.720   7.816  0.2123 -0.9364 -0.2249
    7MOL   C158 1970   3.761   7.661   7.872  0.2847  0.1416 -0.7896
    7MOL   H159 1971   4.124   7.461   0.049 -0.3987  1.8925 -0.6367
    7MOL   H160 1972   4.245   7.584   0.041  3.1070 -0.2201  0.0607
    7MOL   H161 1973   4.269   7.519   7.697  1.8887 -3.1678  1.9847
    7MOL   H162 1974   3.921   7.799   7.885 -1.8320 -0.9699  0.7146
    7MOL   H163 1975   3.868   7.751   7.714 -2.4669 -1.5664  0.1713
    7MOL   H164 1976   3.724   7.580   7.810 -2.1300 -1.2084  2.2683
    7MOL   H165 1977   3.692   7.745   7.867  1.1354  0.8473 -0.7651
    7MOL   H166 1978   3.783   7.627   0.065 -2.3215 -0.3173 -0.3467
    7MOL   C167 1979   4.123   7.364   7.702 -0.4791  0.1397 -0.2732
    7MOL   C168 1980   4.135   7.348   7.545 -0.0892 -0.1327  0.0936
    7MOL   C169 1981   3.993   7.356   7.482 -0.1708  0.2418  0.3822
    7MOL   O170 1982   3.953   7.275   7.398 -0.5714 -0.3113  0.1802
    7MOL   O171 1983   3.919   7.460   7.533  0.0527 -0.1406 -0.3787
    7MOL   C172 1984   3.784   7.470   7.483  0.6015 -0.1897  0.6433
    7MOL   C173 1985   3.780   7.560   7.364  0.3980 -0.0596 -0.7131
    7MOL   H174 1986   4.179   7.282   7.747 -2.5138 -0.6995  0.7957
    7MOL   H175 1987   4.024   7.347   7.743 -0.5751  0.4484 -0.3819
    7MOL   H176 1988   4.194   7.432   7.509  1.9107 -1.9332 -0.9185
    7MOL   H177 1989   3.751   7.380   7.431 -1.4387  1.3143 -0.7351
    7MOL   H178 1990   3.708   7.492   7.558 -0.1456 -0.1908 -0.1159
    7MOL   H179 1991   3.680   7.586   7.331  0.2174 -0.0110 -0.1251
    7MOL   H180 1992   3.842   7.525   7.281 -0.6192 -0.2842 -1.3812
    7MOL   H181 1993   3.812   7.661   7.390 -1.3908  0.6462 -1.2175
    7MOL   C182 1994   4.217   7.232   7.493  0.6126  0.3133 -0.2494
    7MOL   C183 1995   4.368   7.242   7.491 -0.2786 -0.9359  0.0259
    7MOL   C184 1996   4.414   7.358   7.395 -0.1803  0.3235 -0.2400
    7MOL   O185 1997   4.464   7.459   7.443 -0.1704  0.3600 -0.0575
    7MOL   O186 1998   4.377   7.340   7.268 -0.1975  0.0813 -0.1222
    7MOL   C187 1999   4.402   7.443   7.182 -0.3452 -0.3783 -0.4433
    7MOL   C188 2000   4.401   7.404   7.037 -0.5303  0.6436 -0.4429
    7MOL   H189 2001   4.183   7.143   7.546  1.1695  1.0266  1.3489
    7MOL   H190 2002   4.177   7.211   7.394 -3.7580 -0.3056  1.5149
    7MOL   H191 2003   4.403   7.265   7.592 -0.8805 -1.3880  0.3471
    7MOL   H192 2004   4.336   7.527   7.205  1.2988  0.3276  1.8954
    7MOL   H193 2005   4.504   7.475   7.204 -0.3733  0.1860 -1.1269
    7MOL   H194 2006   4.429   7.492   6.979 -1.0216  0.0145 -1.6559
    7MOL   H195 2007   4.297   7.381   7.013 -0.4980 -0.6741  0.5882
    7MOL   H196 2008   4.469   7.320   7.020  0.5562  0.9985  1.8698
    7MOL   C197 2009   4.434   7.108   7.465  0.2028 -0.7012  0.0116
    7MOL   C198 2010   4.590   7.098   7.441 -0.3188  0.4936 -0.2398
    7MOL   C199 2011   4.682   7.155   7.555 -0.3741  0.2623 -0.3011
    7MOL   O200 2012   4.763   7.248   7.531 -0.0927 -0.1639 -0.0309
    7MOL   O201 2013   4.664   7.087   7.670 -0.4878  0.3280  0.3605
    7MOL   C202 2014   4.764   7.102   7.771 -0.2950 -0.4858  1.1655
    7MOL   C203 2015   4.870   6.993   7.739 -0.4621  0.8449 -0.4225
    7MOL   H204 2016   4.410   7.055   7.557  2.0241 -0.8557  0.4226
    7MOL   H205 2017   4.390   7.051   7.383  0.4987 -0.2129 -0.4916
    7MOL   H206 2018   4.601   6.990   7.455  0.7404  0.5036 -0.9434
    7MOL   H207 2019   4.791   7.208   7.770 -2.3131  0.0547 -1.6523
    7MOL   H208 2020   4.726   7.079   7.870  0.7936  1.0762  1.9679
    7MOL   H209 2021   4.922   7.006   7.644 -2.3629 -5.5344 -2.6113
    7MOL   H210 2022   4.826   6.893   7.736  0.8565  0.2165  0.5766
    7MOL   H211 2023   4.952   6.998   7.810  0.3081 -0.0333 -1.2371
    7MOL   C212 2024   4.623   7.133   7.297  0.0915 -0.2795 -0.5087
    7MOL   C213 2025   4.752   7.062   7.238  0.6171  0.3265  0.5576
    7MOL   C214 2026   4.807   7.133   7.118  0.2137 -0.9002 -0.4194
    7MOL   O215 2027   4.919   7.178   7.118  0.7406  0.1360  0.1785
    7MOL   O216 2028   4.726   7.137   7.016 -0.5244 -0.4510 -0.0094
    7MOL   C217 2029   4.754   7.208   6.894  0.6009 -0.8104 -1.0476
    7MOL   C218 2030   4.692   7.136   6.778 -1.2907  0.8019 -0.2136
    7MOL   H219 2031   4.541   7.122   7.225  1.0042 -0.4259 -1.5399
    7MOL   H220 2032   4.639   7.240   7.293 -0.5387 -0.1266  0.8818
    7MOL   H221 2033   4.831   7.058   7.313  0.7129  0.4971  0.4688
    7MOL   H222 2034   4.722   7.312   6.891  2.9740  0.0552  1.4243
    7MOL   H223 2035   4.859   7.204   6.867  0.6589 -0.2303 -0.8986
    7MOL   H224 2036   4.594   7.179   6.758 -1.5016  1.2144  1.5679
    7MOL   H225 2037   4.675   7.029   6.791  0.9816  0.7089  2.4942
    7MOL   H226 2038   4.759   7.155   6.694 -2.2387  0.7389 -0.9859
    7MOL   C227 2039   4.729   6.911   7.213 -0.1237  0.2906 -0.4979
    7MOL   C228 2040   4.834   6.805   7.248  1.0953 -0.0434  0.2303
    7MOL   C229 2041   4.951   6.804   7.149  0.4436  0.0682 -0.7762
    7MOL   O230 2042   5.064   6.833   7.190 -0.3902  0.4909  0.2392
    7MOL   O231 2043   4.921   6.771   7.018  0.0077 -0.2693  0.1730
    7MOL   C232 2044   5.021   6.786   6.922 -0.2574  0.8139 -0.4263
    7MOL   C233 2045   4.998   6.905   6.831 -0.0843  0.1700 -0.0760
    7MOL   H234 2046   4.644   6.895   7.280 -0.0461  2.5564  0.1650
    7MOL   H235 2047   4.683   6.887   7.117  0.7620 -0.7648 -0.6739
    7MOL   H236 2048   4.868   6.836   7.347  1.4323  0.9677 -0.1992
    7MOL   H237 2049   5.125   6.791   6.955 -0.0550 -2.3602 -0.3992
    7MOL   H238 2050   5.005   6.692   6.868 -2.5920  3.0954 -3.8869
    7MOL   H239 2051   4.901   6.900   6.781  0.7209  0.5627 -1.7172
    7MOL   H240 2052   5.076   6.918   6.756 -0.1905  0.6288 -0.1072
    7MOL   H241 2053   5.000   7.000   6.883 -2.0801  1.9041 -3.0146
    7MOL   C242 2054   4.777   6.659   7.246 -0.6769  0.0613  0.0975
    7MOL   C243 2055   4.749   6.600   7.389  0.2246  0.1004  0.3969
    7MOL   C244 2056   4.876   6.572   7.472  0.3067 -0.0150 -0.0478
    7MOL   O245 2057   4.960   6.487   7.436 -0.1109 -0.0779  0.9642
    7MOL   O246 2058   4.880   6.643   7.588 -0.2114  0.5469  0.3847
    7MOL   C247 2059   4.965   6.601   7.705 -0.0924 -0.0208  0.0316
    7MOL   C248 2060   5.086   6.694   7.718 -0.0301  0.4192 -0.7605
    7MOL   H249 2061   4.680   6.656   7.196 -0.4544 -1.5149 -0.2754
    7MOL   H250 2062   4.848   6.589   7.201 -0.8390 -0.4014  0.5593
    7MOL   H251 2063   4.700   6.683   7.439  0.2300  0.2997  0.0680
    7MOL   H252 2064   4.903   6.605   7.794  0.9780 -1.7841  0.8798
    7MOL   H253 2065   4.991   6.497   7.685 -2.6565 -0.6880 -0.0019
    7MOL   H254 2066   5.149   6.646   7.793 -1.2629  0.9523  0.6451
    7MOL   H255 2067   5.060   6.795   7.751 -0.9687 -0.1893  0.4271
    7MOL   H256 2068   5.146   6.707   7.629  1.8069  3.1484  0.7869
    7MOL   C257 2069   4.667   6.477   7.370  0.1163  0.1894  0.4692
    7MOL   C258 2070   4.603   6.411   7.494  0.1483 -0.1342 -0.4270
    7MOL   C259 2071   4.566   6.257   7.482  0.0929 -0.4146 -0.1899
    7MOL   O260 2072   4.600   6.193   7.386  0.2869  0.0259 -0.2022
    7MOL   O261 2073   4.512   6.210   7.593 -0.7517 -0.7295  0.3725
    7MOL   C262 2074   4.470   6.080   7.610 -0.5878  0.2653  0.5796
    7MOL   C263 2075   4.324   6.050   7.623 -1.0629 -0.1812  0.2685
    7MOL   H264 2076   4.579   6.512   7.316 -0.4328 -2.2179 -0.2369
    7MOL   H265 2077   4.720   6.406   7.307 -1.9179 -0.0110 -1.0839
    7MOL   H266 2078   4.691   6.396   7.556  1.1753  0.0538 -1.8212
    7MOL   H267 2079   4.515   6.022   7.529  0.6835  0.5845  1.0420
    7MOL   H268 2080   4.517   6.046   7.702  1.0050  1.5863  0.2884
    7MOL   H269 2081   4.286   6.114   7.703 -0.9961  0.8560 -0.5246
    7MOL   H270 2082   4.308   5.948   7.658 -2.1008 -0.7538 -1.8383
    7MOL   H271 2083   4.277   6.067   7.527 -0.4868 -1.6610 -0.2951
    7MOL   C272 2084   4.498   6.505   7.566 -0.1941 -0.1777 -0.6091
    7MOL   C273 2085   4.549   6.578   7.689  0.0319  0.1262 -0.7613
    7MOL   C274 2086   4.579   6.479   7.797 -0.4228  0.1497 -0.0724
    7MOL   O275 2087   4.698   6.446   7.819  0.2663  0.2675 -0.7777
    7MOL   O276 2088   4.466   6.429   7.859  0.0946  0.5327  0.2211
    7MOL   C277 2089   4.486   6.345   0.067  0.1083  0.2418  0.1765
    7MOL   C278 2090   4.509   6.423   0.203 -0.3714  0.8797  0.3640
    7MOL   H279 2091   4.450   6.573   7.496 -0.5990 -0.1685 -0.3189
    7MOL   H280 2092   4.421   6.439   7.606  1.8958 -2.2012  0.1937
    7MOL   H281 2093   4.643   6.625   7.659  0.0179  1.2930  0.9675
    7MOL   H282 2094   4.398   6.283   0.085  2.2893 -2.7259  0.9164
    7MOL   H283 2095   4.567   6.274   0.052 -0.6925 -0.4381 -0.9869
    7MOL   H284 2096   4.602   6.480   0.191 -0.4735  1.0370  0.3172
    7MOL   H285 2097   4.513   6.350   0.283 -1.3191 -1.0082 -1.2629
    7MOL   H286 2098   4.422   6.485   0.224 -0.7415  0.5016 -0.0433
    7MOL   C287 2099   4.464   6.700   7.738 -0.3745 -0.0399  0.2016
    7MOL   C288 2100   4.536   6.819   7.799  0.2555 -0.3357  0.0194
    7MOL   C289 2101   4.563   6.808   0.043 -0.2620  0.5064  0.1074
    7MOL   O290 2102   4.671   6.759   0.080 -0.6019 -0.2219 -0.3324
    7MOL   O291 2103   4.467   6.856   0.116 -0.1243 -0.4590  0.0385
    7MOL   C292 2104   4.483   6.867   0.258  0.0940 -0.1139 -0.2759
    7MOL   C293 2105   4.352   6.825   0.335 -0.3926  0.0620 -0.1728
    7MOL   H294 2106   4.406   6.744   7.657  2.7899  2.6667 -0.7254
    7MOL   H295 2107   4.387   6.666   7.806 -0.3940  0.7328  0.5745
    7MOL   H296 2108   4.634   6.832   7.753  0.5988  0.1846  0.8821
    7MOL   H297 2109   4.569   6.808   0.288  0.9500  0.5549 -1.3265
    7MOL   H298 2110   4.507   6.972   0.278 -0.6517 -0.0645  0.3815
    7MOL   H299 2111   4.263   6.882   0.309 -0.9574  0.5405  2.6274
    7MOL   H300 2112   4.367   6.851   0.440  2.8056  1.4452 -0.9128
    7MOL   H301 2113   4.336   6.719   0.316 -1.9744  0.4764 -1.1844
    7MOL   H302 2114   4.490   6.916   7.784 -1.7800 -1.6988 -2.8118
    8MOL     C1 2115   0.292   0.704   1.732 -0.3409 -0.3867  0.4398
    8MOL     C2 2116   0.377   0.729   1.607 -0.1581  0.0240 -0.4065
    8MOL     C3 2117   0.303   0.717   1.481  0.0502  0.1132  1.0665
    8MOL     O4 2118   0.265   0.822   1.428 -0.0717 -0.5525 -0.2156
    8MOL     O5 2119   0.265   0.593   1.449 -0.4425 -0.3354 -0.1131
    8MOL     C6 2120   0.199   0.567   1.325 -0.2792 -0.1940  0.3577
    8MOL     C7 2121   0.246   0.430   1.280 -0.2176 -0.6155  0.0087
    8MOL     H8 2122   0.352   0.709   1.823  0.1968 -0.1784  0.0791
    8MOL     H9 2123   0.239   0.609   1.723 -0.7047 -0.0008 -1.8327
    8MOL    H10 2124   0.399   0.834   1.628 -0.1167 -0.1931  0.6184
    8MOL    H11 2125   0.093   0.585   1.344  0.2156  2.1668  1.0257
    8MOL    H12 2126   0.226   0.644   1.252 -1.9405  0.6863  0.6570
    8MOL    H13 2127   0.349   0.438   1.246  0.4576 -0.8464  1.9479
    8MOL    H14 2128   0.197   0.380   1.197 -1.2807 -0.4907  0.5488
    8MOL    H15 2129   0.245   0.355   1.360 -1.1076  1.5830  2.1046
    8MOL    H16 2130   0.210   0.774   1.720 -0.0981 -0.2687 -0.5467
    8MOL    C17 2131   0.510   0.650   1.608  0.3171  0.3576 -0.4128
    8MOL    C18 2132   0.612   0.683   1.725  0.2930 -0.0365  0.2750
    8MOL    C19 2133   0.701   0.801   1.682  0.3671 -0.4209  0.1455
    8MOL    O20 2134   0.788   0.783   1.600 -0.3413 -0.5268 -0.0733
    8MOL    O21 2135   0.676   0.916   1.758  0.4052  0.0940 -0.3817
    8MOL    C22 2136   0.771   1.023   1.780  0.3656 -1.3308  1.5007
    8MOL    C23 2137   0.868   0.989   1.895  0.8407  0.0417  0.5068
    8MOL    H24 2138   0.491   0.543   1.620  2.5655 -0.3199 -2.4162
    8MOL    H25 2139   0.552   0.662   1.508  0.4480  1.0187 -0.2822
    8MOL    H26 2140   0.562   0.703   1.820  2.9209  2.1054  1.2477
    8MOL    H27 2141   0.815   1.037   1.681 -0.2789  1.0106  1.5059
    8MOL    H28 2142   0.710   1.111   1.801 -0.0966 -0.9684 -1.1722
    8MOL    H29 2143   0.822   0.986   1.994 -1.8092 -0.6006 -0.6928
    8MOL    H30 2144   0.951   1.059   1.899  1.8733 -1.1652  0.7467
    8MOL    H31 2145   0.898   0.885   1.881  0.6510  0.3555 -2.6324
    8MOL    C32 2146   0.704   0.564   1.753  0.8382 -0.1088  0.3880
    8MOL    C33 2147   0.645   0.439   1.817 -0.0228 -0.3814  0.6687
    8MOL    C34 2148   0.563   0.458   1.947 -0.0951 -0.0889  0.3968
    8MOL    O35 2149   0.443   0.428   1.962  0.4855 -0.6754 -0.3020
    8MOL    O36 2150   0.637   0.514   2.039  0.5794  0.1614  0.5860
    8MOL    C37 2151   0.590   0.543   2.167 -0.8913 -0.0855 -0.1209
    8MOL    C38 2152   0.648   0.440   2.260  0.7573  0.2738  0.3393
    8MOL    H39 2153   0.741   0.526   1.657  0.9295 -0.0040  0.3823
    8MOL    H40 2154   0.793   0.597   1.806 -1.0164  2.4395  2.0021
    8MOL    H41 2155   0.573   0.395   1.748  0.8389 -0.3265 -0.2855
    8MOL    H42 2156   0.625   0.639   2.204  0.6943 -0.1959 -1.3000
    8MOL    H43 2157   0.481   0.539   2.172 -0.7662 -1.5405  2.0887
    8MOL    H44 2158   0.633   0.456   2.367  1.5324 -1.1383  0.6696
    8MOL    H45 2159   0.755   0.425   2.245  0.7745 -0.9923  1.6020
    8MOL    H46 2160   0.599   0.346   2.236  0.5595  0.4859 -0.0800
    8MOL    C47 2161   0.759   0.333   1.835 -0.1773 -0.7758  0.0613
    8MOL    C48 2162   0.739   0.196   1.885 -0.2348  1.0179  0.1500
    8MOL    C49 2163   0.619   0.122   1.825  0.1865 -0.6557 -0.2734
    8MOL    O50 2164   0.520   0.097   1.892  0.4564 -0.0914  0.3897
    8MOL    O51 2165   0.637   0.115   1.691 -0.5364  0.2030 -0.6063
    8MOL    C52 2166   0.535   0.072   1.598 -0.1318 -0.3682 -0.5426
    8MOL    C53 2167   0.489   0.196   1.526 -0.1389 -0.4852  0.8241
    8MOL    H54 2168   0.806   0.309   1.740  0.7618  0.5435  0.1839
    8MOL    H55 2169   0.849   0.373   1.882  0.6668 -4.3881  1.6672
    8MOL    H56 2170   0.821   0.139   1.843  0.3847 -0.4693  3.2021
    8MOL    H57 2171   0.583   7.899   1.544  1.9973  0.6275 -0.1820
    8MOL    H58 2172   0.451   0.023   1.647 -0.2781 -1.4130 -1.8011
    8MOL    H59 2173   0.458   0.264   1.605 -0.4761 -0.1982  0.4457
    8MOL    H60 2174   0.403   0.172   1.463  0.8385  1.4561 -1.3178
    8MOL    H61 2175   0.559   0.239   1.455 -0.9548 -1.3823 -0.5403
    8MOL    C62 2176   0.762   0.184   2.035 -0.4223 -0.0590 -0.8347
    8MOL    C63 2177   0.902   0.224   2.096  0.2129 -0.8481 -0.0298
    8MOL    C64 2178   1.013   0.182   1.994 -0.7073  0.1276  0.0635
    8MOL    O65 2179   1.107   0.252   1.958  0.4124  0.1818  0.2516
    8MOL    O66 2180   0.999   0.052   1.954  0.5378 -0.4228 -0.4530
    8MOL    C67 2181   1.091   7.898   1.869  0.2226  0.4439 -0.5518
    8MOL    C68 2182   1.050   7.761   1.818 -0.0324  0.3751 -0.1872
    8MOL    H69 2183   0.690   0.242   2.092  0.2467 -0.0711  0.0269
    8MOL    H70 2184   0.748   0.079   2.063  1.3428  0.0037  0.3270
    8MOL    H71 2185   0.886   0.332   2.105  0.0698 -0.9083  0.4993
    8MOL    H72 2186   1.112   0.059   1.788  0.5412 -0.0117 -0.8591
    8MOL    H73 2187   1.185   7.887   1.923 -0.0433  0.4801 -0.0768
    8MOL    H74 2188   0.953   7.767   1.769  0.7678  0.9013 -1.7325
    8MOL    H75 2189   1.052   7.685   1.896 -0.2243  0.0792 -0.4695
    8MOL    H76 2190   1.126   7.719   1.752  0.1178  1.9011 -1.0070
    8MOL    C77 2191   0.923   0.174   2.243  0.1581 -0.3279  0.0426
    8MOL    C78 2192   1.041   0.240   2.318 -0.0014  0.5371  0.4296
    8MOL    C79 2193   1.159   0.134   2.322 -0.4047  0.1132  0.0188
    8MOL    O80 2194   1.144   0.010   2.336 -0.2915 -0.2028  0.4637
    8MOL    O81 2195   1.279   0.193   2.312  0.1930  0.2963 -0.4495
    8MOL    C82 2196   1.394   0.114   2.339  0.2706 -0.2860  0.2927
    8MOL    C83 2197   1.455   0.037   2.229  0.8735  0.4903 -0.2200
    8MOL    H84 2198   0.833   0.192   2.302 -0.6929  2.4139 -1.9974
    8MOL    H85 2199   0.940   0.067   2.239  0.9910 -0.1972 -0.0405
    8MOL    H86 2200   1.084   0.321   2.259  1.3413 -0.9895 -0.7500
    8MOL    H87 2201   1.469   0.186   2.374  0.8442 -0.4429 -0.5966
    8MOL    H88 2202   1.377   0.040   2.417  1.7783  1.2064  2.1345
    8MOL    H89 2203   1.374   7.897   2.173  0.1926  2.1146 -0.6634
    8MOL    H90 2204   1.519   7.858   2.245  0.8658  0.4944 -0.1723
    8MOL    H91 2205   1.501   0.108   2.160 -0.5305  0.7052 -0.9624
    8MOL    C92 2206   1.006   0.301   2.456  0.5525  1.0861 -0.2625
    8MOL    C93 2207   1.105   0.400   2.526  0.4781 -0.6108 -0.2255
    8MOL    C94 2208   1.223   0.329   2.599  0.2391  1.0013  0.1191
    8MOL    O95 2209   1.332   0.351   2.560  0.5025 -0.2082  0.9825
    8MOL    O96 2210   1.186   0.246   2.695  0.4941 -0.2739  0.2673
    8MOL    C97 2211   1.280   0.175   2.770  0.3664  1.0416  0.8362
    8MOL    C98 2212   1.261   0.235   2.918 -0.3040 -0.2118 -1.0425
    8MOL    H99 2213   0.907   0.346   2.455  1.0626  2.2805  0.8311
    8MOL   H100 2214   0.978   0.214   2.517 -0.0065 -0.0958 -2.1787
    8MOL   H101 2215   1.147   0.477   2.461  3.5148 -1.3307  0.8081
    8MOL   H102 2216   1.266   0.067   2.773 -0.9698  1.2258  1.2343
    8MOL   H103 2217   1.380   0.209   2.743  0.3277  0.2458 -0.3499
    8MOL   H104 2218   1.334   0.191   2.985 -1.8510  2.0350  2.2682
    8MOL   H105 2219   1.163   0.228   2.966  0.5184  0.4302  0.7988
    8MOL   H106 2220   1.283   0.342   2.921  1.7239 -0.5957 -1.8700
    8MOL   C107 2221   1.029   0.478   2.643  0.0685 -0.1758 -0.8879
    8MOL   C108 2222   0.921   0.577   2.599 -0.0988 -0.4138  0.6732
    8MOL   C109 2223   0.987   0.693   2.523 -0.7325 -1.0293  0.5445
    8MOL   O110 2224   0.954   0.718   2.407  0.0128 -0.2049 -0.0247
    8MOL   O111 2225   1.081   0.759   2.594  0.4832 -0.4453  0.4449
    8MOL   C112 2226   1.162   0.848   2.517  0.0184 -0.2320  0.1430
    8MOL   C113 2227   1.192   0.969   2.606  0.2758 -0.8450  0.4683
    8MOL   H114 2228   0.962   0.412   2.698  0.4093 -0.3583 -0.6880
    8MOL   H115 2229   1.089   0.531   2.717  1.5988 -0.4432 -1.9114
    8MOL   H116 2230   0.855   0.515   2.539  0.5585 -2.5656  2.0987
    8MOL   H117 2231   1.249   0.798   2.474 -0.6431 -0.9092 -0.4121
    8MOL   H118 2232   1.112   0.874   2.424  1.5104 -3.5255 -1.6477
    8MOL   H119 2233   1.251   1.041   2.551 -0.2812 -0.5853  0.2023
    8MOL   H120 2234   1.236   0.931   2.698  1.0350  0.4799  0.6534
    8MOL   H121 2235   1.100   1.021   2.632  0.6571 -0.4440  1.0133
    8MOL   C122 2236   0.829   0.625   2.712  0.6698  0.0023  0.6782
    8MOL   C123 2237   0.716   0.724   2.686 -0.3202 -0.0340 -0.2682
    8MOL   C124 2238   0.655   0.782   2.813 -0.7329  0.0856 -0.7394
    8MOL   O125 2239   0.635   0.714   2.912  0.3112 -0.2039  0.0985
    8MOL   O126 2240   0.628   0.909   2.801 -0.2192  0.2357 -0.0838
    8MOL   C127 2241   0.543   0.977   2.894  0.4421  0.5819 -0.1665
    8MOL   C128 2242   0.525   1.116   2.846  0.0077 -0.0930  0.0846
    8MOL   H129 2243   0.779   0.536   2.749  1.6677  0.0991  2.3046
    8MOL   H130 2244   0.891   0.662   2.794 -1.5563 -0.4795  2.6430
    8MOL   H131 2245   0.756   0.809   2.630 -0.1039 -0.0718 -0.1720
    8MOL   H132 2246   0.451   0.919   2.906  0.3545  0.9835  1.0969
    8MOL   H133 2247   0.590   0.969   2.992 -0.2309  0.3445  0.1411
    8MOL   H134 2248   0.466   1.104   2.756 -0.1010 -1.1743  0.2870
    8MOL   H135 2249   0.617   1.160   2.808  0.6143 -1.4826 -0.0847
    8MOL   H136 2250   0.482   1.190   2.914 -0.4164  0.9812 -1.3306
    8MOL   C137 2251   0.609   0.645   2.605 -0.8416  0.3006 -0.3874
    8MOL   C138 2252   0.479   0.726   2.564  0.5368 -0.2998 -0.1751
    8MOL   C139 2253   0.361   0.622   2.545  0.2511 -0.5888 -0.5431
    8MOL   O140 2254   0.265   0.622   2.620  0.0296  0.7221  0.6368
    8MOL   O141 2255   0.380   0.537   2.436 -0.8140 -0.4572  0.6105
    8MOL   C142 2256   0.299   0.425   2.426 -0.4828  0.5572  0.0217
    8MOL   C143 2257   0.368   0.299   2.491 -0.3730  0.4766 -0.2890
    8MOL   H144 2258   0.647   0.607   2.510 -0.6062 -1.6339  0.4752
    8MOL   H145 2259   0.582   0.556   2.661  0.7280  0.9734  1.4564
    8MOL   H146 2260   0.455   0.790   2.649  0.0916 -0.9031  0.1580
    8MOL   H147 2261   0.208   0.449   2.481 -0.2130  0.1359  0.6588
    8MOL   H148 2262   0.265   0.405   2.324  0.1463 -1.6350  0.2199
    8MOL   H149 2263   0.308   0.210   2.509  1.4712 -0.5313  1.0121
    8MOL   H150 2264   0.404   0.337   2.587 -0.0630 -1.3707  0.3512
    8MOL   H151 2265   0.443   0.264   2.420 -0.0877  2.8065 -1.2052
    8MOL   C152 2266   0.509   0.806   2.440  0.5265  0.5828  0.3304
    8MOL   C153 2267   0.418   0.931   2.421 -0.3052 -0.1760  0.1810
    8MOL   C154 2268   0.276   0.902   2.378  0.1249 -0.5075 -0.0113
    8MOL   O155 2269   0.184   0.936   2.452  0.3050 -0.6852 -0.3166
    8MOL   O156 2270   0.266   0.838   2.259  0.4018  0.6131  0.2381
    8MOL   C157 2271   0.135   0.806   2.210 -0.2929  0.5100 -0.1564
    8MOL   C158 2272   0.153   0.738   2.069  0.2852 -0.2422  0.1522
    8MOL   H159 2273   0.611   0.836   2.461  1.2616 -1.6658  0.1281
    8MOL   H160 2274   0.506   0.744   2.350  2.7962  0.3601  0.3894
    8MOL   H161 2275   0.400   0.979   2.517 -1.1168  0.7688 -0.4459
    8MOL   H162 2276   0.072   0.740   2.270 -0.9581  0.0031 -1.4021
    8MOL   H163 2277   0.083   0.901   2.204  1.0049  1.1817 -0.9171
    8MOL   H164 2278   0.252   0.758   2.027 -1.3245  2.7288 -2.4253
    8MOL   H165 2279   0.072   0.763   2.001  1.6950  0.7697 -1.1937
    8MOL   H166 2280   0.157   0.630   2.080 -0.3457 -0.2453  0.3846
    8MOL   C167 2281   0.491   1.035   2.327  0.4538  0.8522 -0.4237
    8MOL   C168 2282   0.409   1.175   2.313 -0.6073  0.5284 -0.1479
    8MOL   C169 2283   0.464   1.261   2.205 -0.6814 -0.1619 -0.2570
    8MOL   O170 2284   0.399   1.308   2.111  0.1963  0.2956 -0.1595
    8MOL   O171 2285   0.597   1.287   2.233 -0.5955  0.3626  0.5249
    8MOL   C172 2286   0.671   1.383   2.164  0.7873  0.2976  0.1773
    8MOL   C173 2287   0.633   1.523   2.228 -0.3289  0.0195  0.0266
    8MOL   H174 2288   0.580   1.065   2.382  1.2135  1.2206 -1.8012
    8MOL   H175 2289   0.534   0.989   2.237 -2.5705 -0.4530 -1.2685
    8MOL   H176 2290   0.309   1.155   2.276 -1.3471  0.1596  1.9650
    8MOL   H177 2291   0.776   1.355   2.157  1.2474  1.7912  0.9978
    8MOL   H178 2292   0.634   1.397   2.062 -0.1496 -1.0027  0.3240
    8MOL   H179 2293   0.533   1.552   2.196 -0.5450 -0.4358  0.2766
    8MOL   H180 2294   0.699   1.602   2.193  0.2199 -0.2133  0.5356
    8MOL   H181 2295   0.633   1.522   2.337  0.3247  0.3303  0.0312
    8MOL   C182 2296   0.389   1.246   2.453 -0.5829 -0.0973  0.2588
    8MOL   C183 2297   0.282   1.366   2.455 -0.0332 -0.3342  0.0641
    8MOL   C184 2298   0.357   1.501   2.457 -0.0388 -0.6571 -0.9432
    8MOL   O185 2299   0.345   1.577   2.363 -0.4099  0.4740  0.3044
    8MOL   O186 2300   0.423   1.525   2.565 -0.0284 -0.3210  0.2457
    8MOL   C187 2301   0.454   1.665   2.586 -0.1502  0.3898  0.1378
    8MOL   C188 2302   0.521   1.668   2.718 -0.9435 -0.1429 -0.5071
    8MOL   H189 2303   0.336   1.176   2.519 -0.8937 -0.0444  0.0667
    8MOL   H190 2304   0.483   1.282   2.494  0.6966 -1.2684 -1.5653
    8MOL   H191 2305   0.240   1.388   2.357  0.0415  0.1429  0.1381
    8MOL   H192 2306   0.526   1.696   2.510 -0.1263  1.3727  0.5523
    8MOL   H193 2307   0.367   1.730   2.574 -1.2212 -0.5250  2.6658
    8MOL   H194 2308   0.611   1.606   2.711  1.2415  2.9906 -1.4631
    8MOL   H195 2309   0.457   1.633   2.799 -1.1663  3.1683  0.7978
    8MOL   H196 2310   0.556   1.769   2.737 -2.1176  0.2346 -0.3871
    8MOL   C197 2311   0.181   1.364   2.573 -0.8411  0.1291  0.3358
    8MOL   C198 2312   0.082   1.249   2.579  0.6971 -0.1735 -0.8373
    8MOL   C199 2313   7.893   1.247   2.456  0.1150  0.1330 -0.2636
    8MOL   O200 2314   7.874   1.347   2.388  0.0967  0.1545  0.2001
    8MOL   O201 2315   7.826   1.132   2.446  0.0320  0.6929 -0.4476
    8MOL   C202 2316   7.713   1.119   2.361 -0.0644  0.0984  0.1966
    8MOL   C203 2317   7.752   1.061   2.222 -0.6007 -0.2405  0.5275
    8MOL   H204 2318   0.236   1.368   2.667 -2.0671  0.1011  1.0751
    8MOL   H205 2319   0.124   1.457   2.570  2.0851  1.9513  0.0257
    8MOL   H206 2320   0.142   1.159   2.565  1.6401  0.4213 -0.6853
    8MOL   H207 2321   7.638   1.051   2.402  1.2898  0.2693  3.0852
    8MOL   H208 2322   7.659   1.212   2.346  2.3270  1.2863 -1.2498
    8MOL   H209 2323   7.773   0.954   2.231  2.5408  0.0865 -2.1425
    8MOL   H210 2324   7.832   1.117   2.174  1.1393 -1.6829  1.6704
    8MOL   H211 2325   7.666   1.051   2.156 -2.5650 -0.9519  3.1244
    8MOL   C212 2326   0.006   1.239   2.718  0.2301  0.1390 -0.2003
    8MOL   C213 2327   0.072   1.180   2.848  0.1737  0.6595 -0.1303
    8MOL   C214 2328   0.104   1.030   2.831  0.1058 -0.1601  0.3702
    8MOL   O215 2329   0.222   0.995   2.832  0.9467 -0.1954  0.3943
    8MOL   O216 2330   0.000   0.954   2.800 -0.4600  0.3749 -0.2369
    8MOL   C217 2331   0.018   0.825   2.762  0.3604  0.7764  0.2605
    8MOL   C218 2332   7.905   0.739   2.886 -0.1970 -0.5660 -0.9868
    8MOL   H219 2333   7.879   1.342   2.729 -1.7000 -0.2943 -2.0046
    8MOL   H220 2334   7.827   1.176   2.707 -2.0567  3.1775 -0.3204
    8MOL   H221 2335   0.172   1.225   2.856  2.0621 -3.7175  2.5466
    8MOL   H222 2336   7.855   0.790   2.688 -1.8840 -2.3188  3.6846
    8MOL   H223 2337   0.119   0.807   2.725  0.3489  0.3801  0.4155
    8MOL   H224 2338   0.061   0.773   2.966  2.1087  0.1414 -3.0880
    8MOL   H225 2339   0.010   0.633   2.866  2.6146 -0.7520  1.6313
    8MOL   H226 2340   7.800   0.751   2.915 -0.2368 -0.1989 -1.2677
    8MOL   C227 2341   7.905   1.198   2.977  0.0317  0.3290  0.1966
    8MOL   C228 2342   0.063   1.172   3.113  0.4527 -0.1407 -0.0353
    8MOL   C229 2343   0.201   1.242   3.134  0.0280 -0.2725  0.7402
    8MOL   O230 2344   0.301   1.175   3.146  0.1108  0.1038 -0.5105
    8MOL   O231 2345   0.184   1.375   3.131  0.2662 -0.3777  0.3476
    8MOL   C232 2346   0.291   1.465   3.176  0.2122 -0.3950 -0.2263
    8MOL   C233 2347   0.375   1.507   3.052  1.3483  0.1720  0.2370
    8MOL   H234 2348   7.873   1.301   2.988  1.8058  0.9570 -0.4405
    8MOL   H235 2349   7.803   1.159   2.969 -0.4115  1.8778 -2.5046
    8MOL   H236 2350   7.904   1.219   3.184 -0.5225  0.4027 -1.3002
    8MOL   H237 2351   0.240   1.545   3.231 -1.5422 -0.3130 -1.9407
    8MOL   H238 2352   0.354   1.416   3.251  0.4556  1.1651  0.6304
    8MOL   H239 2353   0.461   1.571   3.070  0.5327  0.9667  1.4072
    8MOL   H240 2354   0.306   1.554   2.981  0.0975 -1.7491  0.1225
    8MOL   H241 2355   0.411   1.417   3.002 -3.5217 -1.2806 -0.9399
    8MOL   C242 2356   0.064   1.025   3.143  0.1822 -0.4480 -0.8021
    8MOL   C243 2357   0.062   0.988   3.302  0.4983  0.7034  0.2471
    8MOL   C244 2358   0.198   0.954   3.370 -0.0805  0.0295  0.2011
    8MOL   O245 2359   0.215   0.983   3.487  0.1498  0.1776  0.2411
    8MOL   O246 2360   0.281   0.884   3.299  0.0851  0.1472  0.0488
    8MOL   C247 2361   0.392   0.802   3.348 -0.1826  0.1419 -0.0690
    8MOL   C248 2362   0.466   0.785   3.220  0.4740  0.0031  0.4445
    8MOL   H249 2363   7.879   0.981   3.106 -1.1363  0.5759  1.2302
    8MOL   H250 2364   0.148   0.978   3.092 -0.1610 -0.6304 -1.2044
    8MOL   H251 2365   0.016   1.065   3.363 -1.3054  0.7114 -1.0797
    8MOL   H252 2366   0.446   0.833   3.437 -0.6801  0.4995  0.1104
    8MOL   H253 2367   0.350   0.706   3.378  0.2472 -0.4383 -1.2475
    8MOL   H254 2368   0.503   0.882   3.185 -2.8283 -0.0053 -3.4241
    8MOL   H255 2369   0.403   0.761   3.136  0.6892 -1.5182  0.7079
    8MOL   H256 2370   0.554   0.722   3.233  1.3428  1.2188  0.5387
    8MOL   C257 2371   7.881   0.861   3.306 -0.6135  0.1892 -0.0738
    8MOL   C258 2372   7.731   0.887   3.315  0.2125  0.3625 -0.8174
    8MOL   C259 2373   7.704   0.967   3.449 -0.2789  0.1680  0.7262
    8MOL   O260 2374   7.661   1.078   3.463  0.5030  0.2536 -0.0611
    8MOL   O261 2375   7.751   0.888   3.546 -0.2799 -0.2589  0.1852
    8MOL   C262 2376   7.742   0.927   3.683 -0.5543  0.4386 -0.3767
    8MOL   C263 2377   7.663   0.825   3.758  0.1281 -0.3924 -0.1755
    8MOL   H264 2378   7.900   0.800   3.218  0.5414  2.4090 -1.4455
    8MOL   H265 2379   0.008   0.793   3.383  2.2802  0.8326 -0.7584
    8MOL   H266 2380   7.698   0.950   3.232 -1.4735  0.6434  0.0330
    8MOL   H267 2381   7.843   0.927   3.723 -0.2143  1.4495 -1.2377
    8MOL   H268 2382   7.694   1.022   3.707 -2.8586 -0.7817  0.0285
    8MOL   H269 2383   7.704   0.727   3.733 -0.7949 -1.0627  0.8327
    8MOL   H270 2384   7.561   0.833   3.721  0.0436  1.7537  0.4436
    8MOL   H271 2385   7.663   0.845   3.865  0.7229  1.5690 -0.5206
    8MOL   C272 2386   7.646   0.753   3.333 -0.3691  0.5272 -0.2285
    8MOL   C273 2387   7.638   0.659   3.206 -0.1274 -0.0606  0.3003
    8MOL   C274 2388   7.519   0.705   3.111  0.1844  0.6592 -0.3138
    8MOL   O275 2389   7.409   0.654   3.111  0.8756  0.4872 -0.1302
    8MOL   O276 2390   7.555   0.794   3.024 -0.0203 -0.1237  0.2083
    8MOL   C277 2391   7.468   0.832   2.917 -0.4580  0.1340 -0.4985
    8MOL   C278 2392   7.547   0.890   2.801 -0.2711  0.5629 -0.0465
    8MOL   H279 2393   7.699   0.700   3.412 -1.5185  1.9578  1.5525
    8MOL   H280 2394   7.545   0.772   3.370 -0.3678  1.1837 -0.5494
    8MOL   H281 2395   7.735   0.665   3.157 -0.7780  0.3077 -0.9811
    8MOL   H282 2396   7.405   0.747   2.889 -1.7341  0.7549  0.4127
    8MOL   H283 2397   7.396   0.907   2.950 -1.8491 -0.8000 -1.3189
    8MOL   H284 2398   7.474   0.921   2.726  0.5538 -2.1381 -2.0448
    8MOL   H285 2399   7.614   0.815   2.760  0.7073  0.6742  1.3384
    8MOL   H286 2400   7.612   0.975   2.820  0.3961 -0.1846  1.0762
    8MOL   C287 2401   7.612   0.514   3.251 -0.0490 -0.1020  0.1305
    8MOL   C288 2402   7.728   0.447   3.317 -0.2774 -0.2450  0.1357
    8MOL   C289 2403   7.854   0.451   3.230  0.1069 -0.0412 -0.3747
    8MOL   O290 2404   7.855   0.383   3.130  0.8893  0.4407  0.0815
    8MOL   O291 2405   0.041   0.528   3.273  0.4579 -0.4240  0.5111
    8MOL   C292 2406   0.158   0.539   3.202  0.5593 -0.6566 -0.2350
    8MOL   C293 2407   0.273   0.458   3.263  0.3029 -0.2649  0.4854
    8MOL   H294 2408   7.522   0.505   3.311  0.4743 -1.2206  0.7807
    8MOL   H295 2409   7.585   0.446   3.171 -1.8105  0.2517  0.4182
    8MOL   H296 2410   7.750   0.501   3.409 -2.2496 -0.1515  0.5585
    8MOL   H297 2411   0.152   0.519   3.095 -2.9112  0.1811 -0.2632
    8MOL   H298 2412   0.195   0.641   3.218 -1.0338 -0.0058 -0.6412
    8MOL   H299 2413   0.377   0.484   3.243  0.2586  1.3126  2.1721
    8MOL   H300 2414   0.256   0.353   3.239 -0.3275 -0.6509  2.5244
    8MOL   H301 2415   0.261   0.482   3.369  1.2973 -1.4907  0.8820
    8MOL   H302 2416   7.701   0.349   3.356 -0.9977 -0.4689 -0.9089
    9MOL     C1 2417   0.645   7.691   1.835  0.1619  0.3616 -0.7054
    9MOL     C2 2418   0.534   7.609   1.900 -0.1032  0.6460 -0.6254
    9MOL     C3 2419   0.455   7.701   1.993 -0.4078  0.3435  0.2143
    9MOL     O4 2420   0.340   7.724   1.967  0.3421 -0.8247  0.1215
    9MOL     O5 2421   0.523   7.744   2.103  0.3955  0.5085  0.0341
    9MOL     C6 2422   0.479   7.848   2.190  0.2528 -0.3837 -0.0618
    9MOL     C7 2423   0.537   7.833   2.326  0.3434  0.3260 -0.3638
    9MOL     H8 2424   0.712   7.738   1.906  0.4536  0.4548 -1.0378
    9MOL     H9 2425   0.598   7.763   1.768  1.0808  1.4827 -0.1459
    9MOL    H10 2426   0.480   7.566   1.816  0.0512 -0.8002  0.0072
    9MOL    H11 2427   0.502   0.036   2.144 -1.9897 -0.6641 -1.8892
    9MOL    H12 2428   0.371   7.833   2.193  0.0679  0.8459 -0.3172
    9MOL    H13 2429   0.493   7.907   2.393 -0.0612  0.0280 -0.2976
    9MOL    H14 2430   0.645   7.843   2.333  0.0525  2.7297  1.1257
    9MOL    H15 2431   0.516   7.736   2.371  0.0376  0.3693 -0.4121
    9MOL    H16 2432   0.693   7.625   1.762  1.0000 -1.9596  1.8916
    9MOL    C17 2433   0.598   7.488   1.974 -1.0070  0.0118  0.7894
    9MOL    C18 2434   0.569   7.349   1.923 -0.6093 -0.3545 -0.3252
    9MOL    C19 2435   0.651   7.307   1.798 -0.2951  0.9775 -0.6384
    9MOL    O20 2436   0.727   7.392   1.746 -0.1955  0.6293  0.0000
    9MOL    O21 2437   0.635   7.185   1.763 -0.1665 -0.3173  0.6276
    9MOL    C22 2438   0.669   7.152   1.631 -0.1469 -0.4293  0.2986
    9MOL    C23 2439   0.646   7.006   1.613  0.0170 -0.0103 -0.2541
    9MOL    H24 2440   0.706   7.500   1.975 -0.7423 -2.2078  0.8751
    9MOL    H25 2441   0.574   7.493   2.081 -0.6727 -0.9730  0.9159
    9MOL    H26 2442   0.606   7.280   1.999 -0.1014  0.2902  0.0207
    9MOL    H27 2443   0.599   7.192   1.558 -1.3857 -1.7281  0.7337
    9MOL    H28 2444   0.773   7.179   1.616 -0.0952 -1.0251 -0.4350
    9MOL    H29 2445   0.645   6.980   1.507 -0.7839 -1.5348  0.1172
    9MOL    H30 2446   0.554   6.963   1.652  0.9833 -0.5260  1.5279
    9MOL    H31 2447   0.734   6.950   1.644  1.2746  1.0488 -1.8484
    9MOL    C32 2448   0.419   7.326   1.902 -0.2941  0.4256  0.3282
    9MOL    C33 2449   0.318   7.350   2.018 -0.3829  0.6569  0.8202
    9MOL    C34 2450   0.365   7.289   2.148 -0.0758  0.8566 -0.7029
    9MOL    O35 2451   0.395   7.359   2.245 -0.2937  0.1869 -0.1169
    9MOL    O36 2452   0.366   7.152   2.140 -0.0947 -0.0552 -0.3800
    9MOL    C37 2453   0.407   7.072   2.245 -0.7571  0.0274  0.1231
    9MOL    C38 2454   0.538   7.009   2.203 -0.2219 -0.9059  0.2062
    9MOL    H39 2455   0.394   7.378   1.810  2.0864  2.8662  1.0125
    9MOL    H40 2456   0.405   7.223   1.866 -0.0388  0.8826 -1.1222
    9MOL    H41 2457   0.308   7.459   2.021 -0.7049  0.6084  2.1171
    9MOL    H42 2458   0.430   7.131   2.334 -1.0717  1.8198 -0.9646
    9MOL    H43 2459   0.338   6.989   2.259  1.7314 -2.3467 -1.0499
    9MOL    H44 2460   0.511   6.942   2.122 -1.9646 -1.2579  1.0536
    9MOL    H45 2461   0.598   6.958   2.278 -0.9073 -0.5980  0.9727
    9MOL    H46 2462   0.595   7.084   2.147  1.0884 -2.4617 -0.5792
    9MOL    C47 2463   0.175   7.311   1.976 -0.0318 -0.0646  0.4326
    9MOL    C48 2464   0.067   7.317   2.089  0.2455 -0.5161  0.1381
    9MOL    C49 2465   7.867   7.214   2.058  0.1483 -0.0606  0.3450
    9MOL    O50 2466   7.827   7.121   2.133  0.3883 -0.1722  0.4381
    9MOL    O51 2467   7.816   7.235   1.940  0.0388 -0.4693  0.2368
    9MOL    C52 2468   7.722   7.148   1.882  0.2053 -0.8860 -0.1413
    9MOL    C53 2469   7.708   7.173   1.734 -0.3523 -0.1221 -0.0264
    9MOL    H54 2470   0.160   7.367   1.884 -0.9573 -0.8197  0.1169
    9MOL    H55 2471   0.183   7.208   1.939 -0.8380  0.2513 -0.6455
    9MOL    H56 2472   0.116   7.285   2.181  0.9908  0.1517 -0.0270
    9MOL    H57 2473   7.754   7.045   1.900  0.6687 -0.2793  2.8928
    9MOL    H58 2474   7.629   7.158   1.939  2.0108  2.8490  2.3344
    9MOL    H59 2475   7.633   7.110   1.685 -2.2725  2.1466 -0.1103
    9MOL    H60 2476   7.803   7.159   1.682  0.5218  0.4215  1.3981
    9MOL    H61 2477   7.680   7.276   1.711  0.5654  0.1459  0.0614
    9MOL    C62 2478   0.009   7.460   2.104 -0.3627 -0.1560  0.2639
    9MOL    C63 2479   7.846   7.497   2.241 -0.0551 -0.4443 -0.1864
    9MOL    C64 2480   7.701   7.536   2.209  0.7623  0.2185 -0.2051
    9MOL    O65 2481   7.661   7.649   2.226 -0.3699 -0.2337 -0.3702
    9MOL    O66 2482   7.630   7.435   2.152  0.1613  0.1263  0.0365
    9MOL    C67 2483   7.496   7.451   2.113  0.2050 -0.0944 -0.2033
    9MOL    C68 2484   7.494   7.445   1.961 -0.2018 -1.0450 -0.4921
    9MOL    H69 2485   0.087   7.536   2.093 -1.2949  0.5646 -1.5053
    9MOL    H70 2486   7.858   7.482   2.016  2.1994  1.0394 -1.2212
    9MOL    H71 2487   7.838   7.405   2.299  0.5851 -0.9580 -0.8935
    9MOL    H72 2488   7.437   7.370   2.156 -1.3485  0.6407 -0.9042
    9MOL    H73 2489   7.454   7.546   2.145  0.3686 -0.5223  1.3067
    9MOL    H74 2490   7.503   7.343   1.926 -1.0560 -1.3568  0.1911
    9MOL    H75 2491   7.561   7.519   1.916 -1.1198  0.1526  0.0830
    9MOL    H76 2492   7.392   7.467   1.930 -0.1331 -1.1988 -0.8224
    9MOL    C77 2493   0.018   7.593   2.335 -0.6471  0.0378  0.1289
    9MOL    C78 2494   0.064   7.534   2.467 -0.4420  0.2493 -0.2954
    9MOL    C79 2495   7.861   7.508   2.573  0.5669 -0.0679  0.3176
    9MOL    O80 2496   7.741   7.512   2.545  0.2705  0.3682  0.3742
    9MOL    O81 2497   0.002   7.474   2.688 -0.1439 -0.4992 -0.3432
    9MOL    C82 2498   7.828   7.434   2.801  0.4031  0.4518 -0.4975
    9MOL    C83 2499   7.750   7.553   2.869 -0.2530 -0.6362 -0.5509
    9MOL    H84 2500   0.101   7.628   2.273 -0.4335  1.0912  0.9970
    9MOL    H85 2501   7.879   7.690   2.353  1.7144  1.3210 -0.3397
    9MOL    H86 2502   0.099   7.432   2.450 -2.5889 -0.2136 -2.2181
    9MOL    H87 2503   7.768   7.349   2.768 -0.1400  0.4710  0.4233
    9MOL    H88 2504   7.898   7.396   2.876 -0.0548 -1.5922 -1.0757
    9MOL    H89 2505   7.705   7.625   2.800  0.1530  1.8895  1.7519
    9MOL    H90 2506   7.826   7.606   2.926 -0.8523  1.7402 -1.8901
    9MOL    H91 2507   7.681   7.520   2.945 -0.9150  1.6314 -0.1406
    9MOL    C92 2508   0.187   7.603   2.526 -0.0568 -0.5164 -0.5825
    9MOL    C93 2509   0.174   7.736   2.606  0.4896  0.3870 -0.1563
    9MOL    C94 2510   0.123   7.856   2.514 -0.1678 -0.3644  0.3851
    9MOL    O95 2511   0.148   7.855   2.393 -0.4564  0.0862 -0.3727
    9MOL    O96 2512   0.054   0.042   2.575  0.0160  0.4156  0.0453
    9MOL    C97 2513   7.901   0.148   2.504 -0.3583 -0.0038  0.2215
    9MOL    C98 2514   7.878   0.280   2.583  0.1035 -0.3275 -0.0668
    9MOL    H99 2515   0.246   7.535   2.587  2.1404  0.4303 -1.6340
    9MOL   H100 2516   0.262   7.620   2.450 -1.2248  0.0684 -1.6299
    9MOL   H101 2517   0.098   7.731   2.684  0.1167  1.0905 -0.4715
    9MOL   H102 2518   0.052   0.167   2.415 -1.5864  0.0129 -0.6023
    9MOL   H103 2519   7.803   0.115   2.469 -0.3779 -0.1369  0.4019
    9MOL   H104 2520   7.838   0.252   2.681 -1.3157 -1.0689 -0.8272
    9MOL   H105 2521   7.800   0.337   2.533  1.0835  1.4820  0.4659
    9MOL   H106 2522   0.059   0.339   2.598 -0.3140  0.5051 -0.8261
    9MOL   C107 2523   0.299   7.785   2.680 -0.0650  0.8347 -0.1901
    9MOL   C108 2524   0.335   7.717   2.810  0.0546  0.7685 -0.0399
    9MOL   C109 2525   0.226   7.723   2.919 -0.0949  0.6666 -0.3305
    9MOL   O110 2526   0.171   7.627   2.976 -0.4253  0.7683  0.8177
    9MOL   O111 2527   0.200   7.851   2.938  0.3122  0.3468 -0.3249
    9MOL   C112 2528   0.092   7.897   3.019 -0.0532  0.0129  0.0533
    9MOL   C113 2529   7.890   0.044   2.935  0.6722 -0.4186  0.4376
    9MOL   H114 2530   0.373   7.776   2.601 -0.0923  0.9874 -0.2341
    9MOL   H115 2531   0.288   7.889   2.712  0.9008  0.3883  1.6361
    9MOL   H116 2532   0.370   7.616   2.794 -0.5783  0.3282  1.2995
    9MOL   H117 2533   0.049   7.824   3.087 -0.0678  0.0884  0.1255
    9MOL   H118 2534   0.134   0.071   3.078 -0.3952 -1.3483  2.2603
    9MOL   H119 2535   7.813   0.092   2.996 -2.3168  0.3830 -3.7276
    9MOL   H120 2536   7.845   7.868   2.881  3.6430 -1.3655 -0.6356
    9MOL   H121 2537   0.030   0.102   2.858  1.7040 -1.3037  0.4076
    9MOL   C122 2538   0.465   7.783   2.877  0.3688  0.0693  0.0175
    9MOL   C123 2539   0.598   7.755   2.814  0.0220 -0.4753  0.3701
    9MOL   C124 2540   0.635   7.601   2.817  0.5989 -0.2073 -0.1676
    9MOL   O125 2541   0.713   7.561   2.905 -0.1150  0.0613  0.1008
    9MOL   O126 2542   0.580   7.530   2.713  0.1950 -0.0130  0.3653
    9MOL   C127 2543   0.611   7.398   2.681 -0.0408 -0.3674  0.1965
    9MOL   C128 2544   0.487   7.331   2.612  0.0648 -1.0592 -0.6652
    9MOL   H129 2545   0.448   7.890   2.885 -0.5941 -0.2231  2.5651
    9MOL   H130 2546   0.460   7.742   2.978 -1.7408  0.8152  0.2547
    9MOL   H131 2547   0.584   7.779   2.708  0.4541  0.1651  0.4561
    9MOL   H132 2548   0.700   7.392   2.619 -0.2879 -0.3527 -0.1642
    9MOL   H133 2549   0.638   7.356   2.778 -0.3559  1.9465  1.3170
    9MOL   H134 2550   0.446   7.385   2.526  0.4108 -1.1978 -0.9182
    9MOL   H135 2551   0.418   7.325   2.696 -0.2461 -0.9711 -0.9143
    9MOL   H136 2552   0.499   7.231   2.573 -0.4338 -1.0712 -0.7853
    9MOL   C137 2553   0.710   7.846   2.873  1.0436  0.1777 -0.8388
    9MOL   C138 2554   0.760   0.051   2.784 -0.6885 -0.2983  0.6533
    9MOL   C139 2555   0.865   7.903   2.687 -0.5069 -0.1896  0.7951
    9MOL   O140 2556   0.983   0.007   2.720 -0.6637 -0.2281  0.3511
    9MOL   O141 2557   0.812   7.837   2.586  0.3711  0.3451  0.4928
    9MOL   C142 2558   0.894   7.757   2.495 -0.5376 -0.3841 -0.7924
    9MOL   C143 2559   0.831   7.619   2.457  0.0513 -0.1984  0.7293
    9MOL   H144 2560   0.685   7.877   2.975 -1.3346 -0.4692 -1.1811
    9MOL   H145 2561   0.797   7.785   2.897  0.8013  0.0475 -0.2662
    9MOL   H146 2562   0.679   0.093   2.724  1.0803  2.3610  0.0768
    9MOL   H147 2563   0.908   7.806   2.399  0.1284  0.0929 -0.4546
    9MOL   H148 2564   0.996   7.751   2.535 -0.1882  0.2224 -1.5924
    9MOL   H149 2565   0.757   7.625   2.377 -1.0932  1.6247  1.8788
    9MOL   H150 2566   0.788   7.576   2.548  2.7739  0.9861  2.6514
    9MOL   H151 2567   0.906   7.549   2.421 -0.9904 -0.9516 -0.0153
    9MOL   C152 2568   0.824   0.168   2.855  0.3740 -0.1778 -0.1372
    9MOL   C153 2569   0.730   0.246   2.951 -0.6235 -0.7048 -0.2670
    9MOL   C154 2570   0.612   0.297   2.882 -0.3934 -0.0060  0.4617
    9MOL   O155 2571   0.620   0.335   2.762 -0.3274 -0.3296 -0.6475
    9MOL   O156 2572   0.503   0.299   2.960 -0.4830  0.7763  0.5231
    9MOL   C157 2573   0.385   0.370   2.910 -0.5548 -0.5153 -1.2480
    9MOL   C158 2574   0.283   0.264   2.892 -0.5089 -0.0828  0.2852
    9MOL   H159 2575   0.908   0.133   2.914  0.4161  1.4437  0.8089
    9MOL   H160 2576   0.870   0.238   2.785  0.4971 -0.0981  0.0221
    9MOL   H161 2577   0.703   0.171   3.025 -2.6541  0.3009  0.0334
    9MOL   H162 2578   0.356   0.430   2.997 -1.3850 -2.3931 -0.1914
    9MOL   H163 2579   0.415   0.429   2.824  3.4286  1.7666  1.4962
    9MOL   H164 2580   0.181   0.301   2.887 -1.2701 -1.9789  1.1195
    9MOL   H165 2581   0.289   0.204   2.983  0.6036  0.8806  0.8502
    9MOL   H166 2582   0.307   0.203   2.805  1.0090 -0.9953  1.3092
    9MOL   C167 2583   0.810   0.365   3.012 -0.1032  0.4698  0.2838
    9MOL   C168 2584   0.908   0.335   3.134  0.1747 -0.7546  0.9980
    9MOL   C169 2585   0.834   0.266   3.252  0.6576 -0.0210  0.6582
    9MOL   O170 2586   0.869   0.159   3.294 -0.4560 -0.1145  0.0220
    9MOL   O171 2587   0.735   0.341   3.311  0.4111  0.9689  0.2616
    9MOL   C172 2588   0.669   0.288   3.428  0.4744  0.1883 -0.4373
    9MOL   C173 2589   0.533   0.359   3.455  0.2001  0.3323 -0.2597
    9MOL   H174 2590   0.857   0.429   2.938 -0.9508  0.6639 -0.0837
    9MOL   H175 2591   0.736   0.432   3.055 -0.1417  2.5252 -2.8837
    9MOL   H176 2592   0.988   0.266   3.106  2.4517  1.7890  1.0304
    9MOL   H177 2593   0.657   0.179   3.424 -1.7841  0.4387 -1.3522
    9MOL   H178 2594   0.732   0.310   3.514 -0.5887  1.2179  0.0977
    9MOL   H179 2595   0.531   0.467   3.446  3.1722  0.4007 -0.4941
    9MOL   H180 2596   0.487   0.340   3.552  0.6759  1.3212  0.1611
    9MOL   H181 2597   0.457   0.329   3.382 -0.3090 -1.0967  0.8221
    9MOL   C182 2598   0.970   0.475   3.181 -0.2443  0.1139 -0.3070
    9MOL   C183 2599   1.065   0.473   3.300 -0.0240  0.1961 -0.4842
    9MOL   C184 2600   0.982   0.492   3.426 -0.1788  0.1292 -0.0864
    9MOL   O185 2601   1.008   0.419   3.522  0.1493 -0.9990  0.1239
    9MOL   O186 2602   0.892   0.594   3.421  0.1010  0.0168 -0.0350
    9MOL   C187 2603   0.805   0.614   3.525  0.0794 -0.0151  0.6292
    9MOL   C188 2604   0.747   0.752   3.502  0.0043 -0.0350 -0.1859
    9MOL   H189 2605   1.022   0.524   3.099  1.9868 -0.7510  0.5478
    9MOL   H190 2606   0.885   0.542   3.196  1.3639  1.1752  4.9798
    9MOL   H191 2607   1.102   0.370   3.303  0.9258  0.4989 -1.5097
    9MOL   H192 2608   0.731   0.533   3.529 -0.9475  0.8421 -0.6461
    9MOL   H193 2609   0.867   0.608   3.615  0.1911  1.8324  0.6962
    9MOL   H194 2610   0.680   0.767   3.418 -2.2096 -0.5135  1.4646
    9MOL   H195 2611   0.830   0.823   3.496  0.7437 -0.8179  0.5221
    9MOL   H196 2612   0.684   0.777   3.588 -1.8056 -0.9880 -1.2060
    9MOL   C197 2613   1.182   0.578   3.288  0.2877  0.1681  0.4624
    9MOL   C198 2614   1.304   0.544   3.205 -0.0214  0.0479  0.7624
    9MOL   C199 2615   1.377   0.431   3.283  0.5631 -0.3659 -0.1229
    9MOL   O200 2616   1.461   0.449   3.375 -0.3824  0.6985  0.1715
    9MOL   O201 2617   1.333   0.307   3.245 -0.4094  0.1208  0.4590
    9MOL   C202 2618   1.385   0.196   3.309  0.2518 -0.8020  0.0062
    9MOL   C203 2619   1.277   0.088   3.286  0.5191  0.4278 -0.0034
    9MOL   H204 2620   1.140   0.667   3.240  2.8170 -0.2827 -2.7619
    9MOL   H205 2621   1.206   0.622   3.385 -1.3319 -0.4260  1.1470
    9MOL   H206 2622   1.284   0.491   3.112  0.2122  0.3059  0.5645
    9MOL   H207 2623   1.478   0.170   3.259  0.7148  1.2347 -0.2495
    9MOL   H208 2624   1.415   0.210   3.413 -3.0192 -0.4032  0.9462
    9MOL   H209 2625   1.246   0.076   3.182  0.2269  0.1030  0.1200
    9MOL   H210 2626   1.184   0.099   3.341 -0.2392 -0.0438 -1.1833
    9MOL   H211 2627   1.331   7.903   3.305 -0.2615  0.5397  3.0930
    9MOL   C212 2628   1.388   0.667   3.175 -0.1529  0.3093  0.0411
    9MOL   C213 2629   1.346   0.766   3.066 -0.4400 -0.2754 -1.1425
    9MOL   C214 2630   1.331   0.694   2.929 -0.4292 -0.2864 -0.6058
    9MOL   O215 2631   1.218   0.648   2.905  0.0466  0.2275  0.7943
    9MOL   O216 2632   1.442   0.678   2.860 -0.3202 -0.0287 -0.3269
    9MOL   C217 2633   1.444   0.608   2.737 -0.1270  0.7024  0.0026
    9MOL   C218 2634   1.544   0.493   2.751  0.0208 -1.4349 -0.3229
    9MOL   H219 2635   1.398   0.728   3.264  0.4867  0.8011 -0.3624
    9MOL   H220 2636   1.493   0.639   3.174  0.3684  2.1924  0.0376
    9MOL   H221 2637   1.247   0.805   3.090  0.2608 -0.6269  2.4911
    9MOL   H222 2638   1.344   0.568   2.719 -0.7526  0.1030  4.3566
    9MOL   H223 2639   1.475   0.678   2.659 -0.1869 -1.5742 -2.1595
    9MOL   H224 2640   1.641   0.540   2.769  0.1664 -2.6520  2.2692
    9MOL   H225 2641   1.555   0.448   2.653 -2.1451 -2.7026  0.0050
    9MOL   H226 2642   1.516   0.429   2.834  0.7083 -1.2685  0.0447
    9MOL   C227 2643   1.460   0.871   3.061  0.3369  0.1033 -0.3633
    9MOL   C228 2644   1.426   0.982   2.960  0.7695 -0.1204 -0.1159
    9MOL   C229 2645   1.557   1.027   2.895  0.5840 -0.3658 -0.3787
    9MOL   O230 2646   1.568   1.066   2.775  0.5987  0.2493  0.4315
    9MOL   O231 2647   1.656   1.032   2.979 -0.4729 -0.8137 -0.3595
    9MOL   C232 2648   1.778   1.101   2.940 -0.6723  0.5682  0.3092
    9MOL   C233 2649   1.882   1.095   3.054 -0.4703 -0.6083  0.6722
    9MOL   H234 2650   1.472   0.909   3.162  4.5610  1.0150 -1.1154
    9MOL   H235 2651   1.554   0.824   3.035  0.8610  0.9692 -0.0593
    9MOL   H236 2652   1.375   0.944   2.871  1.0946 -1.8090  0.4224
    9MOL   H237 2653   1.808   1.059   2.844 -3.1728 -0.0575 -0.2125
    9MOL   H238 2654   1.755   1.205   2.918 -0.5404  0.3430 -0.9474
    9MOL   H239 2655   1.830   1.127   3.145 -0.2801  1.0075  0.2279
    9MOL   H240 2656   1.971   1.143   3.012  0.5213 -3.1866 -0.2534
    9MOL   H241 2657   1.920   0.996   3.081 -0.5937 -1.2673 -1.5182
    9MOL   C242 2658   1.351   1.104   3.026  0.3081 -0.2256 -0.7224
    9MOL   C243 2659   1.297   1.217   2.932 -0.2450  0.2596  0.4338
    9MOL   C244 2660   1.397   1.330   2.918  0.1236  0.2498 -0.9321
    9MOL   O245 2661   1.414   1.364   2.801 -0.1109 -0.2810  0.7573
    9MOL   O246 2662   1.450   1.380   3.035 -0.7782 -0.1525  0.0827
    9MOL   C247 2663   1.516   1.505   3.032 -0.7504  0.0296 -0.7101
    9MOL   C248 2664   1.657   1.477   2.981 -0.3024 -0.1088 -0.3288
    9MOL   H249 2665   1.259   1.066   3.070  0.7303 -1.3555 -0.8112
    9MOL   H250 2666   1.422   1.134   3.102 -0.9769 -3.2492  1.7724
    9MOL   H251 2667   1.287   1.173   2.832  2.7970  0.2061  0.0871
    9MOL   H252 2668   1.455   1.574   2.975 -0.9948  1.0187  0.7397
    9MOL   H253 2669   1.531   1.545   3.132 -1.1356 -2.8853  0.5630
    9MOL   H254 2670   1.718   1.565   2.999 -1.4794  1.3708 -3.2768
    9MOL   H255 2671   1.667   1.436   2.880  0.7657 -2.4987  0.7143
    9MOL   H256 2672   1.710   1.406   3.044  0.5769  1.0180  0.2134
    9MOL   C257 2673   1.162   1.277   2.984 -0.0184  0.4579 -0.3838
    9MOL   C258 2674   1.098   1.369   2.874  0.4111 -0.0649  0.7022
    9MOL   C259 2675   0.981   1.439   2.932  0.5098 -0.1595 -0.6214
    9MOL   O260 2676   0.998   1.552   2.973  0.0957  0.4000 -0.1766
    9MOL   O261 2677   0.874   1.364   2.950  0.1779 -0.1975  0.0845
    9MOL   C262 2678   0.756   1.418   3.015 -0.4193  0.3693 -0.6683
    9MOL   C263 2679   0.698   1.346   3.130 -0.3120 -0.4896  0.1189
    9MOL   H264 2680   1.096   1.191   3.000  0.2211  0.3423 -0.0193
    9MOL   H265 2681   1.175   1.319   3.083 -1.2405  2.4225 -1.0382
    9MOL   H266 2682   1.161   1.455   2.851 -0.9474  0.9817  0.8075
    9MOL   H267 2683   0.770   1.523   3.041 -0.7729 -0.2768  2.3354
    9MOL   H268 2684   0.683   1.424   2.934 -0.8097  0.7210 -0.2893
    9MOL   H269 2685   0.776   1.316   3.199  1.9730  0.3522 -2.0426
    9MOL   H270 2686   0.648   1.252   3.108 -0.1809 -0.3254 -0.9292
    9MOL   H271 2687   0.629   1.415   3.179  1.1878  0.9103  0.2967
    9MOL   C272 2688   1.073   1.300   2.742 -0.9936  0.8081 -0.9274
    9MOL   C273 2689   0.978   1.363   2.641 -0.2313 -0.4304  0.5311
    9MOL   C274 2690   0.948   1.268   2.525 -0.1763  0.4910  1.1567
    9MOL   O275 2691   0.853   1.188   2.524  0.1607 -0.9501 -0.0043
    9MOL   O276 2692   1.035   1.279   2.422 -0.3508  0.2513 -0.0512
    9MOL   C277 2693   1.023   1.200   2.300  0.2634 -0.0738 -0.1710
    9MOL   C278 2694   1.163   1.163   2.257 -0.1095  0.5339  1.0750
    9MOL   H279 2695   1.165   1.278   2.688 -0.1318  1.2968  0.3322
    9MOL   H280 2696   1.027   1.205   2.767  1.8090 -0.6066 -0.9207
    9MOL   H281 2697   0.884   1.372   2.695 -1.2571 -0.7311 -1.1626
    9MOL   H282 2698   0.972   1.104   2.309  0.8546 -0.2017  2.3038
    9MOL   H283 2699   0.972   1.268   2.232  1.0199 -2.2287 -2.9678
    9MOL   H284 2700   1.224   1.119   2.335  0.3215 -0.8223 -0.0064
    9MOL   H285 2701   1.212   1.255   2.225 -2.8045  1.8586  0.5602
    9MOL   H286 2702   1.181   1.096   2.173  0.0720  0.5937  1.0646
    9MOL   C287 2703   1.006   1.507   2.596  0.1127 -0.1404 -0.9027
    9MOL   C288 2704   0.895   1.578   2.517 -0.1088 -0.1177 -0.6279
    9MOL   C289 2705   0.896   1.724   2.526  0.0834  0.2876 -0.1144
    9MOL   O290 2706   0.810   1.794   2.585  0.5556 -0.2088 -0.1795
    9MOL   O291 2707   1.011   1.768   2.470  0.1751 -1.0195  0.1928
    9MOL   C292 2708   1.049   1.903   2.452 -0.1424  0.7675  0.3085
    9MOL   C293 2709   1.017   1.936   2.306 -0.0925 -0.4746 -0.3544
    9MOL   H294 2710   1.023   1.561   2.689 -0.7458 -0.5822 -0.4875
    9MOL   H295 2711   1.097   1.519   2.536  0.6867 -0.8155 -0.1900
    9MOL   H296 2712   0.899   1.548   2.413  1.1213 -3.3498  0.2893
    9MOL   H297 2713   1.002   1.970   2.522 -0.3084  1.0847 -0.1050
    9MOL   H298 2714   1.157   1.917   2.448 -0.3870  2.4773 -0.8644
    9MOL   H299 2715   0.909   1.934   2.290  0.2122 -0.0166 -2.5798
    9MOL   H300 2716   1.064   1.865   2.237 -0.3584  0.3139 -1.3663
    9MOL   H301 2717   1.059   2.033   2.279  1.9033 -0.5319  2.2929
    9MOL   H302 2718   0.800   1.553   2.565  0.3108 -0.6446 -0.0580
   10MOL     C1 2719   4.178   1.216   7.101  0.5638 -0.2624 -0.1477
   10MOL     C2 2720   4.074   1.157   7.002 -0.2102  0.2840  0.4971
   10MOL     C3 2721   4.018   1.275   6.923  0.4125  0.1587  0.2284
   10MOL     O4 2722   3.902   1.322   6.934 -0.7821  0.5413  0.2877
   10MOL     O5 2723   4.119   1.339   6.849  0.0271  0.5991  0.1494
   10MOL     C6 2724   4.089   1.468   6.807  0.0167  0.0849  0.3350
   10MOL     C7 2725   4.183   1.557   6.728 -0.2113  0.1202  0.7376
   10MOL     H8 2726   4.233   1.141   7.159 -0.5656 -0.6993  0.3658
   10MOL     H9 2727   4.124   1.278   7.173 -1.6400 -1.6021 -0.6007
   10MOL    H10 2728   4.129   1.101   6.926  0.3630  1.6240 -0.0951
   10MOL    H11 2729   3.998   1.447   6.752  0.1686 -2.9345  1.1507
   10MOL    H12 2730   4.053   1.516   6.898 -0.2960  0.1500  0.1796
   10MOL    H13 2731   4.222   1.505   6.640 -0.0672 -0.5793  1.2085
   10MOL    H14 2732   4.261   1.596   6.793  0.3950 -0.2369  0.2372
   10MOL    H15 2733   4.128   1.646   6.699 -0.0882 -0.2855 -0.8009
   10MOL    H16 2734   4.248   1.281   7.048 -0.0365 -0.2921 -0.9756
   10MOL    C17 2735   3.967   1.081   7.083 -0.1502  0.7311  0.0340
   10MOL    C18 2736   4.027   0.960   7.156 -0.5267  0.4077  0.3344
   10MOL    C19 2737   4.023   0.838   7.064  0.0980 -0.6093  0.7322
   10MOL    O20 2738   3.918   0.783   7.035 -0.2800 -0.3514 -0.0995
   10MOL    O21 2739   4.147   0.802   7.009  0.2881 -0.2857  0.4732
   10MOL    C22 2740   4.162   0.677   6.948 -0.3611  0.9304 -0.1399
   10MOL    C23 2741   4.195   0.561   7.045 -0.0349  0.5742 -0.3513
   10MOL    H24 2742   3.919   1.152   7.150 -0.0233  1.7297 -0.9197
   10MOL    H25 2743   3.894   1.038   7.014  0.1940 -0.2626  0.2815
   10MOL    H26 2744   4.133   0.972   7.178 -0.8467 -1.0100  2.9575
   10MOL    H27 2745   4.070   0.647   6.898  0.2892 -0.5134 -0.5044
   10MOL    H28 2746   4.235   0.682   6.867  0.2509  0.6674  0.3957
   10MOL    H29 2747   4.109   0.541   7.108  0.3069  2.0093  0.6146
   10MOL    H30 2748   4.274   0.597   7.111  0.6590  0.5651 -1.1696
   10MOL    H31 2749   4.213   0.469   6.990 -3.8691  0.7160 -1.9732
   10MOL    C32 2750   3.957   0.927   7.290 -0.4626  0.2291  0.4370
   10MOL    C33 2751   3.989   1.028   7.400  0.2577 -0.0085  0.2608
   10MOL    C34 2752   4.135   1.055   7.431 -0.0378 -0.0042  0.5404
   10MOL    O35 2753   4.221   0.968   7.406 -0.6675 -0.2458 -0.0557
   10MOL    O36 2754   4.161   1.179   7.492  0.0356  0.1028 -0.1118
   10MOL    C37 2755   4.291   1.224   7.502 -0.3250  0.0619  0.6625
   10MOL    C38 2756   4.290   1.373   7.522  0.3645 -0.4706  0.0018
   10MOL    H39 2757   3.850   0.918   7.271 -0.3806 -0.9556  0.5023
   10MOL    H40 2758   3.993   0.831   7.326 -1.0629 -0.0298  0.3583
   10MOL    H41 2759   3.961   1.124   7.355 -0.5443  1.0611  2.9543
   10MOL    H42 2760   4.331   1.169   7.587 -0.5679 -0.7363  0.2654
   10MOL    H43 2761   4.352   1.202   7.414 -0.6841  0.4477  0.3188
   10MOL    H44 2762   4.230   1.420   7.444 -0.3495 -0.4899  0.5414
   10MOL    H45 2763   4.390   1.415   7.527 -0.2129  0.8943  0.2867
   10MOL    H46 2764   4.241   1.399   7.616 -1.9545  1.3598 -1.6404
   10MOL    C47 2765   3.924   1.004   7.531 -0.2149  0.2722  0.4661
   10MOL    C48 2766   3.771   1.028   7.515 -0.0263  0.1865  0.2275
   10MOL    C49 2767   3.740   1.180   7.526  0.1878 -0.7776  0.1507
   10MOL    O50 2768   3.699   1.233   7.635 -0.0901 -1.1730  0.1802
   10MOL    O51 2769   3.772   1.245   7.411 -0.1955 -0.0505 -0.5007
   10MOL    C52 2770   3.774   1.386   7.412 -0.2245  0.8076  0.1591
   10MOL    C53 2771   3.768   1.450   7.276 -0.7983 -0.1570  0.5265
   10MOL    H54 2772   3.946   0.901   7.555  0.2169 -0.0292 -1.1571
   10MOL    H55 2773   3.970   1.068   7.606  2.1357 -1.1276  0.2408
   10MOL    H56 2774   3.731   1.017   7.414 -1.5396 -0.2633  0.8579
   10MOL    H57 2775   3.696   1.420   7.480  0.3115 -0.1575  1.2805
   10MOL    H58 2776   3.868   1.417   7.458 -0.1641  0.8864 -0.0176
   10MOL    H59 2777   3.702   1.393   7.211 -1.3510 -1.8548  2.5349
   10MOL    H60 2778   3.865   1.446   7.226 -1.8057  0.5801 -1.5486
   10MOL    H61 2779   3.742   1.555   7.290  1.1378  0.6146 -1.3856
   10MOL    C62 2780   3.696   0.947   7.625 -0.5179 -0.1848 -0.4486
   10MOL    C63 2781   3.698   0.787   7.604 -0.6815  0.3756  0.2241
   10MOL    C64 2782   3.636   0.757   7.462  0.0018  0.6368  0.8698
   10MOL    O65 2783   3.708   0.740   7.369  0.0948  0.1697  0.3703
   10MOL    O66 2784   3.502   0.775   7.458  0.4968  0.1405  0.3068
   10MOL    C67 2785   3.428   0.729   7.348  0.0311 -0.8446  0.1652
   10MOL    C68 2786   3.341   0.615   7.375 -0.5762  0.5064 -0.1300
   10MOL    H69 2787   3.743   0.971   7.720  0.3353 -1.6160 -0.4913
   10MOL    H70 2788   3.591   0.974   7.630 -0.4028 -0.0898  1.5190
   10MOL    H71 2789   3.802   0.754   7.603 -1.0455 -0.8046 -0.3918
   10MOL    H72 2790   3.364   0.814   7.327  2.1502  0.2892 -1.9657
   10MOL    H73 2791   3.487   0.708   7.259  0.0099 -1.2517  0.2469
   10MOL    H74 2792   3.310   0.614   7.479  1.3763  0.7306  0.4718
   10MOL    H75 2793   3.392   0.519   7.363  0.2460  0.9327 -0.1177
   10MOL    H76 2794   3.253   0.617   7.312 -1.6444  2.2557  1.3653
   10MOL    C77 2795   3.630   0.712   7.718  0.1452  0.0959  0.1764
   10MOL    C78 2796   3.585   0.571   7.694  0.6341 -0.1167  0.0720
   10MOL    C79 2797   3.479   0.535   7.796  0.4036  0.2124  1.0572
   10MOL    O80 2798   3.366   0.504   7.763  0.3226  0.6398 -0.0466
   10MOL    O81 2799   3.520   0.540   0.014  0.2183  0.5570 -0.4216
   10MOL    C82 2800   3.460   0.454   0.109 -0.0649  0.0807 -0.0346
   10MOL    C83 2801   3.480   0.517   0.250  0.6228 -0.5003 -0.3957
   10MOL    H84 2802   3.679   0.737   7.812  3.0170  3.1106 -1.9851
   10MOL    H85 2803   3.541   0.772   7.737 -0.1698 -0.3819  0.2060
   10MOL    H86 2804   3.536   0.563   7.597 -1.0896 -0.8023  0.9702
   10MOL    H87 2805   3.353   0.462   0.088 -0.0941 -1.8103 -0.7108
   10MOL    H88 2806   3.477   0.347   0.096 -1.0890 -0.0567 -0.2639
   10MOL    H89 2807   3.586   0.541   0.258  0.1603  1.5850 -0.4068
   10MOL    H90 2808   3.431   0.442   0.313  0.4098 -1.8203 -2.1046
   10MOL    H91 2809   3.422   0.609   0.254 -0.7586 -1.3996  0.9986
   10MOL    C92 2810   3.703   0.475   7.691 -0.0851 -0.0786 -0.1265
   10MOL    C93 2811   3.670   0.330   7.663  0.2037 -0.7280 -0.3320
   10MOL    C94 2812   3.774   0.233   7.722 -0.4657  0.0026  0.6061
   10MOL    O95 2813   3.736   0.131   7.783  0.7618  0.3100  0.2427
   10MOL    O96 2814   3.902   0.263   7.686  0.7480 -0.7896  0.9270
   10MOL    C97 2815   4.015   0.190   7.740  0.1432  0.2847 -0.3813
   10MOL    C98 2816   4.158   0.248   7.740 -0.0239  0.2531  0.6998
   10MOL    H99 2817   3.785   0.509   7.628  1.0846 -0.2532  1.2656
   10MOL   H100 2818   3.743   0.477   7.792 -1.1094 -0.5329  0.3010
   10MOL   H101 2819   3.580   0.311   7.722  0.2234 -0.0483 -0.0782
   10MOL   H102 2820   3.983   0.174   7.842 -1.6508  2.6169 -0.5440
   10MOL   H103 2821   4.024   0.091   7.695 -3.5468 -0.7210  0.8796
   10MOL   H104 2822   4.229   0.178   7.782  0.3821  2.2181  3.4474
   10MOL   H105 2823   4.146   0.336   7.803  0.4021  1.2752 -0.6258
   10MOL   H106 2824   4.185   0.271   7.637  1.2181  0.5475  1.0836
   10MOL   C107 2825   3.643   0.307   7.511  0.4294 -0.5980 -0.9180
   10MOL   C108 2826   3.548   0.194   7.469 -0.2215 -0.8873  1.4508
   10MOL   C109 2827   3.605   0.055   7.481 -1.0578  0.1367  0.2718
   10MOL   O110 2828   3.686   0.015   7.395 -0.0914 -0.2004 -0.1940
   10MOL   O111 2829   3.545   7.882   7.571 -0.0715 -0.1718 -0.4188
   10MOL   C112 2830   3.562   7.743   7.562 -0.3394 -0.4927  0.8354
   10MOL   C113 2831   3.457   7.689   7.652 -0.3172 -0.1147  0.1037
   10MOL   H114 2832   3.597   0.401   7.479 -0.1816 -0.1135  1.3182
   10MOL   H115 2833   3.740   0.289   7.465  0.9975 -0.2904  0.1504
   10MOL   H116 2834   3.458   0.197   7.531 -0.4659  1.5192  1.0490
   10MOL   H117 2835   3.538   7.701   7.464  0.2642  1.2459 -0.0726
   10MOL   H118 2836   3.662   7.713   7.594  0.0721  0.2891  0.2899
   10MOL   H119 2837   3.479   7.717   7.756 -1.9574  1.7135 -0.0258
   10MOL   H120 2838   3.446   7.582   7.634  0.4633 -0.3563  0.9782
   10MOL   H121 2839   3.360   7.734   7.632  1.1905  3.3826  0.4205
   10MOL   C122 2840   3.490   0.213   7.327  0.6002 -0.3945  0.3074
   10MOL   C123 2841   3.587   0.234   7.204 -0.7940  0.4888  0.4547
   10MOL   C124 2842   3.648   0.371   7.187 -0.1876  0.8457  0.2528
   10MOL   O125 2843   3.580   0.472   7.200  0.4200  0.0079  0.0198
   10MOL   O126 2844   3.774   0.357   7.148  0.1360 -0.0021 -0.0822
   10MOL   C127 2845   3.852   0.477   7.152  0.2061  0.1463  0.2189
   10MOL   C128 2846   3.898   0.503   7.295 -0.3952  0.2262  0.3082
   10MOL   H129 2847   3.417   0.133   7.310 -2.0058  1.2392  3.3790
   10MOL   H130 2848   3.418   0.294   7.318  1.6094  0.5210  0.4355
   10MOL   H131 2849   3.672   0.166   7.213 -0.0960  1.3019  0.0771
   10MOL   H132 2850   3.935   0.460   7.083 -0.9169 -1.0650 -0.8648
   10MOL   H133 2851   3.792   0.564   7.129 -2.3454 -1.5553  0.2921
   10MOL   H134 2852   3.955   0.415   7.326  0.6553  0.1454 -1.7585
   10MOL   H135 2853   3.814   0.515   7.363  0.8396  0.4219  1.8146
   10MOL   H136 2854   3.955   0.595   7.303 -2.6587  1.5544  1.4500
   10MOL   C137 2855   3.501   0.207   7.078  0.0373 -0.3297  0.6798
   10MOL   C138 2856   3.543   0.233   6.934 -0.6672  0.2809 -0.7646
   10MOL   C139 2857   3.425   0.229   6.835 -0.8911 -0.5831 -0.8288
   10MOL   O140 2858   3.355   0.130   6.816 -0.4760  0.4845  0.3377
   10MOL   O141 2859   3.424   0.335   6.755  0.6242  0.1818 -0.1462
   10MOL   C142 2860   3.328   0.358   6.650  0.1341  0.3763  0.3655
   10MOL   C143 2861   3.380   0.463   6.551 -0.3833  0.4351 -1.0754
   10MOL   H144 2862   3.470   0.103   7.086  0.2364 -0.3979  0.5746
   10MOL   H145 2863   3.412   0.265   7.103  0.0536 -0.1572  0.3413
   10MOL   H146 2864   3.578   0.336   6.928  0.7644  0.1295  3.4755
   10MOL   H147 2865   3.314   0.263   6.599 -1.8291 -0.3405  2.1552
   10MOL   H148 2866   3.234   0.389   6.697  0.8738  1.9731  0.8333
   10MOL   H149 2867   3.333   0.436   6.456 -0.7711  0.6950 -0.9587
   10MOL   H150 2868   3.485   0.440   6.537 -0.8351 -0.9363 -2.3361
   10MOL   H151 2869   3.357   0.569   6.559  2.4628  1.0306 -0.4514
   10MOL   C152 2870   3.654   0.132   6.904 -0.3892 -0.5992  0.4609
   10MOL   C153 2871   3.759   0.153   6.802  0.3663  0.7226 -0.8890
   10MOL   C154 2872   3.702   0.173   6.663  0.4977  0.2324 -0.7485
   10MOL   O155 2873   3.711   0.284   6.603  0.1417  0.4510  0.0261
   10MOL   O156 2874   3.647   0.059   6.616  0.2291 -0.2959  0.3532
   10MOL   C157 2875   3.541   0.072   6.525 -0.2683  0.1900  0.0500
   10MOL   C158 2876   3.488   7.834   6.492  0.2396  0.8215  0.2110
   10MOL   H159 2877   3.702   0.117   7.001 -1.3519  1.1719  1.2550
   10MOL   H160 2878   3.610   0.034   6.888  0.2441 -1.0572  1.4644
   10MOL   H161 2879   3.813   0.244   6.827  3.1906 -1.1089 -0.0397
   10MOL   H162 2880   3.455   0.125   6.564 -0.5575  0.3147 -0.7593
   10MOL   H163 2881   3.562   0.114   6.427 -0.6518 -1.0784 -0.5865
   10MOL   H164 2882   3.442   7.784   6.578 -0.1582 -0.4424 -0.7267
   10MOL   H165 2883   3.565   7.766   6.455  1.1092  2.2769 -0.6948
   10MOL   H166 2884   3.411   7.843   6.417  0.4893 -0.6570 -0.2382
   10MOL   C167 2885   3.866   0.036   6.810  0.7309 -0.2666  0.8061
   10MOL   C168 2886   3.961   0.041   6.939  0.4110 -1.0480  0.4053
   10MOL   C169 2887   4.061   0.157   6.925 -0.4102  0.1602 -0.5287
   10MOL   O170 2888   4.039   0.265   6.975  0.2538 -0.2576  0.1574
   10MOL   O171 2889   4.162   0.135   6.854 -0.3437  0.3608  0.4268
   10MOL   C172 2890   4.263   0.226   6.821  0.8341 -0.1128 -0.4630
   10MOL   C173 2891   4.379   0.220   6.914  0.2738  0.1941 -0.2549
   10MOL   H174 2892   3.818   7.847   6.809  1.5833 -0.6932 -1.1594
   10MOL   H175 2893   3.937   0.039   6.727  1.6829 -1.3463  1.5641
   10MOL   H176 2894   3.906   0.067   7.030 -0.3656  0.9355 -0.6048
   10MOL   H177 2895   4.297   0.186   6.725 -0.4370 -2.8443  0.1896
   10MOL   H178 2896   4.232   0.329   6.803  3.5450  0.9077  0.4220
   10MOL   H179 2897   4.419   0.119   6.921 -0.7370 -0.2016 -0.2483
   10MOL   H180 2898   4.348   0.254   7.013  1.1544 -0.5817  0.3018
   10MOL   H181 2899   4.468   0.274   6.882  1.5710 -2.1881 -0.7810
   10MOL   C182 2900   4.045   7.818   6.954 -0.1233  0.0059  0.0125
   10MOL   C183 2901   3.984   7.717   7.056  0.6986  0.1317 -0.1595
   10MOL   C184 2902   4.052   7.733   7.194 -0.3901 -0.4049 -0.3740
   10MOL   O185 2903   4.140   7.659   7.237 -0.0815 -0.4153  0.0975
   10MOL   O186 2904   3.990   7.849   7.254  0.0106  0.1578 -0.4761
   10MOL   C187 2905   4.051   7.903   7.371 -0.4612 -0.7960 -0.1163
   10MOL   C188 2906   4.056   0.138   7.372  0.0947  0.6565  0.5143
   10MOL   H189 2907   4.076   7.772   6.861  1.9576 -0.9035  1.1363
   10MOL   H190 2908   4.141   7.847   6.996 -0.0157 -1.3721  0.7344
   10MOL   H191 2909   3.878   7.734   7.079  0.0650 -1.7613 -1.5331
   10MOL   H192 2910   3.995   7.878   7.461  0.4932 -1.8458  0.2026
   10MOL   H193 2911   4.144   7.849   7.386 -0.2270 -1.2903 -3.0656
   10MOL   H194 2912   4.098   0.175   7.465  0.9798 -3.2530  1.7636
   10MOL   H195 2913   3.955   0.176   7.366  1.0417  3.3789  1.1862
   10MOL   H196 2914   4.119   0.175   7.291  0.8825 -2.2306 -0.2820
   10MOL   C197 2915   4.004   7.568   7.016 -0.5973 -0.0946 -0.0292
   10MOL   C198 2916   3.928   7.537   6.892 -0.0230  0.0854  0.2343
   10MOL   C199 2917   3.777   7.512   6.926 -0.5669  0.0726 -0.2062
   10MOL   O200 2918   3.689   7.576   6.868  0.2306  0.1141 -0.1627
   10MOL   O201 2919   3.756   7.423   7.029  0.7938  0.4127  0.2316
   10MOL   C202 2920   3.625   7.399   7.076 -0.1030 -0.1914 -0.0596
   10MOL   C203 2921   3.610   7.267   7.152  0.5825 -0.6724  0.1547
   10MOL   H204 2922   4.109   7.562   6.988 -0.0453 -2.6215  2.4131
   10MOL   H205 2923   3.999   7.492   7.093  0.1094  1.2006  1.3284
   10MOL   H206 2924   3.936   7.625   6.827  0.9229 -1.0369 -1.1996
   10MOL   H207 2925   3.606   7.479   7.147 -1.0467 -1.1965  0.8294
   10MOL   H208 2926   3.551   7.421   6.999 -0.4357  1.0165  0.5975
   10MOL   H209 2927   3.510   7.254   7.193  0.2602 -1.4908 -0.8870
   10MOL   H210 2928   3.687   7.251   7.228  0.2267 -1.0155  0.4462
   10MOL   H211 2929   3.617   7.179   7.088  0.7335  0.2886 -1.1661
   10MOL   C212 2930   3.987   7.420   6.818 -0.2796 -0.2518  0.1615
   10MOL   C213 2931   4.023   7.462   6.676  0.4182 -0.2076 -0.9459
   10MOL   C214 2932   3.910   7.514   6.593 -0.5263 -0.7224  0.4579
   10MOL   O215 2933   3.934   7.619   6.540  0.4179  0.3734 -0.0325
   10MOL   O216 2934   3.796   7.438   6.589 -0.1071 -0.3695 -0.3258
   10MOL   C217 2935   3.685   7.482   6.519  0.7907 -0.0826 -0.4225
   10MOL   C218 2936   3.558   7.426   6.583  0.1419  0.0996 -0.0891
   10MOL   H219 2937   4.073   7.378   6.870 -0.2561 -0.4490 -0.0365
   10MOL   H220 2938   3.910   7.343   6.816  0.9639 -1.5577 -4.9415
   10MOL   H221 2939   4.104   7.535   6.678 -0.1420  0.3928  0.0405
   10MOL   H222 2940   3.675   7.590   6.509 -0.7173  0.1643  2.9917
   10MOL   H223 2941   3.694   7.433   6.422 -1.2942  1.7487 -1.5632
   10MOL   H224 2942   3.462   7.451   6.538  0.2895 -1.4149 -1.2791
   10MOL   H225 2943   3.550   7.444   6.690  0.7985 -1.4018  0.2204
   10MOL   H226 2944   3.575   7.318   6.576 -2.8685 -0.4808  0.7399
   10MOL   C227 2945   4.070   7.338   6.591 -0.2864  1.1733 -0.2199
   10MOL   C228 2946   4.159   7.345   6.464  1.0077 -0.4712 -0.4186
   10MOL   C229 2947   4.095   7.402   6.340  0.8100 -0.0150  0.1094
   10MOL   O230 2948   4.140   7.501   6.288  0.2512  0.1161  0.2748
   10MOL   O231 2949   3.995   7.328   6.284 -0.3777 -0.2118  0.1007
   10MOL   C232 2950   3.930   7.373   6.166  0.2507 -0.2647  0.4629
   10MOL   C233 2951   3.844   7.263   6.093 -0.2648  0.3093 -0.7532
   10MOL   H234 2952   4.125   7.266   6.652 -0.6695  0.0293 -1.1980
   10MOL   H235 2953   3.980   7.283   6.564  0.6488 -0.3506 -0.2927
   10MOL   H236 2954   4.241   7.416   6.475 -0.0317  0.7200 -0.2497
   10MOL   H237 2955   3.866   7.460   6.179  0.1872 -0.0853 -0.9037
   10MOL   H238 2956   4.008   7.414   6.102  0.7815 -1.1604  0.5179
   10MOL   H239 2957   3.779   7.213   6.164  0.0421 -0.5986 -1.1017
   10MOL   H240 2958   3.913   7.186   6.059 -0.9364 -0.3905 -0.5180
   10MOL   H241 2959   3.787   7.305   6.010  0.4554 -1.0003 -1.9386
   10MOL   C242 2960   4.243   7.223   6.436  0.5319 -0.1347  0.3362
   10MOL   C243 2961   4.368   7.204   6.524 -0.1094 -0.0351 -0.0816
   10MOL   C244 2962   4.474   7.307   6.495 -0.0765 -0.6319 -0.2905
   10MOL   O245 2963   4.522   7.375   6.586  0.0211  0.1145  0.2761
   10MOL   O246 2964   4.515   7.316   6.369 -0.6866  0.8850  0.5299
   10MOL   C247 2965   4.621   7.411   6.342 -0.1247  0.1681  0.3065
   10MOL   C248 2966   4.623   7.451   6.195  0.0546 -0.0786 -0.1608
   10MOL   H249 2967   4.171   7.144   6.454  0.7855 -0.3431  0.4388
   10MOL   H250 2968   4.267   7.220   6.329  1.0696  1.1065  0.4140
   10MOL   H251 2969   4.333   7.220   6.626  2.0885  1.6047  0.4473
   10MOL   H252 2970   4.617   7.504   6.399  0.5421  0.8486 -0.7288
   10MOL   H253 2971   4.716   7.361   6.363  0.6368  1.0614 -0.9201
   10MOL   H254 2972   4.692   7.531   6.167 -1.2500  0.5379 -1.7530
   10MOL   H255 2973   4.523   7.470   6.155  0.2149  1.3623  0.0752
   10MOL   H256 2974   4.657   7.360   6.146  1.8551 -0.0975  1.0914
   10MOL   C257 2975   4.423   7.057   6.501  0.0702 -0.2594  0.4327
   10MOL   C258 2976   4.333   6.933   6.553 -0.0471 -0.4578  0.0915
   10MOL   C259 2977   4.308   6.948   6.705 -0.1315 -0.0610 -0.2211
   10MOL   O260 2978   4.212   7.008   6.749  0.1312  0.0617  0.2727
   10MOL   O261 2979   4.408   6.903   6.781 -0.5164 -0.1093  0.6406
   10MOL   C262 2980   4.407   6.894   6.927  0.2983  0.2029  0.0257
   10MOL   C263 2981   4.479   6.768   6.969  0.2624  0.9895 -0.2635
   10MOL   H264 2982   4.434   7.060   6.392  0.2231  1.2873  0.4703
   10MOL   H265 2983   4.522   7.037   6.541  0.6885  1.9970  0.1240
   10MOL   H266 2984   4.234   6.953   6.512  1.7436  1.7680 -3.4085
   10MOL   H267 2985   4.468   6.981   6.953 -0.3992  1.1257 -1.3153
   10MOL   H268 2986   4.307   6.896   6.971  0.6418  0.4723  0.7973
   10MOL   H269 2987   4.462   6.758   7.076  0.3349  1.5141 -0.1993
   10MOL   H270 2988   4.585   6.762   6.942  0.4283 -2.0091  0.9391
   10MOL   H271 2989   4.420   6.687   6.926  0.7012  1.0162 -0.9347
   10MOL   C272 2990   4.369   6.796   6.503  0.0918  0.1190  1.1077
   10MOL   C273 2991   4.269   6.674   6.520 -0.2614  0.5285 -0.2769
   10MOL   C274 2992   4.175   6.668   6.399 -0.3510 -0.2623 -0.2178
   10MOL   O275 2993   4.162   6.558   6.340  0.1280  1.0232  0.7115
   10MOL   O276 2994   4.118   6.787   6.361  0.3125  0.9796 -0.3681
   10MOL   C277 2995   4.020   6.792   6.265  0.3572 -0.1205 -0.3869
   10MOL   C278 2996   4.054   6.894   6.158 -0.0508  0.5083  0.3408
   10MOL   H279 2997   4.383   6.816   6.396  2.4360  0.3666  1.4347
   10MOL   H280 2998   4.466   6.765   6.543  1.4080 -0.7665 -2.5618
   10MOL   H281 2999   4.333   6.588   6.507 -0.4557  0.3479 -0.0371
   10MOL   H282 3000   3.987   6.698   6.220 -1.3325  0.7075 -0.9353
   10MOL   H283 3001   3.929   6.826   6.315  0.4363 -0.4730 -0.0026
   10MOL   H284 3002   3.969   6.904   6.090 -0.5114 -1.5821  0.5860
   10MOL   H285 3003   4.131   6.858   6.091  0.1235 -0.2818  0.9600
   10MOL   H286 3004   4.084   6.993   6.194 -1.4822  0.5679  1.4445
   10MOL   C287 3005   4.191   6.651   6.656 -0.5938  0.0305  0.5413
   10MOL   C288 3006   4.133   6.506   6.662 -0.1906 -0.5567  0.5354
   10MOL   C289 3007   4.246   6.400   6.671 -0.2468  0.4696 -0.0639
   10MOL   O290 3008   4.260   6.328   6.572  0.7019 -0.8047  0.4028
   10MOL   O291 3009   4.318   6.387   6.780 -0.2141 -0.0376  0.0464
   10MOL   C292 3010   4.444   6.311   6.780  0.7568  0.0385  0.0461
   10MOL   C293 3011   4.562   6.395   6.824 -0.1978  0.1777  0.0608
   10MOL   H294 3012   4.253   6.666   6.744  0.8037  0.2191 -0.4514
   10MOL   H295 3013   4.104   6.713   6.673 -1.4804 -1.3409  1.1057
   10MOL   H296 3014   4.072   6.490   6.751 -0.2674 -2.4019  0.1686
   10MOL   H297 3015   4.429   6.228   6.849 -1.0666 -1.5289 -2.1782
   10MOL   H298 3016   4.462   6.286   6.676  0.7255  0.9602 -0.1897
   10MOL   H299 3017   4.550   6.454   6.915 -2.6601 -0.4708  0.1685
   10MOL   H300 3018   4.586   6.467   6.745  0.8253 -0.1072  0.1040
   10MOL   H301 3019   4.641   6.321   6.835  0.4840  0.8504 -0.2252
   10MOL   H302 3020   4.065   6.488   6.578  1.5442 -0.7710 -0.8675
   11MOL     C1 3021   3.215   6.757   0.461  0.1118  0.2603 -0.4982
   11MOL     C2 3022   3.118   6.729   0.344  0.7003  0.5461 -0.5931
   11MOL     C3 3023   3.165   6.800   0.215 -0.1367 -0.0491 -0.3817
   11MOL     O4 3024   3.238   6.742   0.128  0.6607 -0.1968 -0.5001
   11MOL     O5 3025   3.120   6.928   0.215 -0.5980  0.0816  0.0138
   11MOL     C6 3026   3.136   7.004   0.095  0.2766  0.0320 -0.1565
   11MOL     C7 3027   3.038   7.125   0.088  0.4605 -0.0139 -0.1137
   11MOL     H8 3028   3.316   6.784   0.428 -0.0318  1.2773 -0.1387
   11MOL     H9 3029   3.218   6.678   0.536  2.0839  2.7984  2.2484
   11MOL    H10 3030   3.134   6.622   0.327  1.5275  0.9546 -2.5160
   11MOL    H11 3031   3.234   7.051   0.083 -0.6582  2.2327  0.7548
   11MOL    H12 3032   3.121   6.946   0.004  2.2356  3.5024 -2.8143
   11MOL    H13 3033   3.041   7.175   7.899  1.4531  0.2030  0.0183
   11MOL    H14 3034   3.059   7.204   0.160 -0.1930  0.7093 -0.7096
   11MOL    H15 3035   2.935   7.098   0.110  0.3698  1.0631  0.8532
   11MOL    H16 3036   3.172   6.845   0.508 -1.3835 -0.2936 -0.7968
   11MOL    C17 3037   2.970   6.748   0.389 -0.2477  0.3531  0.4443
   11MOL    C18 3038   2.915   6.675   0.511 -0.2697 -0.2119 -0.2224
   11MOL    C19 3039   2.914   6.526   0.486 -0.2656  0.5738 -0.1437
   11MOL    O20 3040   2.904   6.478   0.376  0.1402  0.4881 -0.4655
   11MOL    O21 3041   2.934   6.465   0.607  0.2785 -0.0856 -0.0853
   11MOL    C22 3042   2.913   6.331   0.623  0.5046  0.2512  0.0712
   11MOL    C23 3043   2.895   6.303   0.777 -0.2493 -0.1193  0.7832
   11MOL    H24 3044   2.965   6.852   0.419  2.2703  0.6607 -0.0851
   11MOL    H25 3045   2.900   6.732   0.307 -0.5605  1.5407  0.4748
   11MOL    H26 3046   2.990   6.698   0.585  0.1776 -0.7935 -0.4882
   11MOL    H27 3047   2.826   6.290   0.572  2.1383 -1.9840 -0.9549
   11MOL    H28 3048   2.999   6.279   0.583  0.1300 -1.8106  1.8453
   11MOL    H29 3049   2.946   6.206   0.782 -2.0273 -1.1615 -0.6446
   11MOL    H30 3050   2.791   6.288   0.804 -0.4167  2.0008  1.3415
   11MOL    H31 3051   2.933   6.385   0.837 -1.2207  0.9796 -0.0736
   11MOL    C32 3052   2.770   6.732   0.541 -0.3672  0.4106  0.6682
   11MOL    C33 3053   2.696   6.668   0.662 -1.3853 -0.4457  0.0825
   11MOL    C34 3054   2.593   6.565   0.616 -1.1063 -0.5508 -0.2915
   11MOL    O35 3055   2.607   6.442   0.639  0.4820  0.0403  0.3018
   11MOL    O36 3056   2.480   6.629   0.567  0.7199 -0.3241 -0.2905
   11MOL    C37 3057   2.368   6.555   0.525 -0.9714 -0.2970  0.6808
   11MOL    C38 3058   2.249   6.644   0.495 -0.3931 -0.2486 -0.3591
   11MOL    H39 3059   2.766   6.840   0.531  0.7111  0.5279  1.4307
   11MOL    H40 3060   2.704   6.704   0.458  0.5593 -2.0751  0.7147
   11MOL    H41 3061   2.764   6.611   0.725  1.4620  2.1342 -0.5702
   11MOL    H42 3062   2.399   6.498   0.438 -1.2180  2.1427 -1.0614
   11MOL    H43 3063   2.351   6.473   0.595  1.9445 -1.3320  0.2541
   11MOL    H44 3064   2.273   6.716   0.416  1.0434 -2.3088 -1.8626
   11MOL    H45 3065   2.206   6.698   0.579 -0.5803 -1.6362  0.4463
   11MOL    H46 3066   2.174   6.577   0.452  0.7635 -2.2348  0.6220
   11MOL    C47 3067   2.641   6.775   0.759  0.2766 -0.5941  0.1340
   11MOL    C48 3068   2.574   6.718   0.886  0.0631  0.3455  0.2105
   11MOL    C49 3069   2.494   6.825   0.957 -0.5122 -0.0630 -0.6185
   11MOL    O50 3070   2.478   6.942   0.911 -0.3464 -0.5444 -0.3682
   11MOL    O51 3071   2.419   6.771   1.054  0.0063 -0.3060 -0.1301
   11MOL    C52 3072   2.339   6.859   1.132  0.1350 -0.2491 -0.4176
   11MOL    C53 3073   2.254   6.783   1.226  0.1178  0.2384 -0.1781
   11MOL    H54 3074   2.710   6.853   0.792 -1.7598  0.6915  1.4190
   11MOL    H55 3075   2.574   6.846   0.710 -1.9446 -2.7749 -0.0557
   11MOL    H56 3076   2.498   6.648   0.852  0.8105 -1.3330  1.9347
   11MOL    H57 3077   2.401   6.929   1.189  3.4781 -2.0274 -1.7036
   11MOL    H58 3078   2.279   6.913   1.059 -0.6585  0.3095  0.6365
   11MOL    H59 3079   2.197   6.707   1.173 -0.6325 -0.7131  1.9160
   11MOL    H60 3080   2.175   6.841   1.274 -0.1069  0.5804 -0.9499
   11MOL    H61 3081   2.309   6.735   1.307  2.1637 -0.6081 -2.0353
   11MOL    C62 3082   2.676   6.644   0.982 -0.2109 -0.0225 -0.3055
   11MOL    C63 3083   2.618   6.547   1.088  0.2395 -0.1939 -0.5436
   11MOL    C64 3084   2.720   6.491   1.182 -0.1458  0.2900  0.1424
   11MOL    O65 3085   2.732   6.530   1.302 -0.0742 -0.2039  0.3226
   11MOL    O66 3086   2.801   6.402   1.124  0.1853  0.1398 -0.5121
   11MOL    C67 3087   2.900   6.341   1.192 -0.1932 -0.4199  0.4588
   11MOL    C68 3088   2.871   6.193   1.219  0.1977  0.1027  0.3960
   11MOL    H69 3089   2.753   6.596   0.923 -1.5103 -0.9867 -1.2529
   11MOL    H70 3090   2.739   6.714   1.037 -0.8868  0.5417 -0.2365
   11MOL    H71 3091   2.550   6.615   1.138  1.2373  0.8987 -0.6404
   11MOL    H72 3092   2.992   6.343   1.132 -1.5036  2.0018 -1.5377
   11MOL    H73 3093   2.928   6.400   1.279  1.2611 -0.6863  0.2009
   11MOL    H74 3094   2.853   6.125   1.136 -0.7551 -0.8195  1.3331
   11MOL    H75 3095   2.800   6.181   1.301  0.4513 -0.8474  0.4873
   11MOL    H76 3096   2.956   6.146   1.267  0.6715  0.6210  0.0685
   11MOL    C77 3097   2.537   6.431   1.023 -0.7049  0.3006  0.0189
   11MOL    C78 3098   2.384   6.450   1.047 -0.1573 -0.7598  0.7351
   11MOL    C79 3099   2.340   6.406   1.186 -0.0374  0.3881 -0.4598
   11MOL    O80 3100   2.270   6.307   1.191 -0.5261  0.7677  0.2032
   11MOL    O81 3101   2.390   6.486   1.285  0.2739 -0.1789 -0.9546
   11MOL    C82 3102   2.350   6.455   1.417 -1.2021  0.0625 -0.0326
   11MOL    C83 3103   2.430   6.333   1.474  0.5959 -0.7358  0.4111
   11MOL    H84 3104   2.563   6.427   0.917 -0.4299 -0.1279  0.1010
   11MOL    H85 3105   2.571   6.334   1.061 -0.7274  0.1308 -0.3932
   11MOL    H86 3106   2.350   6.551   1.024  0.5518 -1.1497 -2.2976
   11MOL    H87 3107   2.357   6.542   1.482  3.2009  0.0495 -0.3641
   11MOL    H88 3108   2.246   6.424   1.411 -1.7433  2.2008 -3.1020
   11MOL    H89 3109   2.537   6.346   1.489  0.3179  1.1986  0.8108
   11MOL    H90 3110   2.422   6.239   1.419 -0.0196 -1.9377  2.5016
   11MOL    H91 3111   2.385   6.317   1.572 -1.1156 -0.4428 -0.3100
   11MOL    C92 3112   2.301   6.384   0.932 -0.7477 -0.5017  0.1171
   11MOL    C93 3113   2.152   6.411   0.926 -0.2731  0.0264 -0.0583
   11MOL    C94 3114   2.081   6.312   0.826  0.0017 -0.0826 -0.5579
   11MOL    O95 3115   1.986   6.240   0.856 -0.7809 -0.8115  0.0111
   11MOL    O96 3116   2.127   6.323   0.705 -0.0713  0.9583 -0.0801
   11MOL    C97 3117   2.061   6.270   0.594  0.2484  0.3284  0.5490
   11MOL    C98 3118   1.924   6.331   0.563  0.1465 -0.1465  0.3013
   11MOL    H99 3119   2.349   6.413   0.839  1.5617  2.0818  2.0223
   11MOL   H100 3120   2.332   6.279   0.938 -0.2694 -0.2449  2.8186
   11MOL   H101 3121   2.106   6.400   1.024 -1.0731  0.6540 -0.3649
   11MOL   H102 3122   2.127   6.281   0.507  0.3478 -1.7059  0.3571
   11MOL   H103 3123   2.059   6.163   0.615 -0.7899  0.3138  0.4060
   11MOL   H104 3124   1.845   6.305   0.634 -0.3052 -0.2862 -0.2535
   11MOL   H105 3125   1.890   6.298   0.465  0.1957 -0.3927  0.3684
   11MOL   H106 3126   1.950   6.436   0.578  1.3717 -0.7297  2.5384
   11MOL   C107 3127   2.121   6.557   0.887 -0.9371  0.2346 -0.0525
   11MOL   C108 3128   1.976   6.601   0.918 -0.2530  0.3744 -0.1748
   11MOL   C109 3129   1.937   6.717   0.826  0.2575 -0.4002 -0.2638
   11MOL   O110 3130   1.913   6.829   0.882 -0.0282  0.0235  0.1145
   11MOL   O111 3131   1.951   6.702   0.693  0.4805  0.4593  0.2179
   11MOL   C112 3132   1.900   6.809   0.614  0.2162  0.3566  0.0035
   11MOL   C113 3133   1.881   6.759   0.473 -0.2239  0.1748  0.3238
   11MOL   H114 3134   2.179   6.634   0.937 -1.0016  0.3002 -0.0798
   11MOL   H115 3135   2.141   6.575   0.781  1.0637  1.0385  0.4420
   11MOL   H116 3136   1.921   6.512   0.889 -0.2578  0.3573 -0.1129
   11MOL   H117 3137   1.805   6.845   0.654 -0.2675 -0.8674 -0.0354
   11MOL   H118 3138   1.971   6.891   0.607  2.0444 -1.2975 -1.3424
   11MOL   H119 3139   1.783   6.713   0.458 -0.5636  1.4369 -1.3817
   11MOL   H120 3140   1.960   6.687   0.447  0.1745  0.9287 -0.5628
   11MOL   H121 3141   1.901   6.834   0.397 -0.6367 -0.1457 -0.1032
   11MOL   C122 3142   1.943   6.619   1.068  0.2748  0.3848 -0.0197
   11MOL   C123 3143   1.807   6.556   1.113  0.4424 -1.3641 -0.0341
   11MOL   C124 3144   1.692   6.632   1.060  0.1875  0.0460 -0.8488
   11MOL   O125 3145   1.636   6.594   0.961 -1.0797  0.0651 -0.2179
   11MOL   O126 3146   1.667   6.751   1.116  0.2141  0.3644  0.1066
   11MOL   C127 3147   1.556   6.831   1.066  0.4250 -0.6928 -0.0384
   11MOL   C128 3148   1.603   6.924   0.953  0.1124  0.2792  0.5058
   11MOL   H129 3149   2.022   6.576   1.129 -1.3995 -0.7358  1.4240
   11MOL   H130 3150   1.951   6.724   1.095 -1.5487  0.2302  1.2001
   11MOL   H131 3151   1.813   6.453   1.076 -1.8842 -1.9671  1.1570
   11MOL   H132 3152   1.473   6.772   1.027  0.6512 -0.5872 -0.6871
   11MOL   H133 3153   1.521   6.892   1.149  1.4297  0.7232 -0.6334
   11MOL   H134 3154   1.677   6.996   0.989  1.0075 -0.2266 -0.3095
   11MOL   H135 3155   1.527   6.984   0.902  1.7014  0.0581 -2.1825
   11MOL   H136 3156   1.643   6.862   0.873  0.7722  0.3747  0.7599
   11MOL   C137 3157   1.815   6.542   1.270 -0.7004 -0.0216 -0.4409
   11MOL   C138 3158   1.693   6.492   1.355 -0.6006 -0.0782  0.1010
   11MOL   C139 3159   1.644   6.364   1.291 -0.0495  0.2784  0.3621
   11MOL   O140 3160   1.693   6.257   1.331 -0.4872 -0.1294 -0.6404
   11MOL   O141 3161   1.564   6.380   1.185  0.0911 -0.0066  0.3950
   11MOL   C142 3162   1.516   6.270   1.105  0.3352 -0.2411 -0.8278
   11MOL   C143 3163   1.590   6.258   0.973 -0.5119  0.1919  0.2477
   11MOL   H144 3164   1.903   6.481   1.290 -1.0067 -0.8348 -1.5145
   11MOL   H145 3165   1.852   6.638   1.305 -0.1864 -0.9137  1.5013
   11MOL   H146 3166   1.734   6.459   1.450 -2.4650  1.1659  1.3817
   11MOL   H147 3167   1.512   6.173   1.155 -2.1918  0.5437  0.5913
   11MOL   H148 3168   1.410   6.284   1.083  0.0070 -0.2873  0.6430
   11MOL   H149 3169   1.612   6.350   0.919  0.6683 -0.2495 -0.0427
   11MOL   H150 3170   1.532   6.203   0.898  0.1106  0.8771 -0.7509
   11MOL   H151 3171   1.684   6.205   0.986  0.5766  2.1833  0.6998
   11MOL   C152 3172   1.578   6.598   1.383  0.1248 -0.0023 -0.0539
   11MOL   C153 3173   1.615   6.713   1.484 -0.3906 -0.1758  0.4951
   11MOL   C154 3174   1.601   6.673   1.632 -0.1610 -0.0696 -0.2193
   11MOL   O155 3175   1.572   6.561   1.673  0.1073 -0.6631  0.1336
   11MOL   O156 3176   1.636   6.767   1.722  0.3187 -0.1274  0.1148
   11MOL   C157 3177   1.596   6.775   1.858  0.3591  0.1980  0.1382
   11MOL   C158 3178   1.467   6.842   1.894 -0.1687  0.2172  0.0108
   11MOL   H159 3179   1.543   6.639   1.288 -1.3058  0.0314  0.4674
   11MOL   H160 3180   1.488   6.548   1.420 -0.6305  0.4088 -1.3288
   11MOL   H161 3181   1.724   6.718   1.473 -0.4671  0.4645 -0.0223
   11MOL   H162 3182   1.584   6.677   1.902 -1.6006 -1.5074 -3.9017
   11MOL   H163 3183   1.680   6.825   1.906  0.1984  0.6783 -0.0734
   11MOL   H164 3184   1.478   6.947   1.868  1.4822  0.6007  2.1984
   11MOL   H165 3185   1.444   6.839   2.001 -1.2755 -0.7757 -0.2326
   11MOL   H166 3186   1.382   6.798   1.841  0.2826 -0.4734 -0.1538
   11MOL   C167 3187   1.546   6.850   1.459  0.2015 -0.1099 -0.0081
   11MOL   C168 3188   1.628   6.973   1.507  0.4138  0.0958 -0.0279
   11MOL   C169 3189   1.543   7.100   1.492  0.0481  0.2518 -0.3627
   11MOL   O170 3190   1.576   7.194   1.419  0.2901 -0.0663  0.5210
   11MOL   O171 3191   1.436   7.104   1.568 -0.3836 -0.6364  0.6431
   11MOL   C172 3192   1.353   7.222   1.570  0.1980 -0.6856  0.5137
   11MOL   C173 3193   1.239   7.186   1.678  1.1443  0.4606 -0.0221
   11MOL   H174 3194   1.535   6.852   1.350 -2.5285 -2.0020  0.1648
   11MOL   H175 3195   1.449   6.837   1.508  0.3882 -1.5926  0.0050
   11MOL   H176 3196   1.651   6.970   1.613  1.5737 -3.1290 -0.3215
   11MOL   H177 3197   1.412   7.306   1.608 -2.7508  1.5921  0.1845
   11MOL   H178 3198   1.316   7.255   1.473  0.9632  2.2625  1.1683
   11MOL   H179 3199   1.195   7.092   1.645 -0.2719  1.9787 -2.5251
   11MOL   H180 3200   1.163   7.262   1.692 -0.4602 -1.1277  0.0221
   11MOL   H181 3201   1.286   7.170   1.776  0.4231  1.2779  0.4571
   11MOL   C182 3202   1.759   6.972   1.414 -0.1392  0.2160  0.1871
   11MOL   C183 3203   1.877   7.068   1.459  0.6580 -0.1521 -0.1545
   11MOL   C184 3204   1.930   7.154   1.348 -0.6685 -0.4085 -0.0731
   11MOL   O185 3205   1.927   7.277   1.354  0.4013 -0.2288 -0.0142
   11MOL   O186 3206   1.970   7.077   1.243 -0.0291  0.4885  0.2619
   11MOL   C187 3207   2.006   7.134   1.114 -0.1898 -0.4132  0.2265
   11MOL   C188 3208   2.143   7.197   1.103  0.0702  0.0338  0.1317
   11MOL   H189 3209   1.816   6.882   1.390 -0.8190 -0.1989  0.1140
   11MOL   H190 3210   1.723   6.995   1.314 -0.3377 -0.9396 -0.0134
   11MOL   H191 3211   1.833   7.145   1.523  3.3716 -1.2942  3.3087
   11MOL   H192 3212   2.007   7.062   1.032 -2.4404 -0.2071 -0.0118
   11MOL   H193 3213   1.934   7.212   1.091 -0.5371 -0.2081  1.9940
   11MOL   H194 3214   2.223   7.125   1.121 -0.6544 -0.7747  0.1736
   11MOL   H195 3215   2.145   7.269   1.185 -1.1504  0.3188 -0.0884
   11MOL   H196 3216   2.159   7.256   1.013 -1.4145  2.0295  1.1439
   11MOL   C197 3217   1.996   7.008   1.534  0.2916  0.6331 -0.1076
   11MOL   C198 3218   1.962   6.948   1.674 -0.3222 -0.3589 -0.0636
   11MOL   C199 3219   1.903   7.057   1.769  0.3049  0.4325 -0.9053
   11MOL   O200 3220   1.791   7.052   1.823 -0.6405 -0.4745  0.5923
   11MOL   O201 3221   1.998   7.159   1.802  0.5354  0.0682  1.0817
   11MOL   C202 3222   1.943   7.280   1.849 -0.3161  0.1676 -0.3959
   11MOL   C203 3223   1.970   7.391   1.745  0.2447  0.4631 -0.7365
   11MOL   H204 3224   2.021   6.926   1.467  3.9522  2.2730 -0.8372
   11MOL   H205 3225   2.080   7.076   1.536 -0.0327  1.0249  0.7966
   11MOL   H206 3226   1.883   6.873   1.666  0.5801 -1.2349 -0.8071
   11MOL   H207 3227   1.839   7.282   1.880 -0.2468  2.3317 -0.2159
   11MOL   H208 3228   1.998   7.326   1.932 -1.8022  1.6829 -0.2259
   11MOL   H209 3229   2.077   7.397   1.727  0.6217 -2.2637  0.3359
   11MOL   H210 3230   1.924   7.489   1.761  0.0734  0.4693 -1.2421
   11MOL   H211 3231   1.935   7.364   1.645 -0.6215 -3.7228  0.6001
   11MOL   C212 3232   2.074   6.871   1.739 -1.1289  0.3869  0.1445
   11MOL   C213 3233   2.140   6.747   1.664 -0.0514  0.4974  0.1463
   11MOL   C214 3234   2.042   6.642   1.618  0.1915 -0.7017  1.0207
   11MOL   O215 3235   2.021   6.631   1.496  0.8331  0.3693 -0.5415
   11MOL   O216 3236   1.993   6.568   1.714  0.0707 -0.4391 -0.2328
   11MOL   C217 3237   1.910   6.462   1.674 -0.0100 -0.0121  1.2024
   11MOL   C218 3238   1.872   6.378   1.797 -0.0318  0.4838  0.0605
   11MOL   H219 3239   2.153   6.941   1.765 -1.2723 -0.3396  2.6003
   11MOL   H220 3240   2.049   6.835   1.838  1.6944 -0.7317  0.4934
   11MOL   H221 3241   2.193   6.778   1.574  2.6542 -0.6676  1.2555
   11MOL   H222 3242   1.814   6.502   1.640  0.6307 -0.8316 -1.6649
   11MOL   H223 3243   1.940   6.409   1.584 -0.4192  0.1424  0.9742
   11MOL   H224 3244   1.791   6.306   1.782 -2.1181  3.1125 -1.7773
   11MOL   H225 3245   1.847   6.445   1.879 -0.8116 -2.1561  2.0399
   11MOL   H226 3246   1.954   6.310   1.822 -0.4473  0.2157  0.7137
   11MOL   C227 3247   2.252   6.688   1.755 -0.3601 -0.6441  0.5027
   11MOL   C228 3248   2.379   6.781   1.782  0.3305  0.9145 -0.1968
   11MOL   C229 3249   2.448   6.823   1.655  0.0086  0.0727 -0.4908
   11MOL   O230 3250   2.425   6.933   1.602 -0.0803 -0.6289 -0.3911
   11MOL   O231 3251   2.529   6.732   1.600 -0.1232 -0.2897 -0.8019
   11MOL   C232 3252   2.614   6.758   1.491  0.7380 -0.0886 -0.3027
   11MOL   C233 3253   2.756   6.751   1.548 -0.3833  0.7413 -0.5262
   11MOL   H234 3254   2.201   6.672   1.851 -1.9295 -4.2740 -0.8468
   11MOL   H235 3255   2.284   6.595   1.710 -0.7816  0.0348 -1.2338
   11MOL   H236 3256   2.344   6.879   1.815 -0.5423  0.4699  0.2281
   11MOL   H237 3257   2.592   6.690   1.409 -1.0945  0.3710 -0.2317
   11MOL   H238 3258   2.604   6.856   1.443  0.6969  0.8852  1.6274
   11MOL   H239 3259   2.831   6.766   1.471  0.1224 -1.6637 -0.5556
   11MOL   H240 3260   2.778   6.652   1.588  1.9587  1.7292  0.7060
   11MOL   H241 3261   2.761   6.821   1.632  1.1624  0.0741 -0.0408
   11MOL   C242 3262   2.478   6.723   1.893  0.1273 -0.2521  0.2370
   11MOL   C243 3263   2.600   6.811   1.919 -0.2068 -0.2345 -0.6194
   11MOL   C244 3264   2.707   6.725   1.996  0.0173  0.2413 -0.5413
   11MOL   O245 3265   2.664   6.644   2.076 -0.3883 -0.1232  0.1582
   11MOL   O246 3266   2.831   6.753   1.970  0.0586 -1.0997  0.1830
   11MOL   C247 3267   2.932   6.667   2.009 -0.4197  1.2079 -0.0974
   11MOL   C248 3268   2.948   6.554   1.913 -0.1828  0.0697 -0.1027
   11MOL   H249 3269   2.423   6.737   1.986 -0.4976  2.9757 -0.5656
   11MOL   H250 3270   2.500   6.618   1.874  3.6513  1.0467 -3.6129
   11MOL   H251 3271   2.644   6.846   1.826 -1.9884 -0.6443 -1.6214
   11MOL   H252 3272   3.024   6.725   2.014  0.0269  0.4610  0.4730
   11MOL   H253 3273   2.928   6.639   2.115 -0.4137 -2.8418 -1.0960
   11MOL   H254 3274   2.854   6.499   1.916 -0.1466  0.0875  1.5870
   11MOL   H255 3275   3.031   6.489   1.938  1.7287  3.2217  2.1424
   11MOL   H256 3276   2.959   6.594   1.812  0.2081 -0.5659 -0.3118
   11MOL   C257 3277   2.580   6.945   1.992 -0.4487 -0.2607 -0.6745
   11MOL   C258 3278   2.701   7.047   1.996 -0.5736  0.4530 -0.6473
   11MOL   C259 3279   2.754   7.065   2.142  0.6531  0.3625 -0.1613
   11MOL   O260 3280   2.737   7.167   2.212 -0.1421  0.1804 -0.4736
   11MOL   O261 3281   2.829   6.959   2.181  0.1665  0.3636  0.1770
   11MOL   C262 3282   2.894   6.949   2.306 -0.4906  0.1603  0.0898
   11MOL   C263 3283   2.842   6.834   2.389  0.4053  0.6083  0.0942
   11MOL   H264 3284   2.496   6.998   1.947  0.4619  0.7640 -1.1969
   11MOL   H265 3285   2.530   6.925   2.087  1.5184 -1.3299  0.1501
   11MOL   H266 3286   2.789   7.012   1.942 -1.2296 -1.2371 -0.6658
   11MOL   H267 3287   3.001   6.945   2.288 -0.3458  1.2914  0.6605
   11MOL   H268 3288   2.879   7.038   2.367 -0.9928 -0.2784  0.6117
   11MOL   H269 3289   2.873   6.740   2.344  0.6200  1.0109 -0.6153
   11MOL   H270 3290   2.734   6.826   2.392  0.2981  0.6631 -2.2732
   11MOL   H271 3291   2.885   6.828   2.489 -2.9994  0.5103  1.5969
   11MOL   C272 3292   2.651   7.189   1.951  0.2223  1.0574  0.1847
   11MOL   C273 3293   2.604   7.198   1.805  0.5737  0.3296 -0.2246
   11MOL   C274 3294   2.728   7.214   1.717 -0.1075 -0.3344  0.1708
   11MOL   O275 3295   2.774   7.119   1.654  0.0123  0.3364  0.3231
   11MOL   O276 3296   2.781   7.335   1.729 -0.4140 -0.2925 -0.2817
   11MOL   C277 3297   2.918   7.346   1.714  0.7044  0.2001  0.7861
   11MOL   C278 3298   2.975   7.492   1.728  0.0746  0.5871 -0.4361
   11MOL   H279 3299   2.582   7.226   2.026  0.4800  0.7424  0.5727
   11MOL   H280 3300   2.732   7.262   1.959  0.6194  0.8612 -1.6813
   11MOL   H281 3301   2.553   7.109   1.768  0.5025  0.4318 -0.3775
   11MOL   H282 3302   2.950   7.283   1.798 -0.0158  0.3007  1.1379
   11MOL   H283 3303   2.951   7.310   1.617  0.4164  1.8903  0.0573
   11MOL   H284 3304   2.936   7.539   1.819 -0.2301  0.3623 -0.4512
   11MOL   H285 3305   2.950   7.548   1.638  0.6057 -0.7431 -1.4127
   11MOL   H286 3306   3.084   7.490   1.728  0.0388 -1.3776 -0.8959
   11MOL   C287 3307   2.495   7.298   1.781  0.3217  0.2749  0.7396
   11MOL   C288 3308   2.353   7.257   1.811  0.6713 -0.2924 -0.1784
   11MOL   C289 3309   2.309   7.245   1.953  0.4419  0.3803  0.2041
   11MOL   O290 3310   2.266   7.140   1.994 -0.1356  0.3165 -0.5539
   11MOL   O291 3311   2.333   7.352   2.024 -0.1793 -0.1317  0.4808
   11MOL   C292 3312   2.290   7.356   2.160 -0.7213 -0.4641 -0.7481
   11MOL   C293 3313   2.138   7.335   2.187  0.7622 -0.2818  0.2493
   11MOL   H294 3314   2.515   7.395   1.826  1.3240 -0.1736  1.2736
   11MOL   H295 3315   2.504   7.328   1.677  0.9619  0.6625  0.9072
   11MOL   H296 3316   2.285   7.323   1.757  1.2241  0.0257 -0.4993
   11MOL   H297 3317   2.348   7.276   2.208 -0.7214 -1.2321 -1.9909
   11MOL   H298 3318   2.321   7.445   2.215 -3.6007  0.5247 -0.6697
   11MOL   H299 3319   2.101   7.240   2.147 -0.1471  0.3080 -0.3395
   11MOL   H300 3320   2.081   7.421   2.152 -0.2806 -0.5408  1.2865
   11MOL   H301 3321   2.111   7.336   2.292  3.3913 -0.5064  0.9473
   11MOL   H302 3322   2.343   7.161   1.761 -1.4440  0.7285 -1.7979
   12MOL     C1 3323   0.282   1.329   6.952  0.1483 -0.1122  0.0917
   12MOL     C2 3324   0.243   1.479   6.933  0.1623  0.3917 -0.3127
   12MOL     C3 3325   0.235   1.552   7.071 -0.2361 -0.3065  0.1401
   12MOL     O4 3326   0.136   1.577   7.137  0.5209 -0.3169  0.4092
   12MOL     O5 3327   0.361   1.577   7.129  0.2989  0.4406 -0.4091
   12MOL     C6 3328   0.378   1.642   7.249 -0.8468 -0.3463  0.0528
   12MOL     C7 3329   0.376   1.793   7.229 -0.0976  0.0408  0.3223
   12MOL     H8 3330   0.200   1.264   6.922 -0.1614  0.4646 -0.3153
   12MOL     H9 3331   0.322   1.302   7.050 -2.0609  0.3394  1.1415
   12MOL    H10 3332   0.325   1.530   6.881  1.1346 -1.4262 -0.6089
   12MOL    H11 3333   0.300   1.610   7.317  1.3589  1.0437  3.3324
   12MOL    H12 3334   0.469   1.613   7.302 -0.4886  0.4093 -0.1328
   12MOL    H13 3335   0.322   1.838   7.312 -1.8414 -1.5251  0.0581
   12MOL    H14 3336   0.319   1.810   7.137  1.2722  0.3092 -0.4940
   12MOL    H15 3337   0.476   1.833   7.210 -0.0083  0.4250  1.6005
   12MOL    H16 3338   0.360   1.292   6.886  0.4731 -1.6268  1.2993
   12MOL    C17 3339   0.105   1.500   6.854  0.5698  0.1522 -0.0666
   12MOL    C18 3340   0.097   1.636   6.785  0.0047  0.4762 -0.2007
   12MOL    C19 3341   0.010   1.736   6.864  0.0751 -0.2847 -0.5888
   12MOL    O20 3342   0.059   1.827   6.932 -0.3030  0.0742 -0.4216
   12MOL    O21 3343   7.779   1.716   6.848  0.0032 -0.2672 -0.7202
   12MOL    C22 3344   7.695   1.808   6.920  0.8375  0.3217  0.5383
   12MOL    C23 3345   7.562   1.736   6.969 -1.2300 -0.0709  0.5412
   12MOL    H24 3346   0.106   1.423   6.776 -1.2479 -0.4960  0.5320
   12MOL    H25 3347   0.018   1.490   6.918 -0.5591  4.0125 -0.8717
   12MOL    H26 3348   0.200   1.670   6.772 -0.7741  2.5042 -1.3192
   12MOL    H27 3349   7.748   1.868   6.993  2.0968  0.1534 -0.2403
   12MOL    H28 3350   7.650   1.879   6.851 -0.2246  1.7730  2.6535
   12MOL    H29 3351   7.510   1.809   7.031 -0.2731  0.9085  0.2084
   12MOL    H30 3352   7.575   1.646   7.030 -2.0692 -0.7236 -0.2265
   12MOL    H31 3353   7.500   1.710   6.883  0.2509 -1.3655 -0.1708
   12MOL    C32 3354   0.048   1.626   6.640  0.4411 -0.0319  0.6046
   12MOL    C33 3355   0.149   1.586   6.532 -0.8740 -0.3278 -0.3845
   12MOL    C34 3356   0.266   1.684   6.506  0.2651 -0.7785  0.0291
   12MOL    O35 3357   0.260   1.765   6.416 -0.0909 -0.0948 -0.8380
   12MOL    O36 3358   0.352   1.678   6.612  0.1450  0.5628 -0.1067
   12MOL    C37 3359   0.465   1.760   6.612 -0.2986 -0.0686 -0.1522
   12MOL    C38 3360   0.486   1.823   6.753  0.8838 -0.2534  0.2061
   12MOL    H39 3361   7.879   1.550   6.653  1.5490 -1.2658  0.0749
   12MOL    H40 3362   0.012   1.726   6.617  2.2009  0.4744 -0.0325
   12MOL    H41 3363   0.181   1.487   6.564 -0.2329  0.2442  0.7742
   12MOL    H42 3364   0.552   1.698   6.592 -1.6076 -1.2430 -2.4144
   12MOL    H43 3365   0.463   1.837   6.534  0.7260  1.1042  0.9607
   12MOL    H44 3366   0.506   1.747   6.828  0.3734 -1.6723 -1.0621
   12MOL    H45 3367   0.400   1.885   6.780 -0.9251 -2.6675  0.1865
   12MOL    H46 3368   0.571   1.890   6.753 -1.1184  2.3895  0.5408
   12MOL    C47 3369   0.072   1.564   6.391 -0.2887  0.2674 -0.4660
   12MOL    C48 3370   7.883   1.442   6.369 -0.3963  0.5239  0.1579
   12MOL    C49 3371   0.032   1.316   6.414  1.1145  0.4937  0.4281
   12MOL    O50 3372   0.152   1.295   6.404  0.2854 -0.2454 -0.2835
   12MOL    O51 3373   7.842   1.238   6.466  0.6444  0.3182  0.5311
   12MOL    C52 3374   7.874   1.104   6.499 -0.1863  0.1492 -0.2682
   12MOL    C53 3375   7.829   1.083   6.648 -0.2897  0.2923 -0.2288
   12MOL    H54 3376   0.033   1.659   6.355  1.5581  0.2310 -2.6266
   12MOL    H55 3377   0.150   1.534   6.321 -0.3969 -1.2551  0.0457
   12MOL    H56 3378   7.800   1.468   6.435 -2.2844  0.9548 -2.3289
   12MOL    H57 3379   7.814   1.047   6.428 -1.3113 -0.8428  1.4332
   12MOL    H58 3380   0.068   1.069   6.491 -0.5442 -0.8106 -0.6558
   12MOL    H59 3381   7.850   0.980   6.676 -1.6153  0.2855  0.8157
   12MOL    H60 3382   7.727   1.108   6.679 -0.5855  1.1254 -1.8334
   12MOL    H61 3383   7.895   1.140   6.713 -1.5916  0.6133  0.8472
   12MOL    C62 3384   7.802   1.429   6.237  0.2013  0.2960 -0.0913
   12MOL    C63 3385   7.876   1.392   6.107  0.1890 -0.1059 -0.3653
   12MOL    C64 3386   0.063   1.499   6.051  0.0854 -0.2424 -0.2349
   12MOL    O65 3387   0.030   1.580   5.965  0.2834 -0.0115 -0.4023
   12MOL    O66 3388   0.187   1.484   6.093  0.7238 -0.0751  0.7525
   12MOL    C67 3389   0.297   1.532   6.019 -0.2487 -0.2086 -0.0618
   12MOL    C68 3390   0.338   1.674   6.052  0.3037 -0.8260  0.0936
   12MOL    H69 3391   7.717   1.362   6.248 -0.1395  0.8137  0.4578
   12MOL    H70 3392   7.769   1.532   6.231  2.9362  1.1523 -1.1699
   12MOL    H71 3393   0.022   1.301   6.132 -1.7074 -0.5962  2.1976
   12MOL    H72 3394   0.388   1.474   6.035 -0.3212 -0.7951 -1.7801
   12MOL    H73 3395   0.274   1.519   5.914 -3.3291  1.5187  0.3315
   12MOL    H74 3396   0.431   1.690   5.996 -0.5281 -1.3237 -1.4547
   12MOL    H75 3397   0.338   1.678   6.161 -0.6617  0.7912  0.0333
   12MOL    H76 3398   0.264   1.743   6.012 -0.9278 -1.9442  0.4103
   12MOL    C77 3399   7.776   1.352   5.994 -0.5864  0.5820  0.2012
   12MOL    C78 3400   7.837   1.282   5.872  0.1262  0.4242 -0.0384
   12MOL    C79 3401   7.752   1.305   5.742 -0.8382 -0.3355 -0.2544
   12MOL    O80 3402   7.627   1.293   5.732  0.6330  0.2030  0.1647
   12MOL    O81 3403   7.830   1.334   5.632 -0.3523  0.0128 -0.1831
   12MOL    C82 3404   7.765   1.368   5.512 -0.2265 -0.3115  0.0757
   12MOL    C83 3405   7.735   1.514   5.495  0.5367 -0.0359 -0.4059
   12MOL    H84 3406   7.704   1.282   6.035  1.7486 -2.8451 -1.3454
   12MOL    H85 3407   7.715   1.433   5.955  0.2680  0.4559 -1.4720
   12MOL    H86 3408   0.034   1.308   5.861 -0.0313  2.2928  2.6272
   12MOL    H87 3409   7.829   1.323   5.436 -0.1023  0.4070 -0.2442
   12MOL    H88 3410   7.674   1.307   5.500  0.6506 -1.4435 -0.9661
   12MOL    H89 3411   7.689   1.536   5.398  0.7488  0.3718 -0.4155
   12MOL    H90 3412   7.828   1.572   5.498  0.0936  0.7278 -0.9796
   12MOL    H91 3413   7.660   1.542   5.569  0.8360  0.8898 -0.4373
   12MOL    C92 3414   7.839   1.130   5.885  0.5206  0.3964  0.4649
   12MOL    C93 3415   0.015   1.063   5.999 -0.3721 -0.6581  0.5361
   12MOL    C94 3416   0.162   1.094   6.000  0.0203  0.7623  0.2067
   12MOL    O95 3417   0.213   1.168   6.086 -0.6129  0.5058 -0.1876
   12MOL    O96 3418   0.233   1.035   5.894 -0.4080  0.1762 -0.5533
   12MOL    C97 3419   0.375   1.036   5.890  0.7735  0.0001 -0.2081
   12MOL    C98 3420   0.436   0.976   5.769 -0.3011  0.0934 -0.0221
   12MOL    H99 3421   7.741   1.092   5.913 -0.0726  0.4644 -1.4390
   12MOL   H100 3422   7.862   1.086   5.788  3.2001 -1.6065  1.9427
   12MOL   H101 3423   7.884   1.104   6.092  1.2893 -0.2685  1.0984
   12MOL   H102 3424   0.412   1.138   5.901  1.1230 -0.1076 -0.3865
   12MOL   H103 3425   0.410   0.988   5.982 -1.2550 -1.4065 -0.1447
   12MOL   H104 3426   0.541   0.967   5.795 -0.3319  0.3376  0.1889
   12MOL   H105 3427   0.428   1.039   5.679 -0.5727 -0.5609 -0.4579
   12MOL   H106 3428   0.401   0.878   5.736  0.9557 -0.2962 -0.2414
   12MOL   C107 3429   7.901   0.914   6.023  0.1737 -0.3502  0.2079
   12MOL   C108 3430   0.029   0.819   5.904  0.3708 -0.0631  0.2795
   12MOL   C109 3431   7.810   0.783   5.821  0.2197 -0.1342 -0.4381
   12MOL   O110 3432   7.807   0.804   5.702 -0.0749 -0.2344  0.9165
   12MOL   O111 3433   7.712   0.728   5.895 -0.2953 -0.0079  0.0849
   12MOL   C112 3434   7.607   0.669   5.819  0.4191  0.8526 -0.2901
   12MOL   C113 3435   7.478   0.639   5.907 -0.4273  1.1263 -0.8988
   12MOL   H114 3436   0.052   0.883   6.109  0.4559 -1.2885 -0.3229
   12MOL   H115 3437   7.796   0.893   6.041 -0.4856  0.4955 -2.3852
   12MOL   H116 3438   0.090   0.885   5.842 -0.4505 -0.3612 -0.8706
   12MOL   H117 3439   7.577   0.735   5.738  1.0460  2.3504  0.6768
   12MOL   H118 3440   7.638   0.573   5.778 -0.2792  0.1855  0.6995
   12MOL   H119 3441   7.486   0.555   5.977  0.7363 -0.6399 -3.0706
   12MOL   H120 3442   7.397   0.616   5.838  1.0901  1.1299 -2.7316
   12MOL   H121 3443   7.447   0.728   5.960 -0.1588  1.6927 -1.6851
   12MOL   C122 3444   0.105   0.695   5.948  0.6219 -0.0670 -0.0579
   12MOL   C123 3445   0.222   0.623   5.868 -0.0332 -0.0333 -0.7023
   12MOL   C124 3446   0.183   0.581   5.727  0.0184  0.0752 -0.4145
   12MOL   O125 3447   0.261   0.608   5.637 -0.4343 -0.1369 -0.3461
   12MOL   O126 3448   0.068   0.514   5.724 -0.5267 -0.3329  0.1368
   12MOL   C127 3449   0.037   0.450   5.598 -0.1912  0.8477 -0.5242
   12MOL   C128 3450   7.813   0.497   5.519 -0.5202 -0.2263  0.4421
   12MOL   H129 3451   0.148   0.704   6.048  0.2167  1.3980 -0.0040
   12MOL   H130 3452   0.026   0.622   5.967  0.8751 -0.2207  0.4154
   12MOL   H131 3453   0.307   0.690   5.856 -0.5909  1.4629  2.9762
   12MOL   H132 3454   0.121   0.454   5.528 -0.5147  1.5570 -0.8868
   12MOL   H133 3455   0.022   0.345   5.625  0.4114  0.7789 -0.4530
   12MOL   H134 3456   7.804   0.455   5.420  2.6412  0.8874 -0.3833
   12MOL   H135 3457   7.815   0.605   5.502  0.4662 -0.3945 -0.5635
   12MOL   H136 3458   7.725   0.467   5.576 -0.2236  1.5495  1.9017
   12MOL   C137 3459   0.278   0.512   5.950 -0.1300  0.3771 -0.2806
   12MOL   C138 3460   0.386   0.548   6.061 -0.3510 -0.1181 -0.9545
   12MOL   C139 3461   0.513   0.606   6.003 -0.3437 -0.1789  0.4804
   12MOL   O140 3462   0.548   0.721   6.035  0.2297 -0.5978  0.1796
   12MOL   O141 3463   0.580   0.515   5.931  0.0659  0.2306  0.0063
   12MOL   C142 3464   0.698   0.560   5.866 -0.1673  0.3668  0.6482
   12MOL   C143 3465   0.674   0.652   5.742 -0.4172  0.2794  0.2385
   12MOL   H144 3466   0.203   0.455   6.006 -0.5941  0.0678 -1.2040
   12MOL   H145 3467   0.315   0.437   5.880 -1.6431 -1.6747  1.0405
   12MOL   H146 3468   0.345   0.632   6.116 -0.1461  0.7953 -2.1737
   12MOL   H147 3469   0.764   0.621   5.928  1.0834  0.6871 -0.9532
   12MOL   H148 3470   0.752   0.474   5.825 -0.1298  0.6947  0.0143
   12MOL   H149 3471   0.765   0.649   5.681 -1.0151  1.4289 -0.7198
   12MOL   H150 3472   0.643   0.748   5.781 -0.4881  0.5938 -0.5712
   12MOL   H151 3473   0.587   0.612   5.691  0.0097  1.0397 -1.1178
   12MOL   C152 3474   0.402   0.417   6.145 -0.3792 -0.4948 -0.0603
   12MOL   C153 3475   0.318   0.397   6.273 -0.6371  0.4839  0.2173
   12MOL   C154 3476   0.346   0.499   6.379  0.0476 -1.4598  0.4051
   12MOL   O155 3477   0.262   0.586   6.405 -0.0853  0.1016  0.1275
   12MOL   O156 3478   0.463   0.485   6.439  0.1453 -0.0791  0.4261
   12MOL   C157 3479   0.494   0.565   6.553 -0.2127  0.2112 -0.0904
   12MOL   C158 3480   0.432   0.498   6.671 -0.4088 -0.1806  0.0929
   12MOL   H159 3481   0.371   0.332   6.084  0.0739 -0.1683 -0.7566
   12MOL   H160 3482   0.509   0.400   6.158 -0.0067  1.6634 -0.1946
   12MOL   H161 3483   0.215   0.417   6.243  0.1094 -0.9809 -3.5331
   12MOL   H162 3484   0.602   0.552   6.559 -0.0776  1.4319  0.2862
   12MOL   H163 3485   0.464   0.669   6.539  1.2984  0.7491  0.4811
   12MOL   H164 3486   0.449   0.561   6.759  1.8915 -0.0624 -0.4080
   12MOL   H165 3487   0.473   0.398   6.683  0.1805 -0.3206 -2.7953
   12MOL   H166 3488   0.325   0.494   6.652 -0.4269 -1.1855  0.3608
   12MOL   C167 3489   0.324   0.256   6.323 -0.7265  0.6982  0.0958
   12MOL   C168 3490   0.226   0.215   6.434 -0.5081 -0.2663  0.0042
   12MOL   C169 3491   0.283   0.084   6.493 -0.9860 -0.2506 -0.0205
   12MOL   O170 3492   0.309   0.077   6.608 -0.5337  0.4222  0.2070
   12MOL   O171 3493   0.281   7.888   6.404  0.2763  0.0899  0.2886
   12MOL   C172 3494   0.308   7.751   6.440 -0.1477  0.1194 -0.5756
   12MOL   C173 3495   0.182   7.693   6.514 -0.0116  0.0372 -0.1409
   12MOL   H174 3496   0.302   0.189   6.240  0.9531 -0.7701  0.8229
   12MOL   H175 3497   0.424   0.224   6.352 -1.6796 -1.5608  0.9297
   12MOL   H176 3498   0.243   0.292   6.509 -1.1663 -0.9140  0.8187
   12MOL   H177 3499   0.340   7.704   6.347 -3.6158 -1.3723 -1.0846
   12MOL   H178 3500   0.385   7.739   6.515 -1.8899 -1.9580  0.9340
   12MOL   H179 3501   0.091   7.709   6.456  0.1568  1.5797  0.0088
   12MOL   H180 3502   0.174   7.748   6.607  1.6693  3.3837 -1.8933
   12MOL   H181 3503   0.203   7.591   6.546 -0.2840  1.2930  4.3074
   12MOL   C182 3504   0.072   0.200   6.401  0.1527  0.0264  0.9920
   12MOL   C183 3505   7.886   0.169   6.522 -0.5908 -0.5520  0.2923
   12MOL   C184 3506   7.746   0.140   6.472  0.3551 -0.1060 -0.5192
   12MOL   O185 3507   7.709   0.022   6.462  0.4186  0.0456 -0.2980
   12MOL   O186 3508   7.680   0.251   6.433  0.4822 -0.0155 -0.4529
   12MOL   C187 3509   7.554   0.238   6.373 -0.2039 -0.2189 -0.2420
   12MOL   C188 3510   7.553   0.276   6.224 -0.0858  0.2642  0.2992
   12MOL   H189 3511   0.038   0.282   6.337  1.8950 -0.3034 -0.3951
   12MOL   H190 3512   0.067   0.118   6.329  0.4382  0.9865 -0.1428
   12MOL   H191 3513   0.011   0.074   6.563  0.4373 -0.5906 -0.6232
   12MOL   H192 3514   7.507   0.141   6.392  0.0110 -0.0280  1.3835
   12MOL   H193 3515   7.508   0.321   6.428  2.3639  0.3471  1.1346
   12MOL   H194 3516   7.599   0.373   6.210  0.1903  0.1181  0.1889
   12MOL   H195 3517   7.454   0.293   6.181 -0.3535  0.2281  0.9054
   12MOL   H196 3518   7.611   0.198   6.175  0.4061 -0.0849  1.4194
   12MOL   C197 3519   7.884   0.293   6.622 -0.6045  0.1987 -0.6252
   12MOL   C198 3520   7.771   0.283   6.728  0.0656 -0.1189 -0.3284
   12MOL   C199 3521   7.759   0.414   6.815  0.7578  0.2890  0.4499
   12MOL   O200 3522   7.845   0.503   6.817  0.2560 -0.3909  0.2891
   12MOL   O201 3523   7.632   0.427   6.874  0.3934  0.0493  0.0148
   12MOL   C202 3524   7.593   0.543   6.958  0.3526 -0.2679  0.4707
   12MOL   C203 3525   7.551   0.658   6.863  0.9625 -0.1066  0.4961
   12MOL   H204 3526   0.074   0.310   6.665 -1.2668  0.7969  0.6863
   12MOL   H205 3527   7.865   0.387   6.569 -2.9647  0.0830 -0.0459
   12MOL   H206 3528   7.673   0.268   6.684 -1.0714  0.8866  1.8088
   12MOL   H207 3529   7.516   0.525   7.034 -0.6641  1.4226 -0.1184
   12MOL   H208 3530   7.676   0.581   7.017  1.4566 -2.2159  0.1981
   12MOL   H209 3531   7.634   0.686   6.798 -0.1678  0.3188 -0.7779
   12MOL   H210 3532   7.524   0.746   6.922  2.3148  0.6259  0.0495
   12MOL   H211 3533   7.468   0.629   6.799  1.2908  1.2709 -0.5896
   12MOL   C212 3534   7.795   0.168   6.827  0.5861  0.8576 -0.8680
   12MOL   C213 3535   7.698   0.041   6.810 -0.6929  0.2752 -0.0328
   12MOL   C214 3536   7.552   0.060   6.851  0.6444 -0.0267 -0.2391
   12MOL   O215 3537   7.466   0.084   6.763  0.4738 -0.2559 -0.1476
   12MOL   O216 3538   7.533   0.065   6.991  0.5228  0.0052 -0.6421
   12MOL   C217 3539   7.398   0.082   7.036  0.1686 -0.0321 -0.4826
   12MOL   C218 3540   7.344   0.223   7.022 -0.3606  0.5771 -0.1848
   12MOL   H219 3541   7.903   0.159   6.821  0.5973 -0.2886  0.6910
   12MOL   H220 3542   7.791   0.207   6.928  0.4037 -1.2630 -0.0367
   12MOL   H221 3543   7.699   0.016   6.704 -1.1292 -3.8165  0.8741
   12MOL   H222 3544   7.327   0.026   6.975 -0.7935  0.3966  0.2241
   12MOL   H223 3545   7.387   0.051   7.140  3.1812  0.3584 -0.0110
   12MOL   H224 3546   7.413   0.291   7.073  1.1711 -1.0957  0.0413
   12MOL   H225 3547   7.250   0.224   7.078 -0.9431  1.0132 -1.1609
   12MOL   H226 3548   7.327   0.266   6.924  3.2290  3.6583  0.4117
   12MOL   C227 3549   7.779   7.827   6.866 -0.2950  0.4367 -0.2091
   12MOL   C228 3550   7.725   7.684   6.839  0.3617 -0.4095 -0.0738
   12MOL   C229 3551   7.650   7.631   6.955  0.3920 -0.8550 -1.2214
   12MOL   O230 3552   7.533   7.584   6.945 -0.9206 -0.2525 -0.2660
   12MOL   O231 3553   7.715   7.642   7.074 -0.3046 -0.1224 -0.3339
   12MOL   C232 3554   7.648   7.611   7.200 -0.3269  0.5375  0.2626
   12MOL   C233 3555   7.560   7.717   7.265  0.2279 -0.1095  0.6112
   12MOL   H234 3556   7.871   7.827   6.808 -0.2643  1.5782 -0.1852
   12MOL   H235 3557   7.808   7.846   6.969  2.7454 -3.5788 -0.2263
   12MOL   H236 3558   7.655   7.686   6.755 -0.2724  0.8335  0.4574
   12MOL   H237 3559   7.595   7.517   7.188  1.6044 -0.1499 -3.4872
   12MOL   H238 3560   7.733   7.605   7.268  0.5033 -0.7221 -0.8476
   12MOL   H239 3561   7.529   7.676   7.361  1.3857  1.8218  1.8428
   12MOL   H240 3562   7.476   7.737   7.198  0.6754  2.5308  0.7566
   12MOL   H241 3563   7.609   7.813   7.284  1.5448 -0.5894 -0.3429
   12MOL   C242 3564   7.846   7.586   6.806 -0.0719 -0.7203 -0.4377
   12MOL   C243 3565   7.814   7.455   6.727  0.7445 -0.0549 -0.2258
   12MOL   C244 3566   7.748   7.477   6.594  0.9143 -0.9916 -0.1597
   12MOL   O245 3567   7.798   7.449   6.490 -0.5134  0.8279  0.1885
   12MOL   O246 3568   7.624   7.534   6.603  0.0592 -0.1863 -0.1065
   12MOL   C247 3569   7.553   7.576   6.489 -0.5635 -0.5164  0.8767
   12MOL   C248 3570   7.456   7.679   6.536  0.2773  0.9047 -0.0393
   12MOL   H249 3571   0.000   7.640   6.736 -2.3602  1.3255 -0.9726
   12MOL   H250 3572   7.899   7.566   6.899  0.8535  1.0960 -0.5636
   12MOL   H251 3573   0.001   7.414   6.695  0.6292  0.4473 -1.2244
   12MOL   H252 3574   7.623   7.612   6.415  1.2710 -2.8669  1.4092
   12MOL   H253 3575   7.502   7.486   6.453  2.0217 -1.6458 -0.0291
   12MOL   H254 3576   7.387   7.640   6.611  0.1640  1.4039  0.1137
   12MOL   H255 3577   7.394   7.722   6.458 -0.6145  0.7747  0.5875
   12MOL   H256 3578   7.519   7.758   6.576  3.2891 -0.6413 -1.4783
   12MOL   C257 3579   7.739   7.340   6.803  0.1129 -0.3530 -0.1337
   12MOL   C258 3580   7.792   7.198   6.774 -0.3068 -0.2489  0.0891
   12MOL   C259 3581   0.029   7.186   6.799 -0.1993 -0.7946  0.5647
   12MOL   O260 3582   0.101   7.184   6.702 -0.3679 -0.1997  0.3676
   12MOL   O261 3583   0.059   7.180   6.924  0.1395  0.1767 -0.0682
   12MOL   C262 3584   0.191   7.151   6.953  0.4854  0.2885 -0.0170
   12MOL   C263 3585   0.217   7.125   7.105  0.1647  0.0854 -0.0101
   12MOL   H264 3586   7.765   7.362   6.906  0.7956  0.0889 -0.3924
   12MOL   H265 3587   7.630   7.336   6.796  0.0683 -1.3970  1.0243
   12MOL   H266 3588   7.740   7.141   6.851  0.0026  0.3061  0.7186
   12MOL   H267 3589   0.232   7.065   6.900  0.7288  1.0333 -1.0517
   12MOL   H268 3590   0.254   7.234   6.920  0.2988  0.1544 -0.7206
   12MOL   H269 3591   0.148   7.054   7.151  0.5023 -1.1287 -1.3191
   12MOL   H270 3592   0.203   7.222   7.152  1.6887  0.2404  0.1659
   12MOL   H271 3593   0.323   7.102   7.120 -0.1586  0.3981  2.9654
   12MOL   C272 3594   7.756   7.134   6.640  0.4549  0.1342 -0.0180
   12MOL   C273 3595   7.601   7.119   6.603 -0.0004  0.1516  0.3622
   12MOL   C274 3596   7.527   7.008   6.681  0.4603  0.4362  0.0568
   12MOL   O275 3597   7.421   7.038   6.734 -0.2188  0.9314 -0.0792
   12MOL   O276 3598   7.593   6.890   6.698  0.3659  0.3238 -0.4582
   12MOL   C277 3599   7.527   6.781   6.763  0.1337 -0.9885 -0.3910
   12MOL   C278 3600   7.572   6.655   6.693  0.5605  0.1603 -0.0225
   12MOL   H279 3601   7.813   7.192   6.567  1.4260  0.5316  1.0506
   12MOL   H280 3602   7.790   7.031   6.639  1.5115  0.4637  1.2764
   12MOL   H281 3603   7.554   7.217   6.613  1.5457  0.8295  1.0019
   12MOL   H282 3604   7.565   6.774   6.865 -4.0314 -0.0941  1.3308
   12MOL   H283 3605   7.419   6.793   6.772 -0.2878 -3.0003 -2.4324
   12MOL   H284 3606   7.527   6.655   6.594 -0.1000 -2.4417  0.2526
   12MOL   H285 3607   7.524   6.576   6.751 -0.9053  1.4978  0.6302
   12MOL   H286 3608   7.680   6.648   6.680  0.5339 -0.4954  0.1202
   12MOL   C287 3609   7.595   7.089   6.453  0.7547 -0.2895 -0.5907
   12MOL   C288 3610   7.464   7.139   6.390  0.2777  0.0302 -0.4722
   12MOL   C289 3611   7.452   7.109   6.242 -0.5594 -0.3302  0.7343
   12MOL   O290 3612   7.528   7.033   6.182  0.4466 -0.3469 -0.4773
   12MOL   O291 3613   7.353   7.188   6.185 -0.0630 -0.6009 -0.1299
   12MOL   C292 3614   7.330   7.178   6.046 -0.4120  0.1446 -0.1451
   12MOL   C293 3615   7.222   7.266   5.988 -0.2793 -0.1592  0.4527
   12MOL   H294 3616   7.683   7.133   6.407  0.3033  0.3644 -0.8311
   12MOL   H295 3617   7.600   6.981   6.442  0.2117 -0.3682 -0.0893
   12MOL   H296 3618   7.380   7.084   6.432 -0.5760  0.9881 -0.8990
   12MOL   H297 3619   7.421   7.175   5.987 -1.3449 -2.6660 -1.5482
   12MOL   H298 3620   7.285   7.079   6.037 -0.6017  0.3623 -1.7562
   12MOL   H299 3621   7.133   7.241   6.045 -0.1304 -0.1683  0.6803
   12MOL   H300 3622   7.207   7.247   5.882 -0.0288 -0.6610  0.5044
   12MOL   H301 3623   7.246   7.370   6.012  0.0466 -0.8087  3.0727
   12MOL   H302 3624   7.457   7.248   6.393 -1.1402 -0.0851  2.2014
   13MOL     C1 3625   4.773   5.116   0.150  0.3566  0.3320 -0.3039
   13MOL     C2 3626   4.909   5.049   0.131  0.2175  0.5598 -1.1408
   13MOL     C3 3627   4.933   5.021   7.896 -0.7342  0.8268 -0.7336
   13MOL     O4 3628   4.999   5.103   7.830 -0.3089 -0.0692 -0.5099
   13MOL     O5 3629   4.876   4.905   7.853 -0.2172 -0.6247  0.2303
   13MOL     C6 3630   4.868   4.885   7.707  0.7077 -0.1350 -0.3649
   13MOL     C7 3631   4.969   4.804   7.643  0.1753  0.2596 -0.0993
   13MOL     H8 3632   4.760   5.215   0.107 -0.1009  0.0081 -0.9258
   13MOL     H9 3633   4.751   5.133   0.256  0.3205 -0.9118 -0.1046
   13MOL    H10 3634   4.980   5.122   0.170  0.3717 -0.1840 -0.0082
   13MOL    H11 3635   4.768   4.842   7.697  1.0079 -1.4989  2.1227
   13MOL    H12 3636   4.863   4.985   7.664  2.7533  0.8058  1.4940
   13MOL    H13 3637   4.941   4.768   7.544 -0.0429 -0.8298  0.3474
   13MOL    H14 3638   4.973   4.710   7.699 -2.3818 -2.2829 -3.9634
   13MOL    H15 3639   5.066   4.851   7.657  0.4413 -0.2034 -0.3483
   13MOL    H16 3640   4.692   5.051   0.114  1.5903 -0.9861 -0.7337
   13MOL    C17 3641   4.936   4.923   0.219  0.3651  0.1255 -0.1326
   13MOL    C18 3642   5.081   4.866   0.205 -0.2580 -0.2531  0.6264
   13MOL    C19 3643   5.101   4.728   0.259  0.8943 -0.8765 -0.4907
   13MOL    O20 3644   5.063   4.634   0.190  0.4384  0.0701  0.1055
   13MOL    O21 3645   5.120   4.727   0.392 -0.5393  0.1820  0.0116
   13MOL    C22 3646   5.091   4.606   0.463 -0.1889 -0.0072  0.1567
   13MOL    C23 3647   5.212   4.510   0.458 -0.4945 -0.0794  0.4470
   13MOL    H24 3648   4.913   4.939   0.325 -3.6374  0.0417 -0.8867
   13MOL    H25 3649   4.863   4.845   0.199  0.5144 -0.1396  0.3443
   13MOL    H26 3650   5.106   4.851   0.100  3.1782  2.3176  0.9817
   13MOL    H27 3651   5.076   4.618   0.571 -1.2474  0.4322 -0.0346
   13MOL    H28 3652   5.002   4.563   0.418 -0.2059 -0.1324  0.3070
   13MOL    H29 3653   5.296   4.562   0.505 -1.4204  1.2655  0.6486
   13MOL    H30 3654   5.241   4.484   0.356 -0.7060  0.7912  0.1587
   13MOL    H31 3655   5.185   4.418   0.509  1.1068 -0.5207  0.5481
   13MOL    C32 3656   5.188   4.967   0.262  0.5545 -0.6306  0.6940
   13MOL    C33 3657   5.252   5.066   0.165  0.1605 -0.3798 -0.0203
   13MOL    C34 3658   5.340   4.995   0.062 -0.3111 -0.6644  0.0414
   13MOL    O35 3659   5.431   4.924   0.095 -0.0147  0.9784  0.1822
   13MOL    O36 3660   5.311   5.026   7.840  0.0594 -0.1365  0.6479
   13MOL    C37 3661   5.389   4.974   7.729 -0.2323  0.0779 -1.0291
   13MOL    C38 3662   5.346   5.025   7.593 -0.4936 -0.3912  0.2368
   13MOL    H39 3663   5.148   5.016   0.351  2.6378  0.3807  1.1077
   13MOL    H40 3664   5.272   4.917   0.310  0.5080 -0.8330  0.5651
   13MOL    H41 3665   5.170   5.110   0.108  0.4132  1.0506  0.7034
   13MOL    H42 3666   5.494   4.981   7.756 -1.1299  0.6058  2.6119
   13MOL    H43 3667   5.366   4.867   7.727  0.4026 -0.0694 -0.5642
   13MOL    H44 3668   5.419   4.986   7.522  0.0524 -0.3306  0.7599
   13MOL    H45 3669   5.353   5.134   7.587  1.4842 -0.4483  0.8988
   13MOL    H46 3670   5.246   4.992   7.568 -1.2012  1.9749 -0.2157
   13MOL    C47 3671   5.325   5.176   0.244  0.4101 -1.1908  0.4905
   13MOL    C48 3672   5.243   5.269   0.338 -0.5163  0.1552  0.3394
   13MOL    C49 3673   5.121   5.336   0.270  0.0865 -0.6199 -0.0522
   13MOL    O50 3674   5.000   5.314   0.295  0.5175  0.0772 -0.2992
   13MOL    O51 3675   5.165   5.432   0.182  0.0515 -0.5877 -0.1680
   13MOL    C52 3676   5.070   5.537   0.144  0.6712  0.0605 -0.6430
   13MOL    C53 3677   5.100   5.671   0.223  0.1361 -0.1643 -0.9625
   13MOL    H54 3678   5.396   5.122   0.305  0.9954  0.0468  0.9142
   13MOL    H55 3679   5.379   5.230   0.166 -1.8866 -0.2894 -0.5612
   13MOL    H56 3680   5.214   5.204   0.420 -4.4010  0.3044 -0.8236
   13MOL    H57 3681   5.070   5.560   0.037 -3.5658 -0.9507 -0.9170
   13MOL    H58 3682   4.972   5.491   0.149 -0.0814  1.6864  0.1226
   13MOL    H59 3683   5.205   5.699   0.213  0.1064  0.7496  1.0079
   13MOL    H60 3684   5.089   5.628   0.322 -2.5667 -0.1778 -1.2327
   13MOL    H61 3685   5.042   5.757   0.189 -0.9566  0.6769  2.7813
   13MOL    C62 3686   5.326   5.384   0.403  0.4167 -0.1978 -0.3235
   13MOL    C63 3687   5.428   5.338   0.506 -0.3792  0.0305 -0.9774
   13MOL    C64 3688   5.373   5.335   0.648 -0.1296 -0.5645 -0.0467
   13MOL    O65 3689   5.423   5.405   0.742 -0.1909 -0.5781 -0.1717
   13MOL    O66 3690   5.260   5.254   0.666 -0.0692  0.6595  0.3656
   13MOL    C67 3691   5.183   5.275   0.782 -0.6894  0.0084  0.1287
   13MOL    C68 3692   5.085   5.388   0.783 -0.2316 -0.5763 -0.8332
   13MOL    H69 3693   5.376   5.442   0.326  0.0913 -0.1976 -0.5355
   13MOL    H70 3694   5.254   5.451   0.450 -1.4423 -2.3242 -0.0245
   13MOL    H71 3695   5.450   5.233   0.484  2.2687  0.8073 -2.2863
   13MOL    H72 3696   5.139   5.175   0.779 -0.9431  0.1616 -1.4880
   13MOL    H73 3697   5.256   5.288   0.862  0.6631 -0.9851 -0.9008
   13MOL    H74 3698   5.135   5.475   0.740 -2.5578  1.1465 -0.1390
   13MOL    H75 3699   5.051   5.408   0.885  1.8570  2.6552 -0.6868
   13MOL    H76 3700   5.001   5.369   0.717  0.0348 -2.1242 -0.7539
   13MOL    C77 3701   5.564   5.413   0.511  0.1864 -0.9342  0.4566
   13MOL    C78 3702   5.653   5.381   0.389  0.1985 -0.1077  0.8144
   13MOL    C79 3703   5.708   5.236   0.393 -0.5701  0.4497  0.3325
   13MOL    O80 3704   5.726   5.182   0.503  0.0516  0.1968  0.0188
   13MOL    O81 3705   5.724   5.188   0.265 -0.0612 -0.4051  0.3098
   13MOL    C82 3706   5.777   5.056   0.244 -0.9103  0.0121 -0.4026
   13MOL    C83 3707   5.930   5.075   0.239 -0.6995  0.6448  0.3114
   13MOL    H84 3708   5.532   5.517   0.509 -1.2936 -1.3832 -0.0280
   13MOL    H85 3709   5.620   5.403   0.604 -0.5844  1.2994  1.1971
   13MOL    H86 3710   5.595   5.384   0.297  0.6964 -1.1862  0.4648
   13MOL    H87 3711   5.733   4.991   0.320 -0.0247 -0.6663 -0.4656
   13MOL    H88 3712   5.740   5.018   0.148 -0.8237 -0.8566 -0.0996
   13MOL    H89 3713   5.961   4.978   0.199  0.6105  0.0641  2.6125
   13MOL    H90 3714   5.972   5.108   0.334  0.8258  0.9021 -0.4368
   13MOL    H91 3715   5.954   5.153   0.167 -0.3994 -0.5079 -0.8524
   13MOL    C92 3716   5.759   5.487   0.380 -0.3674 -0.8562 -0.0281
   13MOL    C93 3717   5.852   5.501   0.507 -0.3496  0.1449 -0.7025
   13MOL    C94 3718   5.864   5.650   0.535  0.3538 -0.6814  0.2389
   13MOL    O95 3719   5.848   5.743   0.455 -0.3454  0.2476 -0.6841
   13MOL    O96 3720   5.892   5.668   0.661 -0.4670 -0.3942  0.3382
   13MOL    C97 3721   5.909   5.796   0.720 -0.7700  0.7972  0.6263
   13MOL    C98 3722   5.899   5.775   0.872  0.3421 -0.2318 -0.2710
   13MOL    H99 3723   5.826   5.476   0.295 -0.4071  0.1021 -0.1819
   13MOL   H100 3724   5.706   5.577   0.350 -0.9023 -0.6209  1.5843
   13MOL   H101 3725   5.812   5.445   0.591  2.9961 -0.1548  0.7989
   13MOL   H102 3726   6.008   5.832   0.691 -0.0813 -1.1190  0.5500
   13MOL   H103 3727   5.830   5.859   0.680 -0.8833  0.9507  1.0987
   13MOL   H104 3728   5.984   5.719   0.911  0.5624  0.2677 -0.0351
   13MOL   H105 3729   5.802   5.732   0.895 -0.9526  1.3629 -2.5439
   13MOL   H106 3730   5.890   5.875   0.914  0.2699 -0.1599 -0.4525
   13MOL   C107 3731   5.999   5.438   0.482  0.3585 -0.2781  0.2526
   13MOL   C108 3732   6.080   5.417   0.611  0.1845 -0.2273  0.1518
   13MOL   C109 3733   6.183   5.526   0.644  0.1396  0.1032 -0.3088
   13MOL   O110 3734   6.208   5.624   0.563  0.5012  0.1729  0.2691
   13MOL   O111 3735   6.241   5.500   0.763 -0.2187 -0.4140 -0.5798
   13MOL   C112 3736   6.342   5.597   0.808  0.3802  0.0758  0.1754
   13MOL   C113 3737   6.272   5.674   0.915  0.3380 -0.4972  0.1727
   13MOL   H114 3738   5.992   5.337   0.440  2.2018  0.4657 -1.9934
   13MOL   H115 3739   6.054   5.508   0.419 -3.9061  1.3490 -1.8938
   13MOL   H116 3740   6.006   5.430   0.691 -0.7041  0.5984 -0.7780
   13MOL   H117 3741   6.402   5.522   0.860 -2.3391 -1.5134  1.1107
   13MOL   H118 3742   6.398   5.653   0.733  1.1432 -1.4857 -0.4279
   13MOL   H119 3743   6.205   5.744   0.865 -2.5689 -2.6817  0.8648
   13MOL   H120 3744   6.343   5.721   0.983  2.6893 -3.5274 -0.0715
   13MOL   H121 3745   6.215   5.609   0.982 -0.3298 -0.1365 -0.0410
   13MOL   C122 3746   6.139   5.280   0.618 -0.1068 -0.1182 -0.5083
   13MOL   C123 3747   6.048   5.158   0.640  0.4173  0.6054  0.3100
   13MOL   C124 3748   5.971   5.163   0.776  0.6138  0.2271  0.3472
   13MOL   O125 3749   6.016   5.111   0.874 -0.1861 -0.0087 -0.1874
   13MOL   O126 3750   5.861   5.237   0.767  0.1148 -0.6017 -0.1788
   13MOL   C127 3751   5.763   5.246   0.871  0.3271  0.1013 -0.4327
   13MOL   C128 3752   5.753   5.382   0.940 -0.2687 -0.1236 -0.1375
   13MOL   H129 3753   6.186   5.258   0.522 -0.6862  1.4363 -1.1573
   13MOL   H130 3754   6.221   5.277   0.691 -1.3820 -1.7360  0.9037
   13MOL   H131 3755   5.982   5.142   0.554  0.7740 -0.6646  0.2585
   13MOL   H132 3756   5.664   5.228   0.829 -0.3520 -1.6901  1.8574
   13MOL   H133 3757   5.780   5.168   0.945 -0.5184  0.0905 -0.2468
   13MOL   H134 3758   5.770   5.464   0.871 -0.2830  1.4397  1.6783
   13MOL   H135 3759   5.836   5.395   1.010 -0.5338  0.6550  0.0289
   13MOL   H136 3760   5.660   5.387   0.996 -1.2306  1.8445 -1.8651
   13MOL   C137 3761   6.137   5.036   0.631 -0.1952 -0.1036 -0.1855
   13MOL   C138 3762   6.081   4.894   0.640 -0.0169  0.1905  0.4531
   13MOL   C139 3763   6.191   4.791   0.630 -0.2515 -0.4886 -0.5630
   13MOL   O140 3764   6.181   4.684   0.692 -0.0289  0.2889  0.0808
   13MOL   O141 3765   6.293   4.822   0.548  0.1982  0.0866 -0.7377
   13MOL   C142 3766   6.413   4.747   0.546  0.4121  0.1501  0.3725
   13MOL   C143 3767   6.488   4.770   0.422  0.5250  0.1045  0.4032
   13MOL   H144 3768   6.194   5.049   0.540  1.5359  0.5742  0.9698
   13MOL   H145 3769   6.212   5.050   0.709 -0.7375  0.9118  0.1716
   13MOL   H146 3770   6.041   4.870   0.739  0.2939  0.1055  0.5600
   13MOL   H147 3771   6.457   4.779   0.641  0.9202 -0.9519  0.5123
   13MOL   H148 3772   6.394   4.641   0.565  2.4076 -0.5689 -1.4915
   13MOL   H149 3773   6.564   4.692   0.414 -1.0368 -1.5474  1.2057
   13MOL   H150 3774   6.540   4.866   0.418  0.7420  0.0108  0.9145
   13MOL   H151 3775   6.428   4.758   0.332  1.4991  2.7097 -0.6400
   13MOL   C152 3776   5.979   4.861   0.531  0.4137 -0.7693  0.2574
   13MOL   C153 3777   5.882   4.743   0.554  0.4723  0.2361  0.3099
   13MOL   C154 3778   5.826   4.692   0.420 -0.5675 -0.5055 -0.6489
   13MOL   O155 3779   5.851   4.757   0.319 -0.1138 -0.0305  0.5353
   13MOL   O156 3780   5.757   4.574   0.431  0.3993  0.0265 -0.6126
   13MOL   C157 3781   5.674   4.518   0.330 -0.2683 -0.3598 -0.0865
   13MOL   C158 3782   5.599   4.395   0.380  0.1881  0.0452  0.4407
   13MOL   H159 3783   5.912   4.946   0.520  0.3366 -0.8638  0.0058
   13MOL   H160 3784   6.023   4.873   0.432  0.2032 -0.0177  0.2521
   13MOL   H161 3785   5.946   4.665   0.595 -0.0709  0.8727  2.4583
   13MOL   H162 3786   5.609   4.596   0.291  1.3564  0.1218 -1.9340
   13MOL   H163 3787   5.741   4.479   0.252 -0.4391  1.7240 -1.3091
   13MOL   H164 3788   5.517   4.402   0.451 -1.2052  0.6492 -1.2009
   13MOL   H165 3789   5.657   4.307   0.409  0.3102 -0.3760 -1.0524
   13MOL   H166 3790   5.547   4.358   0.292  1.2739  0.7924 -0.5285
   13MOL   C167 3791   5.778   4.764   0.661  0.0223 -1.3391 -0.4520
   13MOL   C168 3792   5.812   4.729   0.800 -0.3497  0.3673  0.1451
   13MOL   C169 3793   5.767   4.582   0.818 -0.2857  0.2384 -0.1534
   13MOL   O170 3794   5.681   4.541   0.892  0.1362 -0.2874  0.0062
   13MOL   O171 3795   5.844   4.505   0.741 -0.0158 -0.2150  0.1654
   13MOL   C172 3796   5.836   4.367   0.734 -0.0199 -0.1905 -0.3746
   13MOL   C173 3797   5.941   4.316   0.837  0.1141 -0.0620 -0.0474
   13MOL   H174 3798   5.749   4.868   0.667  2.3272 -0.5720 -1.8869
   13MOL   H175 3799   5.690   4.710   0.627  0.0371 -1.3778 -0.4311
   13MOL   H176 3800   5.921   4.721   0.800 -0.4614 -1.4236 -0.5365
   13MOL   H177 3801   5.735   4.331   0.754  0.4226 -0.8756  0.6668
   13MOL   H178 3802   5.868   4.344   0.632 -0.4265 -0.0684 -0.5296
   13MOL   H179 3803   5.945   4.207   0.833 -0.0240 -0.0909  0.5778
   13MOL   H180 3804   5.919   4.351   0.938 -2.4631  2.4199 -1.4058
   13MOL   H181 3805   6.036   4.362   0.811 -0.0955  0.5722  0.2878
   13MOL   C182 3806   5.760   4.825   0.911  0.2089 -0.3329 -0.1088
   13MOL   C183 3807   5.824   4.801   1.049  0.0157  0.3799 -0.1703
   13MOL   C184 3808   5.753   4.888   1.159  0.6589 -0.1979  0.2893
   13MOL   O185 3809   5.646   4.951   1.152  0.4771 -0.5064  0.4613
   13MOL   O186 3810   5.834   4.883   1.269  0.1330  0.3785 -0.0540
   13MOL   C187 3811   5.796   4.954   1.385  0.2961 -0.4887 -0.5537
   13MOL   C188 3812   5.900   4.946   1.496 -0.0921 -0.0628 -0.0643
   13MOL   H189 3813   5.794   4.926   0.888 -0.9311  0.4165  1.3580
   13MOL   H190 3814   5.651   4.836   0.910  0.4558  3.2691  1.3722
   13MOL   H191 3815   5.809   4.698   1.082  1.2959  0.8932  2.1271
   13MOL   H192 3816   5.778   5.056   1.352  2.0632 -0.0821 -0.3063
   13MOL   H193 3817   5.700   4.905   1.400  0.3932 -0.6955 -0.6017
   13MOL   H194 3818   5.879   5.032   1.560  2.0619 -1.1472  2.2232
   13MOL   H195 3819   6.005   4.954   1.469 -0.4864 -0.4370 -1.7464
   13MOL   H196 3820   5.879   4.858   1.556  1.5203 -0.4743 -0.0890
   13MOL   C197 3821   5.974   4.827   1.045  0.4179 -0.1698 -0.1935
   13MOL   C198 3822   6.067   4.745   1.146 -0.1716 -0.7118  0.1639
   13MOL   C199 3823   6.196   4.821   1.179 -0.5352  0.4443 -0.6753
   13MOL   O200 3824   6.282   4.841   1.092 -0.1249  0.3156  0.1273
   13MOL   O201 3825   6.200   4.868   1.313  0.3991  0.8417 -0.2116
   13MOL   C202 3826   6.310   4.948   1.355  0.6773  0.7510 -0.2231
   13MOL   C203 3827   6.415   4.886   1.437  0.1506 -0.0608 -0.5421
   13MOL   H204 3828   6.022   4.817   0.948  1.8745  0.7461  0.4273
   13MOL   H205 3829   5.990   4.934   1.060 -1.7493  0.4422 -1.8650
   13MOL   H206 3830   6.017   4.736   1.243 -0.1749 -1.8859  0.0599
   13MOL   H207 3831   6.363   4.999   1.274  0.7284 -2.3691 -2.2557
   13MOL   H208 3832   6.266   5.023   1.420  1.8572  0.9892  0.3224
   13MOL   H209 3833   6.471   4.955   1.501 -1.0739  0.4385  0.0122
   13MOL   H210 3834   6.497   4.838   1.385  0.3247 -1.5339  1.0263
   13MOL   H211 3835   6.375   4.809   1.504  2.2846 -1.5126 -0.8845
   13MOL   C212 3836   6.084   4.600   1.089  0.8492 -0.7052  0.6225
   13MOL   C213 3837   6.182   4.513   1.168 -0.5746  0.7242 -0.4025
   13MOL   C214 3838   6.192   4.378   1.108 -0.1818 -0.4673  0.3991
   13MOL   O215 3839   6.269   4.347   1.019  0.1398  0.1586 -0.5158
   13MOL   O216 3840   6.107   4.289   1.171  0.1881 -0.0423 -0.7896
   13MOL   C217 3841   6.093   4.153   1.132  0.7594 -0.3357  0.0058
   13MOL   C218 3842   6.188   4.082   1.226 -0.3084 -0.2391  0.0385
   13MOL   H219 3843   5.991   4.544   1.085  1.1388 -1.2836  2.0472
   13MOL   H220 3844   6.117   4.607   0.985 -1.4286 -0.2527 -0.1044
   13MOL   H221 3845   6.284   4.548   1.151  0.1430 -1.5232 -0.8544
   13MOL   H222 3846   5.997   4.103   1.145 -0.2568  2.2415  3.0237
   13MOL   H223 3847   6.120   4.137   1.028 -0.6608 -2.8218 -0.0166
   13MOL   H224 3848   6.156   4.097   1.329  2.6600 -1.2108  1.1767
   13MOL   H225 3849   6.289   4.118   1.209 -0.0569  0.4883  2.7797
   13MOL   H226 3850   6.195   3.974   1.212  0.0129 -0.1625 -0.3944
   13MOL   C227 3851   6.158   4.498   1.322  0.3679  0.7095 -0.3382
   13MOL   C228 3852   6.268   4.423   1.406 -0.4308  0.3473  0.5970
   13MOL   C229 3853   6.207   4.359   1.534  0.7012 -0.4391 -0.0332
   13MOL   O230 3854   6.197   4.236   1.546  0.0605 -0.0473 -0.8907
   13MOL   O231 3855   6.161   4.452   1.624  0.2370 -0.2497  0.0307
   13MOL   C232 3856   6.121   4.407   1.756  0.4081  0.4985  0.0385
   13MOL   C233 3857   5.976   4.444   1.774  0.3289  0.2057  0.3541
   13MOL   H234 3858   6.160   4.598   1.365 -0.1184  0.2850  0.7054
   13MOL   H235 3859   6.060   4.451   1.332  0.8550 -0.0620  1.0552
   13MOL   H236 3860   6.269   4.327   1.353 -0.0890  0.9435 -0.4885
   13MOL   H237 3861   6.135   4.300   1.770 -3.7049 -0.0641  0.4034
   13MOL   H238 3862   6.197   4.445   1.824  1.1125 -1.3443  0.3031
   13MOL   H239 3863   5.950   4.546   1.747 -3.1440 -0.7184  0.0277
   13MOL   H240 3864   5.957   4.433   1.881 -0.5900 -0.6300  0.1210
   13MOL   H241 3865   5.911   4.374   1.722  0.9560 -0.7920  0.9013
   13MOL   C242 3866   6.391   4.496   1.440 -1.2236 -0.3391  0.0047
   13MOL   C243 3867   6.521   4.414   1.473  0.1914 -0.9586 -0.0395
   13MOL   C244 3868   6.624   4.500   1.549 -0.0123  0.4891 -0.6382
   13MOL   O245 3869   6.681   4.460   1.653  0.5577  0.4056 -0.4193
   13MOL   O246 3870   6.649   4.612   1.488 -0.7987  0.2166 -0.4978
   13MOL   C247 3871   6.754   4.700   1.536  0.2400 -0.1056  0.5566
   13MOL   C248 3872   6.900   4.648   1.519 -0.7565 -0.5523  0.3765
   13MOL   H249 3873   6.419   4.573   1.369 -2.7862 -0.4395 -0.7497
   13MOL   H250 3874   6.371   4.554   1.530 -1.1573 -1.0143  0.4634
   13MOL   H251 3875   6.486   4.333   1.538 -2.9324  1.5208  1.5055
   13MOL   H252 3876   6.746   4.797   1.488  2.6195 -0.3540 -0.4352
   13MOL   H253 3877   6.729   4.716   1.641  0.0919 -0.3699  0.5642
   13MOL   H254 3878   6.932   4.634   1.416 -0.8398  1.5064  0.0382
   13MOL   H255 3879   6.902   4.549   1.564  1.3209 -0.2244  1.0215
   13MOL   H256 3880   6.959   4.712   1.585 -0.2916 -0.4422 -0.1458
   13MOL   C257 3881   6.575   4.345   1.337  0.5075 -0.5351  0.0749
   13MOL   C258 3882   6.706   4.263   1.345 -0.5500  0.4791 -0.0784
   13MOL   C259 3883   6.822   4.342   1.279 -0.2295  0.3996  0.5308
   13MOL   O260 3884   6.914   4.380   1.351  0.0055 -0.1240  0.1702
   13MOL   O261 3885   6.809   4.356   1.141 -0.2202 -0.3881  0.3000
   13MOL   C262 3886   6.923   4.404   1.080  0.6403 -0.6789  0.5037
   13MOL   C263 3887   6.890   4.459   0.936  0.0967 -0.7696  0.2994
   13MOL   H264 3888   6.496   4.279   1.299  0.7343 -0.8232  0.1025
   13MOL   H265 3889   6.576   4.422   1.259  0.8840  0.7747  1.3617
   13MOL   H266 3890   6.737   4.241   1.447 -1.3648  2.4306  0.6046
   13MOL   H267 3891   6.975   4.481   1.137  0.3464  1.3759 -1.8989
   13MOL   H268 3892   6.990   4.319   1.067 -1.5451 -2.5502  1.1954
   13MOL   H269 3893   6.842   4.385   0.871  0.2674  0.0251 -0.7350
   13MOL   H270 3894   6.986   4.492   0.898 -1.0264  3.5015  0.9622
   13MOL   H271 3895   6.825   4.546   0.948 -0.0623 -1.0253  1.3652
   13MOL   C272 3896   6.694   4.124   1.271  0.3162  0.1425  0.0137
   13MOL   C273 3897   6.794   4.018   1.306 -0.5726  0.1005  0.1802
   13MOL   C274 3898   6.787   3.900   1.203 -0.1038 -0.0934  0.1880
   13MOL   O275 3899   6.883   3.858   1.137  0.1828 -0.2398 -0.5416
   13MOL   O276 3900   6.665   3.846   1.200  0.8605  0.2228 -0.2733
   13MOL   C277 3901   6.634   3.743   1.104 -0.4974 -0.5471  0.7740
   13MOL   C278 3902   6.662   3.611   1.169  0.6977 -0.1172 -0.3429
   13MOL   H279 3903   6.594   4.082   1.271  0.2817  0.2243  0.1141
   13MOL   H280 3904   6.702   4.132   1.162  1.7572 -2.1966 -0.0869
   13MOL   H281 3905   6.888   4.067   1.279  0.0082  0.3201  2.4607
   13MOL   H282 3906   6.528   3.747   1.078 -0.3415 -2.6006 -0.2805
   13MOL   H283 3907   6.693   3.743   1.012 -0.2512  0.1095  0.9313
   13MOL   H284 3908   6.592   3.597   1.251 -0.2377 -1.1962 -1.3069
   13MOL   H285 3909   6.764   3.598   1.207  0.0746 -2.2886  0.6571
   13MOL   H286 3910   6.640   3.529   1.101  0.1717 -0.7553  0.5888
   13MOL   C287 3911   6.787   3.980   1.457 -0.2789 -0.2859 -0.0472
   13MOL   C288 3912   6.875   3.859   1.492  0.3706  0.2326  0.3268
   13MOL   C289 3913   7.023   3.883   1.540 -0.1992 -0.0513  0.0386
   13MOL   O290 3914   7.060   3.837   1.652  0.0893 -0.1222 -0.1937
   13MOL   O291 3915   7.095   3.959   1.464  0.3222  0.1742 -0.0165
   13MOL   C292 3916   7.213   4.019   1.515 -1.2325  0.4832 -0.9420
   13MOL   C293 3917   7.227   4.147   1.435  0.2318 -0.5198 -0.3494
   13MOL   H294 3918   6.821   4.062   1.521  1.2925 -0.9234 -0.0528
   13MOL   H295 3919   6.682   3.962   1.484  0.4205 -0.8843  2.3754
   13MOL   H296 3920   6.819   3.811   1.573 -0.9902  0.7601 -0.2778
   13MOL   H297 3921   7.199   4.043   1.620 -0.8430 -0.2398 -0.7218
   13MOL   H298 3922   7.299   3.953   1.505 -0.7651  0.8712  0.4082
   13MOL   H299 3923   7.240   4.122   1.330  3.6162 -0.4172 -0.0233
   13MOL   H300 3924   7.313   4.205   1.471  0.0930 -0.1361 -0.6358
   13MOL   H301 3925   7.137   4.207   1.448 -1.2846 -2.6701 -0.6215
   13MOL   H302 3926   6.886   3.788   1.410 -4.8539  0.4894 -0.7762
   14MOL     C1 3927   3.597   1.050   7.177 -0.6090 -0.1208  0.0356
   14MOL     C2 3928   3.464   1.139   7.175 -0.1009  0.5666 -0.3984
   14MOL     C3 3929   3.430   1.198   7.316  0.8829  0.2729  0.4907
   14MOL     O4 3930   3.446   1.317   7.344  0.0930 -0.1686 -0.3070
   14MOL     O5 3931   3.382   1.104   7.400  0.0340 -0.4451 -0.1965
   14MOL     C6 3932   3.334   1.154   7.527 -0.4277 -0.0861 -0.0421
   14MOL     C7 3933   3.220   1.068   7.568  0.1100  0.1621  0.1328
   14MOL     H8 3934   3.634   1.033   7.076  0.2216  0.8204  0.1773
   14MOL     H9 3935   3.578   0.952   7.220 -3.4933  0.8460  1.0896
   14MOL    H10 3936   3.474   1.225   7.108 -0.9039 -0.3791 -1.7705
   14MOL    H11 3937   3.412   1.136   7.601 -1.5188  1.3356  1.5077
   14MOL    H12 3938   3.290   1.254   7.533 -0.1544 -0.0908  2.9832
   14MOL    H13 3939   3.152   1.054   7.484  2.6705 -1.2073 -1.7902
   14MOL    H14 3940   3.176   1.101   7.662  2.1664 -0.6230  1.4051
   14MOL    H15 3941   3.263   0.970   7.590  2.5686  0.8346 -1.5809
   14MOL    H16 3942   3.670   1.101   7.239 -0.5712  1.1984 -1.0723
   14MOL    C17 3943   3.345   1.060   7.121  0.1487 -0.3583  0.6011
   14MOL    C18 3944   3.222   1.154   7.099  0.2888 -0.1277 -0.0187
   14MOL    C19 3945   3.091   1.074   7.107 -0.2400 -0.9321  0.2584
   14MOL    O20 3946   3.026   1.063   6.999  0.5750  0.6007 -0.1566
   14MOL    O21 3947   3.057   1.024   7.234 -0.1732  0.7569  0.4256
   14MOL    C22 3948   2.947   0.926   7.235  0.2910 -0.3100  0.5872
   14MOL    C23 3949   2.849   0.950   7.351 -0.2901 -0.2172  0.3923
   14MOL    H24 3950   3.364   1.025   7.019 -0.4636  0.3343  0.2475
   14MOL    H25 3951   3.313   0.975   7.182  0.8278 -1.2508 -0.2751
   14MOL    H26 3952   3.202   1.211   7.190  0.8510  2.2874 -1.3555
   14MOL    H27 3953   2.892   0.923   7.141  1.6402 -0.0852 -0.2224
   14MOL    H28 3954   2.998   0.831   7.250  0.9661 -0.1577 -0.6860
   14MOL    H29 3955   2.775   0.871   7.358  2.0942 -2.6990 -1.3944
   14MOL    H30 3956   2.794   1.044   7.343 -1.6287 -0.9472  0.9082
   14MOL    H31 3957   2.907   0.957   7.443  0.7683 -0.8520 -0.2156
   14MOL    C32 3958   3.238   1.238   6.974 -0.3703  0.0268  0.2740
   14MOL    C33 3959   3.136   1.353   6.954  0.0693 -0.0749 -0.2130
   14MOL    C34 3960   3.090   1.360   6.804 -0.5305 -0.1404  0.8192
   14MOL    O35 3961   3.118   1.461   6.733  0.4873 -0.0203  0.1994
   14MOL    O36 3962   3.015   1.259   6.769  0.1754  0.6502 -0.2669
   14MOL    C37 3963   2.959   1.262   6.647 -0.0051  0.8106 -0.5608
   14MOL    C38 3964   2.811   1.220   6.660  0.0128  0.3399  0.3869
   14MOL    H39 3965   3.333   1.290   6.986 -1.4129  1.8614  0.7611
   14MOL    H40 3966   3.248   1.175   6.885 -0.5742  0.3767  0.0016
   14MOL    H41 3967   3.043   1.323   7.002 -1.0618 -1.9036 -3.4024
   14MOL    H42 3968   2.969   1.361   6.602 -1.1030  0.1177 -2.4041
   14MOL    H43 3969   3.005   1.191   6.579 -1.6385  0.5785 -1.4708
   14MOL    H44 3970   2.803   1.113   6.683 -1.9260  0.7841  1.9006
   14MOL    H45 3971   2.762   1.227   6.563  1.0554 -0.0552 -0.1754
   14MOL    H46 3972   2.750   1.271   6.734 -0.4489 -2.1855  1.7920
   14MOL    C47 3973   3.181   1.492   7.014  0.1415 -0.0854  1.0180
   14MOL    C48 3974   3.184   1.488   7.168 -0.4890 -0.1413 -0.2348
   14MOL    C49 3975   3.052   1.442   7.236  0.8358  0.2824 -0.7233
   14MOL    O50 3976   2.949   1.439   7.172 -0.5729 -0.1097  0.3561
   14MOL    O51 3977   3.058   1.408   7.367 -0.0985  0.4742 -0.3987
   14MOL    C52 3978   2.940   1.360   7.438 -0.5159 -0.9531  0.0614
   14MOL    C53 3979   2.983   1.349   7.585 -1.0006 -0.4999  0.6048
   14MOL    H54 3980   3.269   1.537   6.968 -0.5183  1.3278  1.1044
   14MOL    H55 3981   3.099   1.554   6.979  0.0645 -0.3876  0.6553
   14MOL    H56 3982   3.243   1.401   7.196  0.7191  1.4450  2.3193
   14MOL    H57 3983   2.862   1.432   7.414  0.5554 -0.5775 -2.4594
   14MOL    H58 3984   2.901   1.268   7.395 -2.6047  0.2276 -0.6094
   14MOL    H59 3985   3.034   1.443   7.606  1.3991 -1.2697 -1.5501
   14MOL    H60 3986   3.052   1.271   7.616  0.8989  1.9968  2.9390
   14MOL    H61 3987   2.890   1.350   7.642  0.0718 -1.0860  2.4129
   14MOL    C62 3988   3.254   1.605   7.241 -0.1729 -0.0497  0.2037
   14MOL    C63 3989   3.168   1.738   7.251 -0.3100  0.2426  0.1957
   14MOL    C64 3990   3.191   1.809   7.116 -0.3940  0.1771  0.0606
   14MOL    O65 3991   3.129   1.782   7.015  0.0729  0.0469  0.0656
   14MOL    O66 3992   3.296   1.886   7.119  0.0316 -0.1190 -0.6190
   14MOL    C67 3993   3.344   1.946   7.000 -0.4296  0.0415  0.5351
   14MOL    C68 3994   3.466   1.865   6.952  0.1424  0.4488 -0.1176
   14MOL    H69 3995   3.286   1.581   7.342 -0.3577  0.4208  0.3747
   14MOL    H70 3996   3.353   1.619   7.197  0.8754  2.1958  3.1495
   14MOL    H71 3997   3.063   1.709   7.253 -0.7475  1.7910  0.4318
   14MOL    H72 3998   3.265   1.974   6.930  1.0367  1.1743 -0.7023
   14MOL    H73 3999   3.386   2.041   7.034  1.3663 -0.9540  1.1958
   14MOL    H74 4000   3.439   1.763   6.927  0.0256  1.0645 -2.6751
   14MOL    H75 4001   3.541   1.843   7.028  2.1963  1.3624 -1.7874
   14MOL    H76 4002   3.513   1.915   6.866  2.4244 -2.5451 -0.6984
   14MOL    C77 4003   3.195   1.820   7.381  0.7736 -0.3385  0.0895
   14MOL    C78 4004   3.077   1.904   7.443  0.5178 -0.0151 -0.2899
   14MOL    C79 4005   3.011   2.004   7.350  0.0679 -0.2335  0.6287
   14MOL    O80 4006   2.890   2.021   7.340 -0.4418  0.5976 -0.0416
   14MOL    O81 4007   3.092   2.102   7.292 -0.1225  0.1458 -0.4223
   14MOL    C82 4008   3.029   2.216   7.233  0.3820 -0.0655  0.6229
   14MOL    C83 4009   3.109   2.258   7.116  0.2746  0.6175  0.3394
   14MOL    H84 4010   3.239   1.750   7.452  2.3497  0.1849 -0.3591
   14MOL    H85 4011   3.288   1.876   7.375  2.6737 -3.4009 -0.0591
   14MOL    H86 4012   2.995   1.838   7.469  0.9953 -0.1669  0.8282
   14MOL    H87 4013   2.921   2.208   7.219  0.1127  2.5648  0.7659
   14MOL    H88 4014   3.046   2.306   7.292  0.8513  1.1548 -1.3142
   14MOL    H89 4015   3.204   2.306   7.142  1.6963 -1.9447  0.0412
   14MOL    H90 4016   3.044   2.321   7.056  0.5736  0.3933 -0.2235
   14MOL    H91 4017   3.141   2.193   7.035 -0.7851  1.8973 -1.1391
   14MOL    C92 4018   3.121   1.974   7.574  0.7076 -0.8552  0.4778
   14MOL    C93 4019   3.028   1.978   7.695  0.2963  0.4570  0.7370
   14MOL    C94 4020   2.913   2.078   7.675 -0.7534  0.0130  0.2318
   14MOL    O95 4021   2.937   2.175   7.602 -0.5946 -0.3853  0.1823
   14MOL    O96 4022   2.804   2.046   7.751  0.1453  0.1699 -0.0549
   14MOL    C97 4023   2.702   2.141   7.773  0.0668  0.7684  0.5100
   14MOL    C98 4024   2.567   2.082   7.776  0.3834  0.0717  0.1153
   14MOL    H99 4025   3.210   1.919   7.605  0.1869 -0.5331  2.6386
   14MOL   H100 4026   3.157   2.074   7.551 -3.2896  0.3820 -0.8388
   14MOL   H101 4027   3.000   1.873   7.701 -0.3570  0.5465 -0.6108
   14MOL   H102 4028   2.727   2.199   7.862 -0.3478 -0.4821  1.4492
   14MOL   H103 4029   2.718   2.208   7.688  5.3125 -2.6042 -1.4111
   14MOL   H104 4030   2.557   2.013   7.859 -2.7621 -1.4848 -1.4738
   14MOL   H105 4031   2.556   2.017   7.689 -0.6435  2.1571 -1.3714
   14MOL   H106 4032   2.494   2.163   7.775  0.7814  0.4315  0.2456
   14MOL   C107 4033   3.108   1.997   7.821 -0.0867  0.0122 -0.1786
   14MOL   C108 4034   3.038   1.940   0.046 -0.9012  0.2265 -0.0084
   14MOL   C109 4035   3.019   2.054   0.147  0.1387  0.3591  0.0431
   14MOL   O110 4036   3.082   2.070   0.249 -0.0959 -0.1956  0.3021
   14MOL   O111 4037   2.925   2.141   0.095  0.1401 -0.4669 -0.1620
   14MOL   C112 4038   2.880   2.257   0.161  0.2095  0.3172  0.1130
   14MOL   C113 4039   2.756   2.242   0.247  0.6773 -0.0365  0.4153
   14MOL   H114 4040   3.214   1.972   7.816  0.2474  0.9489  1.7465
   14MOL   H115 4041   3.126   2.104   7.832  2.6748 -0.2779 -1.5048
   14MOL   H116 4042   2.942   1.916   0.002 -0.9234  0.8729 -0.3098
   14MOL   H117 4043   2.965   2.306   0.209  1.3242  0.2435 -1.7483
   14MOL   H118 4044   2.852   2.319   0.076 -0.6766  1.7974  1.4652
   14MOL   H119 4045   2.751   2.165   0.324  1.3520  0.3531  0.8623
   14MOL   H120 4046   2.670   2.214   0.187  0.9707 -0.4741  0.1971
   14MOL   H121 4047   2.731   2.336   0.297  1.3610 -0.0772  0.8463
   14MOL   C122 4048   3.113   1.809   0.088  0.5548 -0.4309 -0.3602
   14MOL   C123 4049   3.074   1.674   0.016  0.1541  0.1437 -0.0064
   14MOL   C124 4050   2.922   1.667   0.004 -0.8539  0.1173 -0.1287
   14MOL   O125 4051   2.842   1.699   0.092  0.4140 -0.0837  1.0302
   14MOL   O126 4052   2.886   1.643   7.793  0.2704 -0.3392 -0.6662
   14MOL   C127 4053   2.755   1.659   7.755  0.0295 -0.0315  0.0164
   14MOL   C128 4054   2.744   1.733   7.619  0.0924  0.5353  0.2257
   14MOL   H129 4055   3.220   1.824   0.076  0.3609 -1.4172 -4.1034
   14MOL   H130 4056   3.089   1.797   0.193  1.8348  1.0064  0.1038
   14MOL   H131 4057   3.116   1.679   7.824 -0.2758  1.3347 -0.1257
   14MOL   H132 4058   2.709   1.560   7.752 -1.0168  0.3533  2.5379
   14MOL   H133 4059   2.701   1.717   7.830  0.4841 -0.4891  0.7078
   14MOL   H134 4060   2.638   1.748   7.598 -0.2826  1.4204  2.5809
   14MOL   H135 4061   2.788   1.680   7.535  2.7051 -1.2761  2.6863
   14MOL   H136 4062   2.792   1.831   7.618  2.0637 -0.4295 -0.6678
   14MOL   C137 4063   3.132   1.550   0.087  0.0985 -0.3481 -0.3368
   14MOL   C138 4064   3.282   1.514   0.063 -0.0458 -0.7536  0.4877
   14MOL   C139 4065   3.317   1.464   7.829 -0.0569 -0.1040  0.9370
   14MOL   O140 4066   3.272   1.355   7.787 -0.3131 -0.2729  0.4080
   14MOL   O141 4067   3.385   1.558   7.759 -0.2086  0.5671 -0.1199
   14MOL   C142 4068   3.428   1.531   7.626  0.3260  0.7342 -0.1719
   14MOL   C143 4069   3.496   1.653   7.560 -0.3419  0.4747  0.6287
   14MOL   H144 4070   3.112   1.550   0.194 -2.5743 -4.9453 -0.7011
   14MOL   H145 4071   3.080   1.469   0.036  0.0382 -0.7762  0.3961
   14MOL   H146 4072   3.328   1.613   0.070 -0.3227 -0.5610 -0.3397
   14MOL   H147 4073   3.499   1.449   7.622 -0.5435 -0.0046 -0.4386
   14MOL   H148 4074   3.345   1.507   7.561  0.8011  1.0314 -0.8926
   14MOL   H149 4075   3.589   1.685   7.608 -0.7472  0.3577  1.5033
   14MOL   H150 4076   3.430   1.740   7.557 -0.8881  0.0067 -1.7944
   14MOL   H151 4077   3.524   1.622   7.460  1.7623  0.7455  1.1039
   14MOL   C152 4078   3.341   1.425   0.178  0.1855 -0.1863 -0.6273
   14MOL   C153 4079   3.495   1.418   0.195  0.0783 -1.0991  0.0557
   14MOL   C154 4080   3.546   1.562   0.211 -0.6339  0.1885 -0.2287
   14MOL   O155 4081   3.538   1.615   0.322  0.0937  0.6107 -0.3524
   14MOL   O156 4082   3.600   1.621   0.105  0.4669 -0.3246 -0.2133
   14MOL   C157 4083   3.654   1.750   0.116 -0.1356  0.8819  0.0692
   14MOL   C158 4084   3.685   1.795   7.882 -0.7866  0.0745 -0.4627
   14MOL   H159 4085   3.301   1.452   0.276  0.4546 -1.4817 -0.1591
   14MOL   H160 4086   3.296   1.327   0.165  1.3786 -0.5393 -2.1540
   14MOL   H161 4087   3.503   1.360   0.287  0.5802  1.3750  1.6149
   14MOL   H162 4088   3.586   1.826   0.155  2.5123  1.4021  3.9086
   14MOL   H163 4089   3.738   1.748   0.185 -0.3677  1.5350  0.3710
   14MOL   H164 4090   3.731   1.894   7.887  1.5773 -0.9617 -1.1296
   14MOL   H165 4091   3.592   1.797   7.824  0.6187  1.8030 -2.7300
   14MOL   H166 4092   3.759   1.741   7.823  1.6714  0.1886  2.4238
   14MOL   C167 4093   3.574   1.338   0.092  0.4812 -0.2115  0.1242
   14MOL   C168 4094   3.720   1.289   0.132 -0.2862 -0.1258 -0.3443
   14MOL   C169 4095   3.828   1.401   0.114 -0.1390  1.2036 -0.4297
   14MOL   O170 4096   3.869   1.470   0.208  0.3003 -0.6679 -0.1962
   14MOL   O171 4097   3.871   1.410   7.896 -0.4319 -0.2210  0.0365
   14MOL   C172 4098   3.956   1.520   7.876  0.0583  0.1581  0.2124
   14MOL   C173 4099   3.957   1.529   7.724 -0.5118  0.4751  0.3094
   14MOL   H174 4100   3.505   1.259   0.061  0.1843 -0.7181  2.0140
   14MOL   H175 4101   3.584   1.389   7.905  1.3679 -1.8010 -0.6539
   14MOL   H176 4102   3.706   1.269   0.239 -2.1989 -2.0373 -0.8971
   14MOL   H177 4103   3.908   1.606   0.014 -0.7892 -0.2424  0.0962
   14MOL   H178 4104   4.060   1.519   7.908 -0.9098  1.0711  3.5877
   14MOL   H179 4105   4.034   1.601   7.695  0.9443 -0.8011  0.9426
   14MOL   H180 4106   3.858   1.557   7.686 -1.1508  2.7788  3.4870
   14MOL   H181 4107   3.994   1.442   7.668 -2.4376  0.1140 -0.4475
   14MOL   C182 4108   3.772   1.151   0.068 -0.2222 -0.2380 -0.1785
   14MOL   C183 4109   3.748   1.033   0.159  0.2877 -0.0174 -0.3403
   14MOL   C184 4110   3.600   1.003   0.177 -0.2247 -0.4678 -0.2452
   14MOL   O185 4111   3.537   1.043   0.279 -0.6191 -0.8911  0.1258
   14MOL   O186 4112   3.554   0.918   0.077  0.4397  0.9275 -0.1561
   14MOL   C187 4113   3.417   0.891   0.071  0.2996  0.2114  0.4131
   14MOL   C188 4114   3.339   1.007   0.003 -0.2826  0.2928  0.3824
   14MOL   H189 4115   3.731   1.138   7.876 -2.2344 -1.9094  0.8257
   14MOL   H190 4116   3.873   1.161   0.030 -0.0341  2.0208  0.8121
   14MOL   H191 4117   3.791   0.943   0.115  1.7427  2.6564 -4.6613
   14MOL   H192 4118   3.420   0.802   0.008  1.6463  0.7665 -0.3405
   14MOL   H193 4119   3.373   0.848   0.161  1.3434 -1.2854  0.2402
   14MOL   H194 4120   3.248   0.974   7.860 -0.2886  0.4000  0.3230
   14MOL   H195 4121   3.403   1.043   7.831  0.5343  0.1320  0.9535
   14MOL   H196 4122   3.319   1.082   0.079  1.5525 -0.6103  1.7781
   14MOL   C197 4123   3.834   1.045   0.298  0.2064  0.1566  0.4976
   14MOL   C198 4124   3.889   0.921   0.370 -0.3215  1.1228 -0.0978
   14MOL   C199 4125   3.934   0.950   0.516 -0.2516 -0.4168 -0.7036
   14MOL   O200 4126   3.881   0.887   0.607  0.1135  0.3211  0.1938
   14MOL   O201 4127   4.040   1.035   0.526 -0.0410 -0.6911  0.1137
   14MOL   C202 4128   4.065   1.102   0.643 -0.0245  0.2483 -0.5620
   14MOL   C203 4129   4.091   1.240   0.604 -0.0737 -0.0914  0.4989
   14MOL   H204 4130   3.919   1.113   0.289 -0.0772  0.3017 -1.4418
   14MOL   H205 4131   3.764   1.097   0.364 -1.9825 -0.9172 -0.9382
   14MOL   H206 4132   3.819   0.841   0.392  0.4373  0.6051  0.4817
   14MOL   H207 4133   3.981   1.094   0.713  0.1482  0.6585 -0.3031
   14MOL   H208 4134   4.156   1.070   0.693  0.2497  0.8521 -0.6726
   14MOL   H209 4135   4.008   1.282   0.547  0.2396  0.5639  0.5279
   14MOL   H210 4136   4.170   1.249   0.530 -1.5953 -0.8280 -1.2571
   14MOL   H211 4137   4.092   1.317   0.681 -1.7763  0.4035  0.0425
   14MOL   C212 4138   4.004   0.860   0.295 -0.5444  0.0662 -0.4654
   14MOL   C213 4139   4.048   0.715   0.342 -0.4961 -0.1263 -0.4349
   14MOL   C214 4140   4.193   0.694   0.300 -0.3389  0.3001  0.0576
   14MOL   O215 4141   4.259   0.763   0.227  0.1845  0.4869  0.4624
   14MOL   O216 4142   4.229   0.580   0.356 -0.2646 -0.3094 -0.5898
   14MOL   C217 4143   4.362   0.522   0.325  0.2599 -0.1113 -0.2848
   14MOL   C218 4144   4.345   0.398   0.233 -0.6139 -0.3099  0.0331
   14MOL   H219 4145   3.985   0.864   0.188 -0.4757  0.4836 -0.4653
   14MOL   H220 4146   4.092   0.923   0.309 -0.2332 -0.0887 -1.6535
   14MOL   H221 4147   4.042   0.723   0.451 -0.0056  2.4010 -0.5619
   14MOL   H222 4148   4.439   0.585   0.282  0.0702 -0.1218 -0.6420
   14MOL   H223 4149   4.392   0.489   0.424 -2.0920 -0.7550  0.2537
   14MOL   H224 4150   4.286   0.322   0.285 -0.8389 -1.7275 -2.1861
   14MOL   H225 4151   4.444   0.360   0.207 -1.5515 -2.1672 -0.9378
   14MOL   H226 4152   4.281   0.409   0.146 -0.3285  1.2073  0.0108
   14MOL   C227 4153   3.948   0.608   0.302  0.0918  0.4341 -0.5804
   14MOL   C228 4154   3.967   0.527   0.168  0.1658  0.1190 -0.3262
   14MOL   C229 4155   3.957   0.624   0.053 -0.2570 -0.4899  0.1192
   14MOL   O230 4156   3.865   0.709   0.061 -0.0151 -0.1559  0.5997
   14MOL   O231 4157   4.051   0.612   7.867  0.2860 -0.0507  0.3760
   14MOL   C232 4158   4.067   0.709   7.757  0.3923 -0.3250 -0.0634
   14MOL   C233 4159   4.086   0.630   7.631 -0.1041 -0.6047 -0.8208
   14MOL   H234 4160   3.952   0.526   0.373 -1.4140  0.0984 -0.8721
   14MOL   H235 4161   3.847   0.648   0.310 -0.7963 -1.9941  0.8995
   14MOL   H236 4162   4.065   0.480   0.167  0.1045 -0.0003 -0.8031
   14MOL   H237 4163   3.984   0.777   7.738  0.1686 -0.6721 -0.3245
   14MOL   H238 4164   4.155   0.773   7.768 -0.7320  1.3731 -0.7546
   14MOL   H239 4165   4.180   0.576   7.616  0.7150  0.1760  1.2693
   14MOL   H240 4166   4.066   0.693   7.544 -2.6844 -0.6265 -0.2990
   14MOL   H241 4167   4.004   0.560   7.612 -0.6691  0.3420 -1.9354
   14MOL   C242 4168   3.861   0.419   0.149  0.4407  0.2824 -0.6539
   14MOL   C243 4169   3.853   0.305   0.256 -0.1323  0.3222  0.0293
   14MOL   C244 4170   3.982   0.232   0.289 -0.0464  0.0425  0.0838
   14MOL   O245 4171   4.043   0.255   0.395 -0.1571  0.0889  0.3163
   14MOL   O246 4172   4.030   0.164   0.188 -0.1713 -0.3047  0.5349
   14MOL   C247 4173   4.144   0.082   0.201 -0.1169  0.2934  0.4818
   14MOL   C248 4174   4.130   7.852   0.133  0.3490 -0.6213 -0.2058
   14MOL   H249 4175   3.757   0.448   0.145  0.0532 -0.7106  1.5348
   14MOL   H250 4176   3.884   0.370   0.054 -1.7499  0.3631 -1.2406
   14MOL   H251 4177   3.821   0.346   0.352  0.1701 -2.5455  1.4027
   14MOL   H252 4178   4.223   0.146   0.163  1.5796 -1.6587  0.6576
   14MOL   H253 4179   4.186   0.067   0.301  0.7927  0.4195  0.1221
   14MOL   H254 4180   4.222   7.795   0.143  1.3803  1.0654 -0.0157
   14MOL   H255 4181   4.124   7.866   0.025  1.8609 -0.9214 -0.3365
   14MOL   H256 4182   4.046   7.793   0.170  1.0117 -1.3566  0.1423
   14MOL   C257 4183   3.750   0.200   0.211  0.3764  0.1069  0.1970
   14MOL   C258 4184   3.708   0.089   0.318 -0.0342 -0.4286 -0.4337
   14MOL   C259 4185   3.605   7.904   0.253 -0.0340  0.0783 -0.7595
   14MOL   O260 4186   3.640   7.788   0.229 -0.0590  0.8519 -0.7711
   14MOL   O261 4187   3.494   0.054   0.218 -0.0947  0.4080 -0.5064
   14MOL   C262 4188   3.414   7.897   0.121  0.1508 -0.0028 -0.0997
   14MOL   C263 4189   3.369   0.093   0.023 -0.5333 -0.4923 -0.1731
   14MOL   H264 4190   3.656   0.248   0.181  0.4704  0.1797  0.0200
   14MOL   H265 4191   3.787   0.155   0.119 -0.8432  0.5614 -0.5405
   14MOL   H266 4192   3.798   0.039   0.355  0.0629  1.4989  2.1176
   14MOL   H267 4193   3.459   7.811   0.070  0.9062 -0.2168  0.9335
   14MOL   H268 4194   3.329   7.848   0.168  0.8756  0.1151  1.3335
   14MOL   H269 4195   3.296   0.055   7.860  1.1435 -2.8377 -0.6474
   14MOL   H270 4196   3.453   0.126   7.871  0.0072  0.1503  0.9239
   14MOL   H271 4197   3.324   0.182   0.069 -0.7113  0.8771 -2.8861
   14MOL   C272 4198   3.668   0.158   0.446 -0.3925  0.3276 -0.2061
   14MOL   C273 4199   3.567   0.077   0.533  0.4986 -0.5699 -0.4666
   14MOL   C274 4200   3.429   0.145   0.545 -0.4527 -0.4414 -0.0301
   14MOL   O275 4201   3.406   0.260   0.504  0.1274  0.1796  0.3652
   14MOL   O276 4202   3.340   0.075   0.626  0.3045 -0.1313  0.1187
   14MOL   C277 4203   3.219   0.132   0.675  0.1443  0.7850 -0.1139
   14MOL   C278 4204   3.115   0.020   0.664 -0.4281  0.3894  0.0419
   14MOL   H279 4205   3.752   0.168   0.515 -0.8404  1.6656  0.1699
   14MOL   H280 4206   3.628   0.259   0.437 -0.8572  0.1737  0.1437
   14MOL   H281 4207   3.531   7.895   0.483  1.1836 -0.2048 -1.6449
   14MOL   H282 4208   3.222   0.165   0.778  0.9925  1.8151 -0.4591
   14MOL   H283 4209   3.190   0.215   0.610 -0.4615  1.2039  0.6857
   14MOL   H284 4210   3.157   7.840   0.711  0.1206 -0.1447 -1.4129
   14MOL   H285 4211   3.099   7.906   0.558 -1.4901  0.4113  0.1961
   14MOL   H286 4212   3.019   0.043   0.710  0.0991  0.5147  1.0823
   14MOL   C287 4213   3.617   0.031   0.677  1.0046 -0.3996  0.4072
   14MOL   C288 4214   3.553   7.819   0.747 -0.7398 -0.1748  0.6879
   14MOL   C289 4215   3.556   7.692   0.664  0.4209  0.4661 -0.0112
   14MOL   O290 4216   3.649   7.612   0.671  0.3056  0.7065 -0.4026
   14MOL   O291 4217   3.457   7.684   0.570 -0.2061  0.0072 -0.5813
   14MOL   C292 4218   3.442   7.576   0.480  0.2499  0.6209  0.0743
   14MOL   C293 4219   3.309   7.599   0.398 -0.3269 -0.0485  0.1458
   14MOL   H294 4220   3.725   0.019   0.682  1.7714  4.4498 -1.9855
   14MOL   H295 4221   3.613   0.126   0.730 -1.3421  0.1840 -0.7773
   14MOL   H296 4222   3.601   7.805   0.844 -0.4290  0.1146  0.5756
   14MOL   H297 4223   3.526   7.568   0.411  1.1134  0.2706  1.1389
   14MOL   H298 4224   3.437   7.481   0.534  0.8434  1.2239  1.1937
   14MOL   H299 4225   3.295   7.529   0.315 -0.5425  0.9633 -0.6853
   14MOL   H300 4226   3.307   7.703   0.364  2.4686  0.0954  0.2937
   14MOL   H301 4227   3.233   7.583   0.474  1.4538 -3.1993  1.3685
   14MOL   H302 4228   3.451   7.839   0.781 -1.1914 -0.8037 -0.2755
   15MOL     C1 4229   6.970   4.778   2.499 -0.5904 -0.3297  1.1532
   15MOL     C2 4230   7.084   4.838   2.414 -0.2103 -0.1542 -0.6940
   15MOL     C3 4231   7.226   4.832   2.490 -0.5754  0.2952 -0.2971
   15MOL     O4 4232   7.239   4.787   2.602  0.1033  0.2305 -0.4511
   15MOL     O5 4233   7.315   4.886   2.415  0.1525 -0.1916  0.1534
   15MOL     C6 4234   7.440   4.907   2.469  0.0385 -0.5335  0.0606
   15MOL     C7 4235   7.528   4.964   2.361  0.9963  0.4996  0.6176
   15MOL     H8 4236   6.996   4.675   2.523  1.8128  0.4363  1.9713
   15MOL     H9 4237   6.877   4.781   2.442 -1.5055  1.2906  2.7074
   15MOL    H10 4238   7.097   4.767   2.333 -1.0730 -0.5205 -0.5158
   15MOL    H11 4239   7.433   4.986   2.544 -3.5828 -0.2974 -0.4643
   15MOL    H12 4240   7.498   4.827   2.516 -2.4348 -0.8376  2.7193
   15MOL    H13 4241   7.477   5.035   2.296  2.2073  0.3576 -0.5085
   15MOL    H14 4242   7.548   4.878   2.297  0.2797  0.2633  0.7076
   15MOL    H15 4243   7.614   5.017   2.401  1.7977  0.5650 -1.1614
   15MOL    H16 4244   6.944   4.833   2.589  1.9796  0.1451  1.6485
   15MOL    C17 4245   7.054   4.971   2.341  0.3006  0.4452 -0.4180
   15MOL    C18 4246   7.036   5.092   2.430  0.1267 -0.6736  0.5933
   15MOL    C19 4247   6.893   5.106   2.479  0.9409 -0.6390 -0.1680
   15MOL    O20 4248   6.865   5.113   2.597 -0.1935 -0.0363  0.2285
   15MOL    O21 4249   6.804   5.112   2.373 -0.2698 -0.1537  0.9160
   15MOL    C22 4250   6.663   5.103   2.395  0.3598 -0.2227 -0.3147
   15MOL    C23 4251   6.580   5.131   2.267  0.1463  0.3436 -0.1646
   15MOL    H24 4252   7.144   4.996   2.285  0.7616  3.4923  1.5443
   15MOL    H25 4253   6.975   4.963   2.267  0.0365 -2.7281  0.1214
   15MOL    H26 4254   7.106   5.095   2.514  0.7165 -1.0394  0.1118
   15MOL    H27 4255   6.639   5.000   2.421  0.1189  0.0936  0.7393
   15MOL    H28 4256   6.629   5.150   2.487 -0.5276 -0.2933 -0.6026
   15MOL    H29 4257   6.601   5.233   2.234  1.7206  0.7424  1.9455
   15MOL    H30 4258   6.474   5.129   2.289  0.0496  0.1909 -0.6401
   15MOL    H31 4259   6.609   5.061   2.188  1.3803  1.1947 -0.4911
   15MOL    C32 4260   7.075   5.224   2.350  0.4017  0.7664 -0.2547
   15MOL    C33 4261   7.057   5.364   2.422 -0.1491  0.1049  0.2927
   15MOL    C34 4262   7.073   5.489   2.327 -0.5332 -0.7271 -0.5206
   15MOL    O35 4263   7.177   5.544   2.311 -0.0385  0.3729 -0.0410
   15MOL    O36 4264   6.966   5.523   2.264 -0.1638 -0.2099  0.0798
   15MOL    C37 4265   6.960   5.632   2.165  0.2490  0.6498  0.6938
   15MOL    C38 4266   6.877   5.585   2.044 -0.4046 -0.1974 -0.2137
   15MOL    H39 4267   7.175   5.218   2.305  0.3085  0.3435 -0.4124
   15MOL    H40 4268   7.007   5.227   2.265  1.8115  2.3700 -1.3829
   15MOL    H41 4269   6.954   5.374   2.455 -0.6796 -1.2264 -0.9372
   15MOL    H42 4270   6.898   5.703   2.221 -1.8720 -1.0824  0.6241
   15MOL    H43 4271   7.055   5.678   2.140  0.3420 -0.2539 -0.6370
   15MOL    H44 4272   6.940   5.513   1.993 -0.3007  0.1428 -0.5648
   15MOL    H45 4273   6.856   5.669   1.978 -1.6252 -0.2186  0.1209
   15MOL    H46 4274   6.776   5.546   2.059 -0.4498 -0.3287 -0.8435
   15MOL    C47 4275   7.141   5.375   2.558  0.2121 -0.5848  0.2246
   15MOL    C48 4276   7.053   5.389   2.677 -0.1314  0.7146  0.5494
   15MOL    C49 4277   6.983   5.523   2.681 -0.1825 -0.2861  0.5649
   15MOL    O50 4278   6.861   5.535   2.662  0.3259  0.0209 -0.3192
   15MOL    O51 4279   7.074   5.621   2.690  0.6993  0.1643  0.1587
   15MOL    C52 4280   7.030   5.750   2.666 -0.0082 -0.6151 -0.6388
   15MOL    C53 4281   7.015   5.777   2.519 -0.2775  0.8339 -0.9343
   15MOL    H54 4282   7.215   5.296   2.567  0.4624 -0.6063 -1.9073
   15MOL    H55 4283   7.214   5.453   2.539  0.5081 -0.8270  0.3614
   15MOL    H56 4284   6.972   5.317   2.661 -0.7162  0.9863  2.1909
   15MOL    H57 4285   6.942   5.782   2.722  1.3489  1.6071  0.3076
   15MOL    H58 4286   7.093   5.825   2.714 -1.5762  1.5376 -1.8580
   15MOL    H59 4287   7.005   5.884   2.502  0.0030  0.8359 -1.0888
   15MOL    H60 4288   6.937   5.734   2.456  0.7811 -1.7426 -0.5426
   15MOL    H61 4289   7.096   5.735   2.458 -0.2682 -0.6997  0.1028
   15MOL    C62 4290   7.122   5.346   2.813 -0.1199 -0.2736 -0.0233
   15MOL    C63 4291   7.170   5.200   2.827 -0.0889 -0.0261 -0.3878
   15MOL    C64 4292   7.062   5.089   2.825 -0.1928  0.3246 -0.0225
   15MOL    O65 4293   7.069   4.994   2.747  0.1483  0.0833 -0.1034
   15MOL    O66 4294   6.963   5.119   2.916  0.1053  0.3904  0.4833
   15MOL    C67 4295   6.856   5.031   2.917  0.0521  0.3923 -0.5368
   15MOL    C68 4296   6.782   5.040   3.050 -0.3988  0.1828 -1.2427
   15MOL    H69 4297   7.198   5.423   2.820 -0.3337 -0.0488 -0.1316
   15MOL    H70 4298   7.061   5.370   2.900  2.4989  0.6745  1.5975
   15MOL    H71 4299   7.224   5.179   2.735 -0.1129  1.0979 -0.6662
   15MOL    H72 4300   6.798   5.064   2.831  0.1351 -1.0473 -1.1722
   15MOL    H73 4301   6.875   4.925   2.901 -0.5876  0.1684  0.1230
   15MOL    H74 4302   6.685   4.994   3.037 -0.1985 -0.5359 -0.2510
   15MOL    H75 4303   6.772   5.142   3.087 -0.3781 -0.1992 -0.1654
   15MOL    H76 4304   6.832   4.981   3.127  1.6858  2.5012 -0.7425
   15MOL    C77 4305   7.263   5.205   2.962 -0.5509 -0.1459 -0.1188
   15MOL    C78 4306   7.355   5.084   2.991  0.3084 -0.2362 -0.0191
   15MOL    C79 4307   7.392   5.094   3.140 -0.2049  0.7356 -0.0611
   15MOL    O80 4308   7.430   5.201   3.187 -0.4680  0.6087 -0.2121
   15MOL    O81 4309   7.399   4.977   3.207 -0.6466 -0.1437 -0.0063
   15MOL    C82 4310   7.439   4.970   3.342 -0.0342 -0.2742 -0.2198
   15MOL    C83 4311   7.325   5.006   3.438  1.1690  0.3673  0.2210
   15MOL    H84 4312   7.332   5.289   2.949 -0.9101  0.1740  0.0333
   15MOL    H85 4313   7.202   5.230   3.048 -1.4116  1.7861 -1.2557
   15MOL    H86 4314   7.288   4.998   2.995  1.3541 -1.0144  0.8613
   15MOL    H87 4315   7.465   4.867   3.365  0.9730 -0.4172 -1.9366
   15MOL    H88 4316   7.526   5.032   3.360  0.6397 -1.9087  2.4456
   15MOL    H89 4317   7.311   5.114   3.441 -0.0997  0.2258 -0.0028
   15MOL    H90 4318   7.354   4.972   3.538 -0.4790 -0.4915  0.4291
   15MOL    H91 4319   7.232   4.953   3.418  0.6462  1.4465 -0.2483
   15MOL    C92 4320   7.474   5.062   2.897 -0.6460 -0.1523  0.1728
   15MOL    C93 4321   7.546   4.926   2.921  0.1162  0.0033 -0.2734
   15MOL    C94 4322   7.658   4.911   2.823  0.3171  0.1068 -0.0367
   15MOL    O95 4323   7.673   4.997   2.732 -0.8033  0.6016  0.3718
   15MOL    O96 4324   7.728   4.798   2.836  0.8308  0.2756  0.6508
   15MOL    C97 4325   7.810   4.754   2.733  0.7192 -0.0881 -0.2652
   15MOL    C98 4326   7.778   4.606   2.718  0.1325  0.1368  0.4931
   15MOL    H99 4327   7.450   5.069   2.791 -0.1123 -1.7584 -0.0781
   15MOL   H100 4328   7.536   5.149   2.916 -1.6891  0.2876  1.5786
   15MOL   H101 4329   7.599   4.917   3.016  0.9506 -0.9661 -0.8179
   15MOL   H102 4330   7.789   4.798   2.636 -0.1963 -0.3290 -0.1785
   15MOL   H103 4331   0.002   4.778   2.768  0.7323  0.2129 -0.5108
   15MOL   H104 4332   7.676   4.575   2.695 -0.1452  1.1493  0.3056
   15MOL   H105 4333   7.795   4.554   2.813  2.4419 -0.9880 -0.5083
   15MOL   H106 4334   7.850   4.564   2.648 -0.5840 -0.9413  0.3944
   15MOL   C107 4335   7.457   4.797   2.904 -0.6021  0.1465 -0.2092
   15MOL   C108 4336   7.404   4.723   3.023  0.2688  0.2028 -0.3055
   15MOL   C109 4337   7.511   4.637   3.093 -0.2400 -0.1690  0.7147
   15MOL   O110 4338   7.620   4.615   3.046 -0.5568 -0.4548  0.0995
   15MOL   O111 4339   7.473   4.599   3.216 -0.5451  0.1094  0.7061
   15MOL   C112 4340   7.553   4.511   3.290 -0.1219 -0.3619  0.2424
   15MOL   C113 4341   7.457   4.447   3.381  0.4678 -0.1688 -0.5236
   15MOL   H114 4342   7.367   4.825   2.849 -0.8350  0.1453  0.1756
   15MOL   H115 4343   7.503   4.724   2.837 -3.2793 -1.2431 -0.5954
   15MOL   H116 4344   7.375   4.797   3.097 -2.9500 -0.4612 -0.8254
   15MOL   H117 4345   7.609   4.445   3.223  1.1477  1.2034 -0.2534
   15MOL   H118 4346   7.630   4.571   3.336 -0.6934 -0.7985  1.7953
   15MOL   H119 4347   7.390   4.381   3.326  2.8947 -1.7460 -1.6933
   15MOL   H120 4348   7.416   4.510   3.460 -0.8234  1.9079 -2.7959
   15MOL   H121 4349   7.524   4.383   3.439  1.0584  1.2525  0.3926
   15MOL   C122 4350   7.271   4.647   2.986  0.0754  0.1606  0.1905
   15MOL   C123 4351   7.144   4.735   3.010 -0.2552  0.1889  0.6364
   15MOL   C124 4352   7.119   4.779   3.156 -1.3176 -1.1515  0.0234
   15MOL   O125 4353   7.095   4.898   3.189  0.6158  0.0847  0.0796
   15MOL   O126 4354   7.113   4.667   3.236 -0.5769 -0.2305  0.2831
   15MOL   C127 4355   7.062   4.681   3.370 -0.1741 -0.3523  0.4099
   15MOL   C128 4356   7.083   4.550   3.446 -0.1098  0.7455 -0.0779
   15MOL   H129 4357   7.265   4.608   2.884  0.7825  0.2105  0.1269
   15MOL   H130 4358   7.255   4.555   3.042  2.4309  0.1093  0.8516
   15MOL   H131 4359   7.151   4.833   2.963  0.0563 -0.1706 -0.0695
   15MOL   H132 4360   7.095   4.774   3.417  1.6846 -0.5840 -0.3658
   15MOL   H133 4361   6.954   4.692   3.364  0.0314  1.3143 -0.4561
   15MOL   H134 4362   7.014   4.473   3.412  0.0149  0.6194 -0.0413
   15MOL   H135 4363   7.056   4.563   3.550 -0.4690 -2.4020  0.2491
   15MOL   H136 4364   7.187   4.518   3.438 -0.1873  0.2947  0.6726
   15MOL   C137 4365   7.016   4.672   2.947  0.1790  0.4698  0.2442
   15MOL   C138 4366   6.975   4.534   2.994  0.0660  0.6102 -0.1625
   15MOL   C139 4367   7.004   4.447   2.873 -0.0163  0.2829  0.3618
   15MOL   O140 4368   7.097   4.363   2.879 -0.8233  0.5725 -0.2388
   15MOL   O141 4369   6.919   4.467   2.765 -0.5349  0.0108 -0.1042
   15MOL   C142 4370   6.942   4.385   2.653 -1.0505  0.1065  0.0376
   15MOL   C143 4371   6.813   4.368   2.583 -0.0370 -0.6967  0.1257
   15MOL   H144 4372   6.930   4.736   2.961  0.9707  1.7788 -0.7152
   15MOL   H145 4373   7.024   4.689   2.839  1.9970 -0.3490  0.2177
   15MOL   H146 4374   7.036   4.500   3.078  1.4984  0.5942 -1.1907
   15MOL   H147 4375   7.012   4.440   2.590 -0.3254  0.2809  0.9901
   15MOL   H148 4376   6.991   4.296   2.692 -1.5929  0.7075  2.1783
   15MOL   H149 4377   6.760   4.464   2.578  0.8771 -0.2449 -0.9738
   15MOL   H150 4378   6.752   4.289   2.626 -1.8906 -0.1730 -1.4586
   15MOL   H151 4379   6.832   4.326   2.485 -1.6958 -1.0244 -0.0674
   15MOL   C152 4380   6.822   4.525   3.048  0.6242 -0.8135 -0.2571
   15MOL   C153 4381   6.803   4.452   3.182  0.1502 -0.3601 -0.5880
   15MOL   C154 4382   6.850   4.309   3.172 -0.6013 -0.0081  0.1301
   15MOL   O155 4383   6.957   4.272   3.222 -0.3518 -0.0683  0.4419
   15MOL   O156 4384   6.766   4.231   3.098  0.3343 -0.7602  0.5708
   15MOL   C157 4385   6.785   4.096   3.075  0.6015 -0.1122  0.6825
   15MOL   C158 4386   6.663   4.026   3.012 -0.6397 -0.1973  0.3970
   15MOL   H159 4387   6.774   4.622   3.059 -2.8440 -2.6592  1.7694
   15MOL   H160 4388   6.752   4.492   2.972  0.7574 -0.7931 -0.3905
   15MOL   H161 4389   6.879   4.502   3.243  1.0312 -0.9224 -1.2083
   15MOL   H162 4390   6.878   4.082   3.021 -0.2638 -0.8664 -0.6250
   15MOL   H163 4391   6.806   4.035   3.163  1.2933 -0.1283  0.5103
   15MOL   H164 4392   6.577   4.077   3.057 -2.4847 -2.9219  0.1361
   15MOL   H165 4393   6.654   3.920   3.038 -1.9916 -0.3135 -0.5115
   15MOL   H166 4394   6.662   4.039   2.904 -0.3093  1.4219  0.5761
   15MOL   C167 4395   6.665   4.457   3.249  0.7038  0.0757  0.2002
   15MOL   C168 4396   6.673   4.480   3.399 -0.1713  0.6966  0.5358
   15MOL   C169 4397   6.727   4.359   3.473  0.7894  0.0740 -0.0799
   15MOL   O170 4398   6.823   4.370   3.556  0.4707 -0.8919 -0.1889
   15MOL   O171 4399   6.668   4.244   3.434  0.2162  0.2529  0.3294
   15MOL   C172 4400   6.726   4.116   3.470 -0.3641  0.4750  0.1646
   15MOL   C173 4401   6.633   4.005   3.411  0.1783 -0.5975  0.1498
   15MOL   H174 4402   6.609   4.537   3.201 -0.5096 -0.0624  1.3540
   15MOL   H175 4403   6.609   4.368   3.221  0.7086  0.9856 -2.8982
   15MOL   H176 4404   6.744   4.562   3.401 -0.1763  0.7589 -1.1951
   15MOL   H177 4405   6.826   4.111   3.427 -0.6881 -2.1474 -0.3591
   15MOL   H178 4406   6.739   4.107   3.578  2.4527  0.3114 -0.1663
   15MOL   H179 4407   6.632   4.023   3.304 -2.1516 -0.0903  0.2447
   15MOL   H180 4408   6.534   4.020   3.453  0.2720  0.5711 -0.0219
   15MOL   H181 4409   6.662   3.902   3.434  0.2665 -0.2396  1.7300
   15MOL   C182 4410   6.535   4.525   3.457  0.2844 -0.3828 -0.3889
   15MOL   C183 4411   6.550   4.623   3.581  0.5362  0.8317 -0.0711
   15MOL   C184 4412   6.413   4.665   3.642  0.0906  0.0591 -0.2094
   15MOL   O185 4413   6.391   4.650   3.759 -0.2209 -1.1405  0.1069
   15MOL   O186 4414   6.329   4.732   3.555 -0.4037 -0.1339 -0.4654
   15MOL   C187 4415   6.220   4.806   3.603  0.3783 -0.1834  0.1877
   15MOL   C188 4416   6.203   4.923   3.501  0.6302  0.7705  0.6201
   15MOL   H189 4417   6.481   4.576   3.377  1.3210 -0.8430 -1.3946
   15MOL   H190 4418   6.476   4.436   3.481  0.2887 -0.3632 -0.3060
   15MOL   H191 4419   6.598   4.566   3.660  0.9690  0.6306 -0.4747
   15MOL   H192 4420   6.131   4.743   3.608  0.2059  0.0226 -0.2503
   15MOL   H193 4421   6.246   4.837   3.704  1.0434  0.0004 -0.0371
   15MOL   H194 4422   6.212   4.885   3.399  0.0666 -0.6454  1.0736
   15MOL   H195 4423   6.290   4.987   3.512  2.4769 -1.4855 -0.2291
   15MOL   H196 4424   6.107   4.971   3.518 -0.3838 -1.0679  0.2913
   15MOL   C197 4425   6.656   4.740   3.580 -0.3539 -0.8515 -0.2149
   15MOL   C198 4426   6.617   4.873   3.505  0.0477  0.3887 -0.2217
   15MOL   C199 4427   6.616   4.852   3.352  0.2254  0.1267 -0.4054
   15MOL   O200 4428   6.717   4.825   3.281 -0.0485 -0.2175  0.1152
   15MOL   O201 4429   6.498   4.860   3.305  0.2938 -0.0539  0.4696
   15MOL   C202 4430   6.477   4.845   3.164 -0.4644  0.1561  0.5060
   15MOL   C203 4431   6.331   4.811   3.140  0.4961 -0.2045  0.0417
   15MOL   H204 4432   6.677   4.766   3.684 -2.2993  0.3787 -0.1032
   15MOL   H205 4433   6.752   4.703   3.544  0.3121 -1.2467  1.9127
   15MOL   H206 4434   6.524   4.909   3.549 -2.6725 -3.3022 -2.6587
   15MOL   H207 4435   6.511   4.935   3.113  1.5104  0.5271  2.4566
   15MOL   H208 4436   6.539   4.768   3.118 -0.3557  0.1050  0.7419
   15MOL   H209 4437   6.307   4.807   3.034 -0.1261  2.0969  0.0669
   15MOL   H210 4438   6.263   4.885   3.183  0.6416 -0.0178 -0.0486
   15MOL   H211 4439   6.300   4.728   3.204  0.2550  1.0483  1.5695
   15MOL   C212 4440   6.714   4.994   3.539  0.2132  0.6729  0.0916
   15MOL   C213 4441   6.705   5.127   3.466  0.1781  0.2527  0.0281
   15MOL   C214 4442   6.846   5.189   3.446  0.2997 -1.3156 -0.2431
   15MOL   O215 4443   6.900   5.255   3.534 -0.4384 -0.5752 -0.1575
   15MOL   O216 4444   6.904   5.156   3.332  0.2964  0.4309  0.3227
   15MOL   C217 4445   7.028   5.207   3.286 -0.1700 -0.2528 -0.3136
   15MOL   C218 4446   7.002   5.337   3.219 -0.3254 -0.1639 -0.0235
   15MOL   H219 4447   6.725   5.019   3.644 -2.8776  1.9627  0.1758
   15MOL   H220 4448   6.813   4.954   3.519 -0.3775 -1.2728  0.8833
   15MOL   H221 4449   6.666   5.110   3.366 -1.8786  0.3922  0.7802
   15MOL   H222 4450   7.085   5.229   3.377  0.1948  2.2905 -1.1307
   15MOL   H223 4451   7.078   5.136   3.220  0.8823 -1.5414  1.7800
   15MOL   H224 4452   6.919   5.323   3.150 -0.3618 -0.5691  0.1037
   15MOL   H225 4453   7.092   5.374   3.169 -0.3763 -0.4632 -0.3386
   15MOL   H226 4454   6.969   5.417   3.285 -0.1614  1.6313 -2.0305
   15MOL   C227 4455   6.611   5.238   3.526 -0.7423  0.5394 -0.6179
   15MOL   C228 4456   6.461   5.204   3.517 -0.1294  0.5009  0.1027
   15MOL   C229 4457   6.415   5.209   3.373 -0.5443  0.1521  0.2399
   15MOL   O230 4458   6.363   5.108   3.323  0.0300  0.4373  0.3548
   15MOL   O231 4459   6.440   5.329   3.315 -0.2614 -0.5036  0.2604
   15MOL   C232 4460   6.403   5.358   3.184  0.3577  0.4619  0.2571
   15MOL   C233 4461   6.385   5.510   3.170  0.3122 -0.0566 -0.2925
   15MOL   H234 4462   6.645   5.252   3.629 -1.9531  2.5145 -0.4613
   15MOL   H235 4463   6.618   5.339   3.487 -1.8093  0.0756 -2.0261
   15MOL   H236 4464   6.447   5.105   3.561 -1.8516  1.7562  2.4928
   15MOL   H237 4465   6.468   5.322   3.104 -0.6328 -0.1332 -0.2777
   15MOL   H238 4466   6.305   5.317   3.162  1.0451 -0.8266 -0.4456
   15MOL   H239 4467   6.316   5.546   3.245  0.2126 -1.2156  0.1768
   15MOL   H240 4468   6.357   5.537   3.068  0.6776  0.8333 -0.1634
   15MOL   H241 4469   6.484   5.552   3.186  0.0216  1.4484 -2.2470
   15MOL   C242 4470   6.373   5.297   3.604 -0.3369 -0.4707 -0.4681
   15MOL   C243 4471   6.385   5.276   3.752  1.0158 -0.3142  0.2565
   15MOL   C244 4472   6.354   5.134   3.807  0.1283  0.0629 -0.4641
   15MOL   O245 4473   6.237   5.093   3.798  0.0913  0.1141 -0.7439
   15MOL   O246 4474   6.454   5.060   3.855 -0.2910 -0.1840 -0.1906
   15MOL   C247 4475   6.429   4.948   3.931  0.8566 -0.2102 -0.1509
   15MOL   C248 4476   6.551   4.869   3.967 -0.0114  0.3315  0.1765
   15MOL   H249 4477   6.395   5.399   3.575 -1.5113 -0.7676 -2.5109
   15MOL   H250 4478   6.268   5.285   3.576 -0.8302  1.6900  0.3904
   15MOL   H251 4479   6.493   5.283   3.768  0.6763 -0.5608  2.8286
   15MOL   H252 4480   6.374   4.986   4.017  0.8607  0.3667 -0.4001
   15MOL   H253 4481   6.372   4.874   3.876  1.5495 -1.0049  0.1965
   15MOL   H254 4482   6.626   4.933   4.014  0.5413 -0.3198  0.1931
   15MOL   H255 4483   6.604   4.835   3.877 -1.8144  3.3220 -2.1253
   15MOL   H256 4484   6.525   4.787   4.033  1.4773 -0.4891 -0.2373
   15MOL   C257 4485   6.313   5.390   3.829  0.5255 -0.4484 -0.5582
   15MOL   C258 4486   6.280   5.357   3.974 -0.5690 -0.0836  0.4162
   15MOL   C259 4487   6.168   5.456   4.019 -0.4548  0.3590 -0.0311
   15MOL   O260 4488   6.049   5.412   4.018 -0.0712  0.3825  0.3334
   15MOL   O261 4489   6.209   5.586   4.052  0.2348  0.7963 -0.3801
   15MOL   C262 4490   6.107   5.685   4.081  0.0807 -0.0554  0.0155
   15MOL   C263 4491   6.038   5.669   4.215  0.1216 -0.4915  0.0049
   15MOL   H264 4492   6.375   5.478   3.814 -0.4851  0.4501  0.4316
   15MOL   H265 4493   6.223   5.433   3.785 -1.5207 -2.6581  1.2898
   15MOL   H266 4494   6.225   5.263   3.979  0.1177 -0.6252 -1.6688
   15MOL   H267 4495   6.149   5.786   4.081  0.4967 -0.1802  2.5731
   15MOL   H268 4496   6.031   5.680   4.004  0.2803 -1.7567 -0.1005
   15MOL   H269 4497   6.099   5.681   4.305 -1.0236 -0.2352  0.7629
   15MOL   H270 4498   5.993   5.570   4.224  0.9829 -1.0465 -1.5512
   15MOL   H271 4499   5.943   5.721   4.214  0.1344 -0.4819 -1.8459
   15MOL   C272 4500   6.400   5.350   4.073  0.2985 -0.3230 -0.1474
   15MOL   C273 4501   6.378   5.248   4.188  0.0440 -0.4607 -0.9733
   15MOL   C274 4502   6.282   5.302   4.295 -0.0657 -0.0276 -0.1633
   15MOL   O275 4503   6.322   5.367   4.396  0.2582  0.0960  0.3134
   15MOL   O276 4504   6.157   5.268   4.264 -0.1525  0.5570  0.3950
   15MOL   C277 4505   6.055   5.306   4.352  0.1876 -0.1089  0.0559
   15MOL   C278 4506   6.039   5.196   4.454  0.0920 -0.3444  0.3675
   15MOL   H279 4507   6.491   5.330   4.017  0.5210  0.8553 -0.2117
   15MOL   H280 4508   6.420   5.450   4.112 -2.3293  0.2428 -0.1445
   15MOL   H281 4509   6.339   5.154   4.151 -2.7957  0.2010  0.2161
   15MOL   H282 4510   6.080   5.400   4.402  1.1195  0.5263 -1.5362
   15MOL   H283 4511   5.963   5.316   4.295 -0.1069  0.4247  0.6200
   15MOL   H284 4512   5.954   5.218   4.518 -0.4175  0.6904 -0.6389
   15MOL   H285 4513   6.128   5.192   4.516  0.0966 -0.7220  0.3379
   15MOL   H286 4514   6.004   5.104   4.407 -1.6318  0.0801  0.7805
   15MOL   C287 4515   6.519   5.220   4.250 -0.1188 -0.5955 -0.7346
   15MOL   C288 4516   6.525   5.126   4.370  0.1529  0.2992 -0.0083
   15MOL   C289 4517   6.460   4.988   4.349  0.3721  0.6103  0.1876
   15MOL   O290 4518   6.467   4.931   4.244 -0.3159  0.4392 -0.4746
   15MOL   O291 4519   6.388   4.940   4.450 -0.0790  0.4878 -0.1199
   15MOL   C292 4520   6.357   4.803   4.452  0.0890  0.0155  0.4644
   15MOL   C293 4521   6.206   4.789   4.453 -0.4957  0.3638 -0.1322
   15MOL   H294 4522   6.580   5.169   4.175  0.0029  1.8452 -2.3361
   15MOL   H295 4523   6.555   5.320   4.272 -0.7080 -0.9529  1.9735
   15MOL   H296 4524   6.628   5.106   4.400  0.1427  0.4891  0.1567
   15MOL   H297 4525   6.403   4.751   4.368  1.0529  0.5671  0.6305
   15MOL   H298 4526   6.409   4.771   4.543 -0.9038  3.1034  2.2205
   15MOL   H299 4527   6.177   4.693   4.496 -1.1471 -0.2431 -1.8804
   15MOL   H300 4528   6.154   4.806   4.359 -1.3264  1.1983  0.4722
   15MOL   H301 4529   6.164   4.858   4.526 -0.7318  0.6354 -0.5257
   15MOL   H302 4530   6.481   5.178   4.456  1.1587 -3.0781  2.6600
   16MOL     C1 4531   3.719   1.041   6.779  0.7637 -0.3007 -0.6015
   16MOL     C2 4532   3.647   1.046   6.637 -0.0413  0.4031  0.1184
   16MOL     C3 4533   3.590   1.186   6.616 -0.3818  0.3427 -0.6891
   16MOL     O4 4534   3.570   1.222   6.498  0.1666 -0.2547  0.1696
   16MOL     O5 4535   3.560   1.259   6.729  0.2565  0.0130  0.3917
   16MOL     C6 4536   3.512   1.400   6.713 -0.1458  0.4906 -0.0749
   16MOL     C7 4537   3.603   1.494   6.796  0.2079  0.3397  0.2712
   16MOL     H8 4538   3.794   0.962   6.774 -0.3744 -1.3213 -1.8799
   16MOL     H9 4539   3.650   1.045   6.863  0.6423  2.4315 -0.7796
   16MOL    H10 4540   3.726   1.050   6.562 -0.3569  1.1619 -0.1747
   16MOL    H11 4541   3.524   1.434   6.610  2.1432 -2.6335 -0.9271
   16MOL    H12 4542   3.412   1.411   6.754 -0.5156  1.3685 -1.2162
   16MOL    H13 4543   3.710   1.490   6.773  0.4803  1.1596  1.3548
   16MOL    H14 4544   3.585   1.468   6.900 -3.0191  1.2107 -0.0270
   16MOL    H15 4545   3.568   1.597   6.801 -0.0373  0.4791 -3.1692
   16MOL    H16 4546   3.774   1.133   6.798  0.1765  0.1131 -0.8849
   16MOL    C17 4547   3.548   0.930   6.625  0.6649  0.8470  0.4919
   16MOL    C18 4548   3.580   0.825   6.510  0.4195  0.5788  0.1905
   16MOL    C19 4549   3.718   0.768   6.532 -0.4480 -0.2406 -0.4057
   16MOL    O20 4550   3.815   0.790   6.456  0.1081  0.1356  0.1605
   16MOL    O21 4551   3.735   0.686   6.638  0.1288  0.2002  0.3764
   16MOL    C22 4552   3.865   0.623   6.662  0.4788 -0.0411  0.3625
   16MOL    C23 4553   3.842   0.528   6.782 -0.6040 -0.2684  0.0602
   16MOL    H24 4554   3.540   0.877   6.720  2.1654 -0.4723 -0.0974
   16MOL    H25 4555   3.446   0.967   6.609  0.2787 -1.1480 -1.9645
   16MOL    H26 4556   3.515   0.740   6.530  0.3688  0.5595 -0.0504
   16MOL    H27 4557   3.873   0.560   6.574 -1.0795  0.0366  0.1381
   16MOL    H28 4558   3.941   0.701   6.665  2.4659 -1.9527  2.0066
   16MOL    H29 4559   3.920   0.456   6.805  0.2585  0.4063 -0.7136
   16MOL    H30 4560   3.751   0.469   6.772 -0.1202 -1.9618  4.4498
   16MOL    H31 4561   3.804   0.583   6.869  2.5550 -1.2558  2.1515
   16MOL    C32 4562   3.553   0.888   6.371 -0.8696 -0.1803  0.3449
   16MOL    C33 4563   3.401   0.899   6.344  0.4598  0.5113 -0.3222
   16MOL    C34 4564   3.329   0.763   6.340 -0.0695  0.1448 -0.0028
   16MOL    O35 4565   3.383   0.658   6.296  0.7072 -0.6966  0.5600
   16MOL    O36 4566   3.206   0.774   6.382 -0.0317 -0.3112  0.4750
   16MOL    C37 4567   3.117   0.663   6.373 -0.5211  0.7255  0.0487
   16MOL    C38 4568   3.026   0.691   6.249 -0.5752 -0.6254 -0.2779
   16MOL    H39 4569   3.595   0.987   6.356 -0.4043 -0.6299 -1.5222
   16MOL    H40 4570   3.593   0.824   6.292  1.3855  1.0166  0.4529
   16MOL    H41 4571   3.359   0.965   6.419 -1.9889 -0.4966 -0.7668
   16MOL    H42 4572   3.176   0.572   6.369 -0.4582  0.8393 -3.6471
   16MOL    H43 4573   3.052   0.651   6.460  0.1342 -1.1570  0.3012
   16MOL    H44 4574   2.956   0.608   6.243  0.2255 -1.2608 -0.9489
   16MOL    H45 4575   3.083   0.707   6.158  2.1016  0.2946  1.4842
   16MOL    H46 4576   2.973   0.784   6.270  2.5035  1.1507 -0.1824
   16MOL    C47 4577   3.378   0.978   6.212  0.1793 -0.4430 -0.7378
   16MOL    C48 4578   3.369   1.133   6.224  0.6276  0.7189 -0.0590
   16MOL    C49 4579   3.272   1.187   6.331 -0.1401  0.2294  0.1247
   16MOL    O50 4580   3.184   1.116   6.382 -0.9194 -0.2847  0.2346
   16MOL    O51 4581   3.284   1.321   6.348  0.3813 -0.1880 -0.2155
   16MOL    C52 4582   3.196   1.387   6.436  0.3929  0.1469 -0.2714
   16MOL    C53 4583   3.198   1.530   6.403 -0.3001 -0.2658 -0.6908
   16MOL    H54 4584   3.460   0.951   6.145 -0.0756  0.8293 -1.5670
   16MOL    H55 4585   3.285   0.948   6.163 -1.8668  1.4368  1.8612
   16MOL    H56 4586   3.471   1.166   6.247  0.1088  0.5105  2.6634
   16MOL    H57 4587   3.094   1.351   6.423  0.1160  0.0231  2.0822
   16MOL    H58 4588   3.232   1.364   6.536 -0.0047 -0.8139 -0.3393
   16MOL    H59 4589   3.275   1.588   6.454  2.5317 -3.1835 -1.4748
   16MOL    H60 4590   3.103   1.571   6.436  0.1222 -1.2949  1.8958
   16MOL    H61 4591   3.201   1.547   6.295  1.6742 -0.0764 -0.6367
   16MOL    C62 4592   3.344   1.200   6.083 -0.1147 -0.0328 -1.1266
   16MOL    C63 4593   3.386   1.350   6.067  0.3424 -0.1096  0.4875
   16MOL    C64 4594   3.315   1.412   5.947  1.2188  0.6302 -0.0851
   16MOL    O65 4595   3.273   1.346   5.852 -0.3225 -0.2732  0.4518
   16MOL    O66 4596   3.304   1.544   5.958  0.4166  0.3886 -0.1474
   16MOL    C67 4597   3.234   1.623   5.870  0.0358  0.0394 -0.1098
   16MOL    C68 4598   3.327   1.715   5.786 -0.1202 -0.0688  0.2691
   16MOL    H69 4599   3.397   1.145   6.005 -1.9568 -1.2758 -1.5184
   16MOL    H70 4600   3.242   1.182   6.052 -1.5106  1.6905  2.1881
   16MOL    H71 4601   3.352   1.404   6.155  0.1555 -0.6172  0.7270
   16MOL    H72 4602   3.170   1.558   5.810 -1.5588  0.7574  0.7709
   16MOL    H73 4603   3.168   1.682   5.935 -0.2414  0.4353 -0.7427
   16MOL    H74 4604   3.285   1.778   5.708  0.4233 -1.3500 -1.0818
   16MOL    H75 4605   3.402   1.659   5.730 -0.3103  0.0915 -0.1518
   16MOL    H76 4606   3.382   1.780   5.854 -0.8471  0.3167  0.4909
   16MOL    C77 4607   3.537   1.367   6.047  0.0018 -0.9940  0.5562
   16MOL    C78 4608   3.590   1.507   6.085  0.1278 -0.4357  0.1000
   16MOL    C79 4609   3.697   1.551   5.985  0.4264 -0.7959 -0.0963
   16MOL    O80 4610   3.813   1.580   6.023  0.4561  0.5323  0.7365
   16MOL    O81 4611   3.648   1.570   5.869  0.0851 -0.1823 -0.2530
   16MOL    C82 4612   3.724   1.643   5.764  0.1775 -0.2901 -0.6018
   16MOL    C83 4613   3.823   1.541   5.699  0.1915  0.0025  0.6086
   16MOL    H84 4614   3.590   1.298   6.113  0.1686 -1.2822  0.1263
   16MOL    H85 4615   3.567   1.339   5.946  1.7024 -2.8190  1.5224
   16MOL    H86 4616   3.515   1.584   6.076 -1.3506 -1.9085 -0.4141
   16MOL    H87 4617   3.646   1.676   5.696 -0.0420  1.1878  0.3584
   16MOL    H88 4618   3.763   1.730   5.816 -1.4439 -0.4987  1.0103
   16MOL    H89 4619   3.908   1.517   5.762 -0.6025 -0.0765  1.6722
   16MOL    H90 4620   3.850   1.590   5.605  0.8442  0.8997  1.2604
   16MOL    H91 4621   3.771   1.446   5.688 -1.0956  0.3345  3.4005
   16MOL    C92 4622   3.635   1.507   6.237  0.1152  0.3307 -0.1367
   16MOL    C93 4623   3.661   1.639   6.308  0.0960  0.0393 -0.4936
   16MOL    C94 4624   3.759   1.626   6.430 -0.6883 -0.3640  0.4370
   16MOL    O95 4625   3.797   1.518   6.470  0.3488 -0.0531 -0.5554
   16MOL    O96 4626   3.783   1.746   6.491 -0.5909  0.0820  0.0037
   16MOL    C97 4627   3.846   1.748   6.620 -0.1126 -0.0623 -0.2340
   16MOL    C98 4628   3.772   1.849   6.704 -0.0895  0.1355 -0.4430
   16MOL    H99 4629   3.569   1.449   6.301  1.1568 -3.0946 -2.0598
   16MOL   H100 4630   3.725   1.446   6.233  1.3213  1.7991  3.1425
   16MOL   H101 4631   3.725   1.705   6.249  1.1504  0.0263  0.6177
   16MOL   H102 4632   3.848   1.650   6.669 -3.4922  0.5082  1.2363
   16MOL   H103 4633   3.946   1.781   6.595  1.0198 -1.5331  2.1440
   16MOL   H104 4634   3.663   1.842   6.706 -0.0752 -0.2237 -0.8891
   16MOL   H105 4635   3.773   1.949   6.659 -0.8184  0.6845  0.7219
   16MOL   H106 4636   3.805   1.853   6.808  0.1022  1.4608 -0.5351
   16MOL   C107 4637   3.528   1.714   6.340 -0.2641  1.0435 -0.1956
   16MOL   C108 4638   3.517   1.858   6.282  0.1738  0.1694 -0.6683
   16MOL   C109 4639   3.386   1.926   6.334  0.0212 -0.0157  0.6046
   16MOL   O110 4640   3.277   1.899   6.283  0.0671 -0.3151  0.4268
   16MOL   O111 4641   3.411   2.002   6.436  0.5081 -0.9118  0.4310
   16MOL   C112 4642   3.297   2.072   6.501  0.2129 -0.3147 -0.2823
   16MOL   C113 4643   3.241   1.997   6.624  0.3312  0.1110 -0.0884
   16MOL   H114 4644   3.447   1.652   6.301 -0.8451  2.7934 -1.8524
   16MOL   H115 4645   3.515   1.714   6.448  0.9024 -1.2127 -0.0363
   16MOL   H116 4646   3.604   1.909   6.323 -0.5522 -1.5990  3.2253
   16MOL   H117 4647   3.327   2.174   6.523 -5.0944  1.2160  0.2904
   16MOL   H118 4648   3.223   2.082   6.422 -0.7811  0.7323  0.7627
   16MOL   H119 4649   3.165   2.066   6.663 -0.5606 -0.4708 -0.7867
   16MOL   H120 4650   3.313   1.997   6.706  0.1776 -0.6988  0.0458
   16MOL   H121 4651   3.198   1.901   6.595 -0.2982  0.5048 -0.4741
   16MOL   C122 4652   3.512   1.859   6.126 -0.7205 -0.2946  0.3378
   16MOL   C123 4653   3.539   1.996   6.059  0.3690 -0.6125  0.3971
   16MOL   C124 4654   3.418   2.092   6.056  0.6666  0.3902  0.2782
   16MOL   O125 4655   3.408   2.188   6.131 -0.1811  0.0869 -0.1360
   16MOL   O126 4656   3.328   2.056   5.955 -0.8519  0.4118 -0.3837
   16MOL   C127 4657   3.219   2.135   5.923  0.0999  0.3657 -0.5661
   16MOL   C128 4658   3.181   2.109   5.779  1.2279  0.3694 -0.5127
   16MOL   H129 4659   3.599   1.798   6.100 -0.9216 -0.1851 -0.6016
   16MOL   H130 4660   3.423   1.820   6.077 -0.4330  1.1119 -1.3594
   16MOL   H131 4661   3.614   2.034   6.127  0.9487 -0.6061 -0.2425
   16MOL   H132 4662   3.131   2.114   5.984  1.0681 -0.0702  0.7040
   16MOL   H133 4663   3.239   2.238   5.954  0.6385  0.2151 -0.3986
   16MOL   H134 4664   3.263   2.134   5.712 -0.6436 -1.5022 -3.6496
   16MOL   H135 4665   3.091   2.162   5.747 -0.7310 -1.5869  1.5775
   16MOL   H136 4666   3.165   2.002   5.764  1.6456  0.0883  0.9508
   16MOL   C137 4667   3.610   1.990   5.921  0.0445 -0.2061 -0.0751
   16MOL   C138 4668   3.700   2.109   5.896  0.0925  0.0042 -0.1358
   16MOL   C139 4669   3.633   2.236   5.837 -0.0820  0.7693 -0.5003
   16MOL   O140 4670   3.673   2.347   5.882  0.7443 -0.2710  0.1658
   16MOL   O141 4671   3.544   2.214   5.746  0.2545  0.2080 -0.3955
   16MOL   C142 4672   3.487   2.321   5.676 -0.1469  0.0363  0.3196
   16MOL   C143 4673   3.572   2.338   5.551  0.2199 -0.6766 -0.0412
   16MOL   H144 4674   3.668   1.898   5.924  1.4839  0.6658 -0.6380
   16MOL   H145 4675   3.536   1.975   5.842  0.2271 -0.2851 -0.2313
   16MOL   H146 4676   3.741   2.139   5.993 -1.5813  3.7447 -0.5079
   16MOL   H147 4677   3.390   2.291   5.638 -0.1157  0.9722 -0.5256
   16MOL   H148 4678   3.475   2.413   5.733 -1.1154 -0.4598  0.9244
   16MOL   H149 4679   3.581   2.242   5.501 -1.3541 -1.5658  1.3429
   16MOL   H150 4680   3.667   2.381   5.581 -0.3168 -1.6573  3.2606
   16MOL   H151 4681   3.535   2.408   5.476 -0.3538 -1.2002 -0.2521
   16MOL   C152 4682   3.820   2.060   5.809 -0.3028 -0.7879  0.1541
   16MOL   C153 4683   3.930   1.975   5.879  0.4617 -0.3489 -0.1808
   16MOL   C154 4684   3.986   2.029   6.010 -0.0606  0.1308 -0.0527
   16MOL   O155 4685   3.941   1.999   6.123 -0.5379 -0.1966 -0.2399
   16MOL   O156 4686   4.066   2.133   5.976  0.8915 -0.1998 -0.4577
   16MOL   C157 4687   4.114   2.217   6.081  0.2069 -0.3140 -0.4208
   16MOL   C158 4688   4.257   2.268   6.069  0.3120  0.6141  0.7468
   16MOL   H159 4689   3.784   2.017   5.715  2.0293 -0.3783 -0.9641
   16MOL   H160 4690   3.878   2.147   5.779  1.2861 -1.2041  1.9128
   16MOL   H161 4691   3.883   1.878   5.895 -2.0433  0.7364 -0.6032
   16MOL   H162 4692   4.039   2.290   6.109 -0.4557 -1.0185 -0.3384
   16MOL   H163 4693   4.115   2.160   6.175 -1.5085 -0.6359 -0.5777
   16MOL   H164 4694   4.278   2.333   6.154  1.3038  2.5169 -0.8838
   16MOL   H165 4695   4.274   2.327   5.979  0.7100  1.2172  1.2125
   16MOL   H166 4696   4.333   2.190   6.062 -0.6599 -0.2493 -0.5376
   16MOL   C167 4697   4.044   1.936   5.783 -0.2551  0.1284  0.0267
   16MOL   C168 4698   4.167   1.861   5.839  0.0419 -0.6729 -0.3772
   16MOL   C169 4699   4.284   1.881   5.747 -0.0813  0.7223  0.7175
   16MOL   O170 4700   4.392   1.930   5.785 -0.6904 -0.3014  0.3115
   16MOL   O171 4701   4.257   1.834   5.619 -0.3288 -0.0677 -0.2597
   16MOL   C172 4702   4.352   1.850   5.517  0.4681 -0.2131 -0.0123
   16MOL   C173 4703   4.297   1.823   5.383  0.1075 -0.6903  0.6463
   16MOL   H174 4704   4.007   1.886   5.694 -1.1963  2.0078 -0.6545
   16MOL   H175 4705   4.074   2.037   5.754  0.3656 -0.5497 -1.7511
   16MOL   H176 4706   4.198   1.906   5.933 -2.3007 -0.4537  0.3168
   16MOL   H177 4707   4.407   1.944   5.524 -0.0550  0.0890  0.1182
   16MOL   H178 4708   4.429   1.777   5.539  0.6129  0.8312  3.1738
   16MOL   H179 4709   4.231   1.906   5.358  1.1832  0.2370  0.8734
   16MOL   H180 4710   4.243   1.729   5.378 -3.0688  1.1385 -0.9368
   16MOL   H181 4711   4.377   1.818   5.310  0.7082 -0.6313  1.2957
   16MOL   C182 4712   4.148   1.705   5.860  0.0637  0.2228 -0.6709
   16MOL   C183 4713   4.228   1.623   5.968  0.1917  0.2013 -1.2473
   16MOL   C184 4714   4.239   1.468   5.934 -0.6041 -0.3070 -0.0571
   16MOL   O185 4715   4.349   1.407   5.921 -0.5019  0.4593 -0.2605
   16MOL   O186 4716   4.116   1.411   5.929  0.3621  0.0743  0.2362
   16MOL   C187 4717   4.111   1.267   5.921  0.7415  0.3983  0.5497
   16MOL   C188 4718   3.968   1.213   5.935  0.1010 -0.6313  0.0719
   16MOL   H189 4719   4.044   1.685   5.884  0.6275 -0.6172  1.1701
   16MOL   H190 4720   4.142   1.657   5.762 -1.1271  1.5124 -1.2446
   16MOL   H191 4721   4.330   1.661   5.967  0.7594 -1.1561  1.5314
   16MOL   H192 4722   4.151   1.235   5.825  0.9215  3.7396 -0.5809
   16MOL   H193 4723   4.174   1.233   6.003  0.0991  1.6786  1.5994
   16MOL   H194 4724   3.904   1.254   5.857  1.2434 -1.9832 -1.5952
   16MOL   H195 4725   3.920   1.241   6.029 -1.4947  1.8095 -1.3905
   16MOL   H196 4726   3.961   1.105   5.921 -1.5630 -0.5495  0.1486
   16MOL   C197 4727   4.172   1.639   6.113 -0.1612  0.5475  0.5383
   16MOL   C198 4728   4.278   1.673   6.216 -0.3122 -0.0196  0.0841
   16MOL   C199 4729   4.338   1.556   6.292  0.6688 -0.2680 -0.5416
   16MOL   O200 4730   4.299   1.522   6.406  0.0665 -0.2005  0.2492
   16MOL   O201 4731   4.429   1.483   6.219 -0.0997  0.1686  0.1543
   16MOL   C202 4732   4.467   1.354   6.261 -0.0662  0.3470 -0.3694
   16MOL   C203 4733   4.366   1.246   6.225 -0.7006  0.1094 -0.5555
   16MOL   H204 4734   4.076   1.690   6.118 -0.5843 -0.0281 -1.1929
   16MOL   H205 4735   4.130   1.539   6.129  1.2569  0.1469  1.7709
   16MOL   H206 4736   4.359   1.708   6.151 -0.9399 -0.2156 -0.8102
   16MOL   H207 4737   4.560   1.326   6.211  2.1473  0.0005  3.7154
   16MOL   H208 4738   4.494   1.350   6.367  0.6783 -2.4156 -0.6252
   16MOL   H209 4739   4.351   1.248   6.117 -0.2747  0.6383 -0.6059
   16MOL   H210 4740   4.271   1.256   6.279 -0.3160  1.9699 -0.2022
   16MOL   H211 4741   4.402   1.151   6.265 -0.8627 -0.3103 -1.4049
   16MOL   C212 4742   4.224   1.788   6.306  0.1527 -0.1696  0.6735
   16MOL   C213 4743   4.336   1.858   6.395 -0.4819 -0.0887 -0.6858
   16MOL   C214 4744   4.274   1.911   6.522  0.4689  0.1365  0.0231
   16MOL   O215 4745   4.298   1.866   6.633 -0.0537  1.1476  0.0148
   16MOL   O216 4746   4.185   2.005   6.493 -0.6957  0.0264  0.2938
   16MOL   C217 4747   4.111   2.078   6.590  0.2150  0.0505 -0.6778
   16MOL   C218 4748   3.980   2.120   6.516 -0.2554  0.5769 -0.0031
   16MOL   H219 4749   4.162   1.861   6.255  2.8427  2.4409  1.0132
   16MOL   H220 4750   4.165   1.739   6.384 -0.0169 -1.1439 -0.0419
   16MOL   H221 4751   4.397   1.776   6.433 -0.0832  0.5550  0.0923
   16MOL   H222 4752   4.089   2.017   6.677 -0.0090 -0.2860 -0.9673
   16MOL   H223 4753   4.162   2.170   6.619 -0.1500  0.4284 -1.2212
   16MOL   H224 4754   3.999   2.182   6.429  0.5206  0.6198  0.1938
   16MOL   H225 4755   3.922   2.175   6.590  0.3413  0.9874  0.1628
   16MOL   H226 4756   3.924   2.034   6.479 -1.4318  0.7159  1.3825
   16MOL   C227 4757   4.412   1.963   6.313  0.0198  0.4562 -0.4783
   16MOL   C228 4758   4.526   2.047   6.380  0.1655 -0.5112 -0.1437
   16MOL   C229 4759   4.565   2.166   6.292  0.2242 -0.4253 -0.0863
   16MOL   O230 4760   4.588   2.150   6.170 -0.4081 -0.1039  0.1712
   16MOL   O231 4761   4.598   2.279   6.365 -0.2812 -0.4225  0.5363
   16MOL   C232 4762   4.676   2.376   6.293  0.7953  0.6377 -0.5155
   16MOL   C233 4763   4.743   2.473   6.394 -0.4048  0.5047 -0.2382
   16MOL   H234 4764   4.455   1.909   6.229  3.1264  0.3052  1.1422
   16MOL   H235 4765   4.335   2.031   6.276 -1.0633 -0.7589 -0.5161
   16MOL   H236 4766   4.477   2.086   6.469 -0.8495  0.3740 -1.0753
   16MOL   H237 4767   4.756   2.326   6.238 -1.3163 -2.4619 -0.8835
   16MOL   H238 4768   4.623   2.428   6.213  0.6581  1.5550  0.1758
   16MOL   H239 4769   4.800   2.411   6.463 -0.4773 -1.2996 -1.7682
   16MOL   H240 4770   4.672   2.528   6.456  1.0284  1.6773  0.4009
   16MOL   H241 4771   4.816   2.541   6.348  0.0154  0.4974  0.4085
   16MOL   C242 4772   4.645   1.961   6.432  0.3071  0.2219  0.2082
   16MOL   C243 4773   4.751   2.051   6.507  0.0964 -0.6785  0.2495
   16MOL   C244 4774   4.888   2.040   6.444 -0.1959  0.2558 -0.3677
   16MOL   O245 4775   4.946   2.129   6.386 -0.1678 -0.4408  0.1245
   16MOL   O246 4776   4.929   1.914   6.447  0.4757 -1.0932 -0.0493
   16MOL   C247 4777   5.051   1.880   6.391 -0.2012 -0.1443 -0.1983
   16MOL   C248 4778   5.060   1.728   6.376  0.3795  0.3572  1.5738
   16MOL   H249 4779   4.612   1.875   6.491 -1.1305  0.4520 -0.2316
   16MOL   H250 4780   4.680   1.911   6.341  0.6209 -1.2322  1.1196
   16MOL   H251 4781   4.738   2.159   6.498  0.2326 -0.5772  1.2035
   16MOL   H252 4782   5.057   1.919   6.289  3.0137 -2.7717 -1.1069
   16MOL   H253 4783   5.141   1.914   6.443  0.0497 -2.4472  0.9300
   16MOL   H254 4784   5.158   1.696   6.340 -0.6277 -1.7158  0.6114
   16MOL   H255 4785   4.995   1.683   6.302  1.4259  0.0643  0.8261
   16MOL   H256 4786   5.040   1.669   6.466 -0.8970  0.1026  1.1193
   16MOL   C257 4787   4.765   2.025   6.664 -0.3962 -0.0259  0.0589
   16MOL   C258 4788   4.634   2.059   6.747  0.9496  0.0177 -0.5972
   16MOL   C259 4789   4.600   2.211   6.740  0.3019 -0.1735 -0.6572
   16MOL   O260 4790   4.480   2.247   6.734  0.6718 -0.5568 -0.3872
   16MOL   O261 4791   4.702   2.291   6.770 -0.2057  0.1001  0.4696
   16MOL   C262 4792   4.690   2.428   6.762 -0.6248 -0.4954  0.4333
   16MOL   C263 4793   4.646   2.482   6.890 -0.4814  0.0677  0.1928
   16MOL   H264 4794   4.804   1.924   6.674 -1.3772 -0.4157 -0.0907
   16MOL   H265 4795   4.842   2.080   6.719 -0.9794 -0.0514  0.9031
   16MOL   H266 4796   4.545   2.015   6.704  1.3264 -0.2896 -1.0719
   16MOL   H267 4797   4.795   2.446   6.740 -1.3649  1.3583 -1.7922
   16MOL   H268 4798   4.633   2.456   6.674 -0.7729 -0.1857  0.6261
   16MOL   H269 4799   4.540   2.472   6.917 -1.0246 -0.5346 -2.0439
   16MOL   H270 4800   4.655   2.590   6.899 -4.2502  0.4159  0.6810
   16MOL   H271 4801   4.709   2.442   6.969 -0.7677 -1.7861 -0.5029
   16MOL   C272 4802   4.646   2.017   6.891  0.7177 -0.5806  0.1914
   16MOL   C273 4803   4.509   2.011   6.963  0.2542  0.0062 -0.3501
   16MOL   C274 4804   4.517   2.068   7.111  0.1179 -0.1740 -0.2669
   16MOL   O275 4805   4.484   2.000   7.207 -0.3082  0.3058  0.5038
   16MOL   O276 4806   4.557   2.202   7.119  0.4576 -0.1848 -0.2404
   16MOL   C277 4807   4.536   2.270   7.237 -0.0785 -0.2102  0.6690
   16MOL   C278 4808   4.576   2.417   7.227  0.5990 -0.0993 -0.3416
   16MOL   H279 4809   4.688   1.918   6.906 -1.1265 -1.5121 -0.5085
   16MOL   H280 4810   4.713   2.089   6.936  0.1800 -1.1665  1.9577
   16MOL   H281 4811   4.443   2.083   6.915 -1.0406 -1.5042 -0.8962
   16MOL   H282 4812   4.428   2.268   7.254 -0.5991 -1.3732 -2.4884
   16MOL   H283 4813   4.590   2.222   7.318 -0.1945 -1.9779 -0.2972
   16MOL   H284 4814   4.582   2.451   7.330 -0.0212 -0.0936 -0.3048
   16MOL   H285 4815   4.526   2.475   7.150 -0.7013 -0.0469  0.5397
   16MOL   H286 4816   4.678   2.411   7.188  0.4287 -2.0555 -0.5322
   16MOL   C287 4817   4.437   1.879   6.949  0.2130 -0.1078  0.0552
   16MOL   C288 4818   4.505   1.751   7.008  0.4214  0.7367 -0.2149
   16MOL   C289 4819   4.411   1.636   7.046 -0.2914  0.2751  0.6411
   16MOL   O290 4820   4.428   1.519   7.002  0.3850 -0.0156  0.3700
   16MOL   O291 4821   4.321   1.683   7.134 -0.0318 -0.0771  0.0719
   16MOL   C292 4822   4.226   1.591   7.193 -0.2140 -1.1329  0.5330
   16MOL   C293 4823   4.125   1.652   7.281  0.6169 -0.1271  0.3475
   16MOL   H294 4824   4.344   1.877   7.005 -1.0851 -1.9061 -2.0880
   16MOL   H295 4825   4.431   1.855   6.843 -0.7454 -2.2891  0.5725
   16MOL   H296 4826   4.580   1.712   6.940 -0.2685 -1.1676  0.0868
   16MOL   H297 4827   4.173   1.538   7.114  0.5477 -1.2441  0.0866
   16MOL   H298 4828   4.292   1.517   7.239  1.4630 -2.1702 -3.3617
   16MOL   H299 4829   4.169   1.709   7.362 -1.2426  1.5060  0.2381
   16MOL   H300 4830   4.051   1.574   7.300  1.6008 -1.4322 -1.0369
   16MOL   H301 4831   4.079   1.732   7.223  1.0913  0.5965  0.9658
   16MOL   H302 4832   4.566   1.784   7.092  2.4867  0.2695 -1.5091
   17MOL     C1 4833   7.799   2.254   2.012  0.7590  0.2492 -0.9229
   17MOL     C2 4834   7.662   2.310   1.978 -0.9293 -0.0264  0.0959
   17MOL     C3 4835   7.653   2.346   1.828 -0.3681  0.8409  1.4290
   17MOL     O4 4836   7.572   2.287   1.758  0.3911  0.2205 -0.1557
   17MOL     O5 4837   7.743   2.440   1.792  0.5671 -0.6495  0.3265
   17MOL     C6 4838   7.762   2.471   1.655  0.1659  0.1430 -0.4720
   17MOL     C7 4839   7.679   2.591   1.612 -0.7565 -0.3651  0.8903
   17MOL     H8 4840   7.855   2.197   1.939 -0.7253  0.3944 -2.1893
   17MOL     H9 4841   7.804   2.200   2.107  0.4590 -0.4488 -1.3055
   17MOL    H10 4842   7.583   2.236   1.994  1.9727 -3.2898  0.1089
   17MOL    H11 4843   7.868   2.488   1.635  1.3277 -2.6547  2.7508
   17MOL    H12 4844   7.738   2.378   1.603  0.1260  0.3272 -0.7813
   17MOL    H13 4845   7.702   2.612   1.507 -3.0870 -0.1640  0.3813
   17MOL    H14 4846   7.689   2.668   1.688  1.6610 -1.3643  1.6399
   17MOL    H15 4847   7.574   2.562   1.612 -0.6599 -1.2071 -4.1412
   17MOL    H16 4848   7.872   2.334   2.026  1.1359 -0.2512  0.0441
   17MOL    C17 4849   7.617   2.426   2.078  0.1809 -0.2354  0.3173
   17MOL    C18 4850   7.610   2.395   2.227  0.1072 -0.3396  0.6377
   17MOL    C19 4851   7.486   2.321   2.264 -0.3988 -0.7787  0.5972
   17MOL    O20 4852   7.484   2.247   2.361  0.2745  0.8531  0.3739
   17MOL    O21 4853   7.376   2.338   2.183 -0.7178 -0.8735  0.1773
   17MOL    C22 4854   7.264   2.250   2.199  1.0552 -0.6505  0.3437
   17MOL    C23 4855   7.149   2.316   2.267 -0.0110 -0.1470 -0.6402
   17MOL    H24 4856   7.688   2.507   2.067 -0.5420  0.4903  0.9645
   17MOL    H25 4857   7.523   2.470   2.044 -0.5049 -3.4164 -2.2401
   17MOL    H26 4858   7.695   2.331   2.250  1.2774 -0.2490 -3.0172
   17MOL    H27 4859   7.224   2.238   2.098  1.8732 -1.9774  0.1609
   17MOL    H28 4860   7.282   2.148   2.231  0.0968 -1.1338 -0.6419
   17MOL    H29 4861   7.124   2.406   2.211  0.5594 -0.8853 -2.0846
   17MOL    H30 4862   7.186   2.343   2.366  2.5358 -1.6132 -1.1643
   17MOL    H31 4863   7.063   2.251   2.287  1.0981 -1.1718  0.8809
   17MOL    C32 4864   7.622   2.525   2.319  0.3508  0.5044 -0.6828
   17MOL    C33 4865   7.536   2.650   2.281  0.2216  0.1626 -0.4550
   17MOL    C34 4866   7.603   2.776   2.336  0.1960 -0.0472  0.4406
   17MOL    O35 4867   7.641   2.876   2.270  0.9587 -0.2269  0.5161
   17MOL    O36 4868   7.626   2.773   2.468  0.0698  0.4942  0.6333
   17MOL    C37 4869   7.671   2.881   2.538 -0.8325  0.0187  0.3051
   17MOL    C38 4870   7.555   2.970   2.586  0.7800  0.2237 -0.1604
   17MOL    H39 4871   7.609   2.497   2.424  1.0284 -0.5635 -0.8745
   17MOL    H40 4872   7.726   2.557   2.318  0.7554 -0.4749  2.7786
   17MOL    H41 4873   7.532   2.667   2.173 -0.6941 -0.7041 -0.5617
   17MOL    H42 4874   7.721   2.848   2.629  2.4269 -1.7581 -2.0285
   17MOL    H43 4875   7.733   2.942   2.472 -0.8431 -0.3786 -0.0733
   17MOL    H44 4876   7.590   3.054   2.645  1.7802  2.1448 -3.3460
   17MOL    H45 4877   7.484   2.913   2.646 -0.0004 -0.8622 -2.0265
   17MOL    H46 4878   7.500   3.019   2.505  0.3691 -2.2194 -1.4202
   17MOL    C47 4879   7.386   2.646   2.326  0.3876 -0.2383 -0.3229
   17MOL    C48 4880   7.300   2.781   2.326  0.7411  0.4235  0.5003
   17MOL    C49 4881   7.190   2.779   2.429  0.7005  0.1878  0.1394
   17MOL    O50 4882   7.163   2.676   2.492 -0.5742  0.3998 -0.1434
   17MOL    O51 4883   7.129   2.898   2.430  0.0255  0.1360 -0.6468
   17MOL    C52 4884   7.008   2.915   2.508 -0.1639 -0.6233  0.9969
   17MOL    C53 4885   6.974   3.061   2.521  0.1073 -0.1686 -0.5309
   17MOL    H54 4886   7.324   2.565   2.288 -0.2580  0.3284 -0.4830
   17MOL    H55 4887   7.398   2.615   2.430 -0.4108  1.1206  0.1942
   17MOL    H56 4888   7.368   2.858   2.364  2.1031 -0.7797  0.5488
   17MOL    H57 4889   6.934   2.854   2.457  0.3089 -2.2713  2.2039
   17MOL    H58 4890   7.017   2.880   2.611 -3.0845  0.4264  1.6441
   17MOL    H59 4891   7.065   3.114   2.549 -0.5919  0.3568  0.7777
   17MOL    H60 4892   6.896   3.091   2.591 -1.3537  1.9025 -2.9448
   17MOL    H61 4893   6.952   3.104   2.423  2.0560 -0.5183 -1.1484
   17MOL    C62 4894   7.256   2.812   2.180 -0.2688 -0.0568 -0.9888
   17MOL    C63 4895   7.176   2.706   2.101 -0.0874  0.0404 -0.1372
   17MOL    C64 4896   7.261   2.642   1.990 -0.0518 -0.0828  0.4223
   17MOL    O65 4897   7.374   2.679   1.955  0.0774 -0.2887 -0.3782
   17MOL    O66 4898   7.200   2.532   1.940  0.7482  0.0298 -0.3338
   17MOL    C67 4899   7.261   2.444   1.848 -0.2706  0.0516  0.3330
   17MOL    C68 4900   7.271   2.514   1.704  0.5131 -0.7299 -0.1990
   17MOL    H69 4901   7.194   2.901   2.186  0.1146  0.1149  0.7229
   17MOL    H70 4902   7.342   2.847   2.125  1.8875 -1.6897  1.2075
   17MOL    H71 4903   7.147   2.617   2.155 -0.5816 -0.8745 -1.8644
   17MOL    H72 4904   7.362   2.425   1.883  0.0156  3.0621  1.3387
   17MOL    H73 4905   7.197   2.356   1.841 -0.3880  0.0415  1.4991
   17MOL    H74 4906   7.344   2.594   1.709 -3.3387  2.8619  1.2344
   17MOL    H75 4907   7.174   2.546   1.666  0.5041 -1.1671 -0.5440
   17MOL    H76 4908   7.307   2.448   1.626 -1.5211 -0.5430 -1.3360
   17MOL    C77 4909   7.046   2.767   2.049 -0.5019  0.7511  0.1635
   17MOL    C78 4910   6.936   2.769   2.159  0.1538 -0.0614  0.3847
   17MOL    C79 4911   6.904   2.629   2.211 -0.1939  0.0761 -0.1389
   17MOL    O80 4912   6.870   2.535   2.139  0.4638  0.3489 -0.6388
   17MOL    O81 4913   6.892   2.628   2.340 -1.0468  0.1315  0.0713
   17MOL    C82 4914   6.848   2.508   2.413 -0.0931  0.3326 -0.1137
   17MOL    C83 4915   6.833   2.564   2.555  0.4685 -0.3331 -0.4328
   17MOL    H84 4916   7.057   2.867   2.007 -2.0084  0.0263 -2.0906
   17MOL    H85 4917   7.008   2.711   1.963 -1.1949 -0.7283  1.3971
   17MOL    H86 4918   6.980   2.832   2.237 -0.7661 -0.1880  1.0215
   17MOL    H87 4919   6.754   2.470   2.373  0.6773 -0.7368 -0.9274
   17MOL    H88 4920   6.927   2.434   2.405  0.4748  1.1522 -2.7535
   17MOL    H89 4921   6.747   2.630   2.567  0.6684 -0.3474  1.0937
   17MOL    H90 4922   6.913   2.626   2.596 -1.0050  0.4065  1.3786
   17MOL    H91 4923   6.818   2.487   2.630  0.1808  0.4647  0.3381
   17MOL    C92 4924   6.807   2.828   2.104  0.5177  0.4600  0.0073
   17MOL    C93 4925   6.696   2.851   2.212 -0.2463 -0.5237 -0.7609
   17MOL    C94 4926   6.591   2.730   2.214 -0.2172 -0.4313 -0.3515
   17MOL    O95 4927   6.556   2.670   2.111 -0.3504  0.4549 -0.0504
   17MOL    O96 4928   6.542   2.711   2.335  0.5453 -0.3876  0.2691
   17MOL    C97 4929   6.443   2.608   2.371 -0.1283  0.2295 -0.4018
   17MOL    C98 4930   6.419   2.616   2.522  0.0099  0.0929  0.6849
   17MOL    H99 4931   6.833   2.922   2.058 -1.7180  1.5814  0.9247
   17MOL   H100 4932   6.765   2.764   2.026  1.2743  2.0229 -1.7157
   17MOL   H101 4933   6.748   2.851   2.308 -3.0041  1.6563  0.8210
   17MOL   H102 4934   6.352   2.634   2.316 -0.7011  0.1876  0.5143
   17MOL   H103 4935   6.477   2.510   2.338  1.7918  0.7347  0.0219
   17MOL   H104 4936   6.500   2.573   2.582 -0.5239 -2.6185 -0.4328
   17MOL   H105 4937   6.321   2.573   2.540 -0.2404 -0.1331 -1.0784
   17MOL   H106 4938   6.401   2.718   2.554 -0.6570 -0.0993  0.9161
   17MOL   C107 4939   6.619   2.987   2.192 -0.2951 -0.2262 -0.2219
   17MOL   C108 4940   6.672   3.104   2.271  0.0727 -0.3871 -0.2327
   17MOL   C109 4941   6.592   3.111   2.406  0.5571  0.1075  0.0252
   17MOL   O110 4942   6.480   3.161   2.419 -0.3741 -1.4878  0.4198
   17MOL   O111 4943   6.661   3.051   2.507 -0.1322 -0.5754 -0.0157
   17MOL   C112 4944   6.604   3.053   2.640  0.0187  0.4044  0.0581
   17MOL   C113 4945   6.662   2.927   2.719 -0.1751 -0.6218  0.1557
   17MOL   H114 4946   6.636   3.010   2.087 -0.3697 -2.4157 -0.7505
   17MOL   H115 4947   6.512   2.972   2.207 -0.1588  0.0757  1.0817
   17MOL   H116 4948   6.774   3.088   2.308  0.0015 -0.0632  0.1108
   17MOL   H117 4949   6.629   3.152   2.677  0.1263  1.2541 -2.1653
   17MOL   H118 4950   6.495   3.044   2.641  0.0367  0.2997  1.6403
   17MOL   H119 4951   6.615   2.918   2.817  1.4856 -2.7688  0.7942
   17MOL   H120 4952   6.771   2.932   2.729 -0.3099  0.9906  0.9857
   17MOL   H121 4953   6.629   2.838   2.666 -1.1792 -1.0965  1.5309
   17MOL   C122 4954   6.679   3.235   2.194 -0.9475  0.3259  0.0300
   17MOL   C123 4955   6.780   3.259   2.077 -0.5366  0.9825  0.4383
   17MOL   C124 4956   6.929   3.241   2.118 -0.6571 -0.2572  0.1821
   17MOL   O125 4957   6.964   3.255   2.237 -0.5014 -0.3440 -0.0960
   17MOL   O126 4958   7.010   3.226   2.020  0.1769 -0.0787  0.5472
   17MOL   C127 4959   7.152   3.226   2.046  0.1807 -1.1038  0.1014
   17MOL   C128 4960   7.203   3.225   1.903  0.3519 -0.3610  0.1807
   17MOL   H129 4961   6.576   3.249   2.161 -1.0305  1.9284  0.9186
   17MOL   H130 4962   6.705   3.315   2.263  1.3207 -0.2543 -0.1244
   17MOL   H131 4963   6.763   3.173   2.013  2.3654  0.3789  0.3907
   17MOL   H132 4964   7.190   3.307   2.109  1.5160 -3.1674  2.0423
   17MOL   H133 4965   7.174   3.129   2.091  0.2140 -1.8766 -1.5353
   17MOL   H134 4966   7.179   3.320   1.856 -0.9621 -1.1236 -0.7169
   17MOL   H135 4967   7.169   3.139   1.845  0.7838 -2.0465  2.3458
   17MOL   H136 4968   7.312   3.223   1.907  0.2838 -1.2633  3.3218
   17MOL   C137 4969   6.754   3.390   2.002 -0.3545 -0.2104  0.9264
   17MOL   C138 4970   6.710   3.369   1.852 -0.5033  0.0224 -0.5010
   17MOL   C139 4971   6.827   3.330   1.760 -0.5385 -0.5767 -0.6434
   17MOL   O140 4972   6.829   3.230   1.689  0.2049  0.8455  0.0079
   17MOL   O141 4973   6.931   3.414   1.767  0.5213  0.3378 -0.4999
   17MOL   C142 4974   7.029   3.429   1.665  0.2971  0.3038  0.3113
   17MOL   C143 4975   6.969   3.487   1.544 -0.6556 -0.3589 -0.0225
   17MOL   H144 4976   6.689   3.459   2.055 -1.1919 -0.4677  0.2320
   17MOL   H145 4977   6.847   3.448   2.006 -0.7320  0.4042  0.7329
   17MOL   H146 4978   6.634   3.291   1.856  0.0831 -0.6423 -2.3231
   17MOL   H147 4979   7.092   3.498   1.721  1.0156 -0.9605  1.0661
   17MOL   H148 4980   7.071   3.330   1.649  0.6546  0.9127 -2.9131
   17MOL   H149 4981   7.044   3.498   1.466 -0.1756 -1.1101  0.3288
   17MOL   H150 4982   6.938   3.591   1.557  0.6010  0.1647 -0.9932
   17MOL   H151 4983   6.876   3.447   1.505 -0.8089  1.0586 -1.1643
   17MOL   C152 4984   6.633   3.491   1.802  0.7316  0.0080 -0.2658
   17MOL   C153 4985   6.574   3.496   1.659 -0.3378 -0.1178 -1.1061
   17MOL   C154 4986   6.519   3.635   1.641  0.3610 -0.2107  0.3687
   17MOL   O155 4987   6.588   3.722   1.599 -0.1016  0.5457 -0.5035
   17MOL   O156 4988   6.393   3.656   1.674 -0.5092  0.0085  0.2306
   17MOL   C157 4989   6.344   3.791   1.683 -0.5169 -0.2456  0.5370
   17MOL   C158 4990   6.332   3.847   1.535  0.0624  0.4040 -0.3775
   17MOL   H159 4991   6.550   3.509   1.870  1.8107 -2.0137  1.6492
   17MOL   H160 4992   6.705   3.572   1.811  1.2993 -0.6493  1.3781
   17MOL   H161 4993   6.659   3.494   1.590  0.5976  1.5270 -0.0242
   17MOL   H162 4994   6.248   3.793   1.734 -0.1255 -0.5431  1.2931
   17MOL   H163 4995   6.415   3.855   1.735  1.2684  0.1943 -2.3379
   17MOL   H164 4996   6.422   3.889   1.490  0.6210  1.6865  1.8447
   17MOL   H165 4997   6.249   3.918   1.528 -0.5920 -0.3423 -0.2189
   17MOL   H166 4998   6.315   3.769   1.461 -0.2538  0.7349 -0.6591
   17MOL   C167 4999   6.479   3.385   1.620 -0.0755  0.3082  0.2316
   17MOL   C168 5000   6.419   3.384   1.477  0.7161 -0.1827 -0.0109
   17MOL   C169 5001   6.283   3.461   1.455 -1.1898  0.1652 -0.4833
   17MOL   O170 5002   6.193   3.466   1.539  0.2006 -0.1198  0.1428
   17MOL   O171 5003   6.277   3.503   1.329  0.2114  0.9389 -0.1357
   17MOL   C172 5004   6.161   3.563   1.275 -0.0584 -0.1651  0.0174
   17MOL   C173 5005   6.198   3.661   1.169  0.4147 -0.1471 -0.7766
   17MOL   H174 5006   6.533   3.292   1.641  0.0236  0.3445  0.1331
   17MOL   H175 5007   6.394   3.388   1.689 -0.6137 -1.8802 -0.2812
   17MOL   H176 5008   6.490   3.433   1.410 -0.3005  1.8032  0.3147
   17MOL   H177 5009   6.099   3.480   1.241 -0.1226  0.6163 -1.8699
   17MOL   H178 5010   6.119   3.623   1.355 -1.1255 -0.1591 -0.5423
   17MOL   H179 5011   6.277   3.732   1.195 -1.0405  1.2788 -0.2082
   17MOL   H180 5012   6.116   3.728   1.145 -0.1441 -0.5575 -0.0211
   17MOL   H181 5013   6.225   3.613   1.075 -0.5412  0.4609 -1.3690
   17MOL   C182 5014   6.427   3.242   1.409  0.1911  0.1454 -0.7302
   17MOL   C183 5015   6.548   3.208   1.318 -0.5933 -0.6658 -0.3899
   17MOL   C184 5016   6.520   3.077   1.250  0.1242 -0.2441  0.0109
   17MOL   O185 5017   6.542   3.057   1.132 -0.4209 -0.8443 -0.4778
   17MOL   O186 5018   6.471   2.991   1.330 -0.3032  0.6552 -0.8332
   17MOL   C187 5019   6.449   2.857   1.281  0.1113 -0.3160 -0.4593
   17MOL   C188 5020   6.468   2.761   1.401  0.0132 -0.5547 -0.1462
   17MOL   H189 5021   6.405   3.169   1.487 -1.6168  1.2860 -0.1344
   17MOL   H190 5022   6.333   3.230   1.355 -0.6495 -0.8641  0.9391
   17MOL   H191 5023   6.539   3.269   1.228 -1.0847  0.3209  0.3117
   17MOL   H192 5024   6.346   2.854   1.245 -0.3915 -1.8256  1.0418
   17MOL   H193 5025   6.514   2.820   1.201 -0.6321 -2.3715 -0.1429
   17MOL   H194 5026   6.397   2.791   1.478 -0.1709  0.1191 -0.5656
   17MOL   H195 5027   6.560   2.788   1.453 -1.4862 -1.1848  2.9545
   17MOL   H196 5028   6.464   2.654   1.381 -0.1794 -0.4060 -0.9326
   17MOL   C197 5029   6.688   3.223   1.381 -0.2290  1.0285 -0.5331
   17MOL   C198 5030   6.813   3.198   1.292  0.0040  0.4225 -0.5060
   17MOL   C199 5031   6.937   3.173   1.373  0.4041 -0.2395  0.2798
   17MOL   O200 5032   7.033   3.249   1.369  0.4386  0.1489  0.1044
   17MOL   O201 5033   6.937   3.056   1.441  0.0244  0.4908  0.0937
   17MOL   C202 5034   7.041   3.020   1.529 -0.4624 -0.8588 -0.6557
   17MOL   C203 5035   6.998   2.889   1.603 -0.8212 -0.1090 -0.7061
   17MOL   H204 5036   6.687   3.318   1.436 -1.4074  0.1868  0.9212
   17MOL   H205 5037   6.686   3.149   1.460  0.6046  1.7004  0.1264
   17MOL   H206 5038   6.789   3.102   1.246 -1.0071 -0.7105  2.2660
   17MOL   H207 5039   7.134   3.009   1.473  0.7381 -1.3398  1.4088
   17MOL   H208 5040   7.050   3.099   1.604 -1.3919 -1.8024  0.4798
   17MOL   H209 5041   6.993   2.796   1.546  1.4418  0.6923 -2.2852
   17MOL   H210 5042   6.905   2.903   1.658 -1.0764 -0.0874 -1.1370
   17MOL   H211 5043   7.062   2.867   1.688 -0.2374  1.8475 -0.5986
   17MOL   C212 5044   6.821   3.297   1.177  0.3295 -0.1788 -0.1188
   17MOL   C213 5045   6.860   3.226   1.041  0.6952 -0.5814  0.7110
   17MOL   C214 5046   7.009   3.193   1.033  0.1384 -0.1649 -0.7048
   17MOL   O215 5047   7.092   3.268   0.986 -0.2141 -0.0320 -0.4431
   17MOL   O216 5048   7.026   3.070   1.069  0.5714  0.1590 -0.0580
   17MOL   C217 5049   7.151   3.012   1.052 -0.0182 -0.2528 -0.2963
   17MOL   C218 5050   7.269   3.061   1.139  0.4056 -0.1363 -0.3629
   17MOL   H219 5051   6.723   3.344   1.172  1.1397  1.4991 -0.6456
   17MOL   H220 5052   6.897   3.372   1.201 -0.2924  0.1276  0.9240
   17MOL   H221 5053   6.801   3.134   1.044 -0.0595 -0.1093  0.5594
   17MOL   H222 5054   7.142   2.903   1.043  1.7669 -0.3673 -0.8947
   17MOL   H223 5055   7.169   3.055   0.954 -0.0095 -3.3169 -1.7140
   17MOL   H224 5056   7.273   3.016   1.238 -1.4160 -3.8073 -1.8386
   17MOL   H225 5057   7.270   3.170   1.141 -1.2218 -0.1367  1.9485
   17MOL   H226 5058   7.364   3.042   1.089  0.4521 -2.9146  0.7077
   17MOL   C227 5059   6.800   3.307   0.915 -0.1984  0.3043 -0.6190
   17MOL   C228 5060   6.676   3.256   0.836  0.5911 -0.5089 -0.1382
   17MOL   C229 5061   6.724   3.137   0.757  0.0054 -0.7029  0.7574
   17MOL   O230 5062   6.817   3.063   0.791  0.2545  0.5817 -0.6040
   17MOL   O231 5063   6.661   3.118   0.636 -0.0927 -0.2507 -0.5033
   17MOL   C232 5064   6.717   3.027   0.538 -0.0772  0.1181 -0.0411
   17MOL   C233 5065   6.604   2.967   0.456  0.3206  0.9720 -0.0485
   17MOL   H234 5066   6.785   3.411   0.944  1.5313  0.1312  0.9693
   17MOL   H235 5067   6.878   3.311   0.839  0.0168  0.6096 -0.3838
   17MOL   H236 5068   6.601   3.210   0.899  0.2848 -0.7974 -0.7103
   17MOL   H237 5069   6.795   3.077   0.481 -0.0748 -0.4982 -0.5884
   17MOL   H238 5070   6.761   2.942   0.590 -1.7860 -1.1290 -0.5738
   17MOL   H239 5071   6.667   2.913   0.385 -1.0602 -1.6102  0.6224
   17MOL   H240 5072   6.529   3.030   0.409 -0.6887 -0.7153 -0.7645
   17MOL   H241 5073   6.537   2.904   0.514  0.8336 -0.9843 -1.5078
   17MOL   C242 5074   6.612   3.370   0.749 -0.3542  0.1369  0.0069
   17MOL   C243 5075   6.461   3.378   0.739  0.3515  0.0341 -0.2409
   17MOL   C244 5076   6.394   3.394   0.876  0.0040 -0.4110  0.7224
   17MOL   O245 5077   6.401   3.505   0.933 -0.0853  0.0139  0.4071
   17MOL   O246 5078   6.335   3.279   0.918 -0.4808 -0.2209 -0.5748
   17MOL   C247 5079   6.264   3.286   1.039 -0.1291  0.9846  0.3530
   17MOL   C248 5080   6.211   3.149   1.088  0.6871 -0.6603 -0.1324
   17MOL   H249 5081   6.649   3.465   0.787  0.1808 -0.8856  2.1218
   17MOL   H250 5082   6.650   3.372   0.647  0.8998 -0.5694  0.4453
   17MOL   H251 5083   6.423   3.474   0.703 -1.9941 -0.7786 -0.0381
   17MOL   H252 5084   6.338   3.332   1.105  2.3169 -1.3291 -0.6885
   17MOL   H253 5085   6.190   3.361   1.011  0.0523  0.9796 -0.1511
   17MOL   H254 5086   6.288   3.073   1.103  0.4943 -0.7660  0.3566
   17MOL   H255 5087   6.135   3.122   1.015 -0.0137 -0.4388  0.5043
   17MOL   H256 5088   6.155   3.157   1.181  0.8805  1.3085 -0.1688
   17MOL   C257 5089   6.407   3.268   0.641  0.2910  1.0325 -0.8404
   17MOL   C258 5090   6.251   3.266   0.619  0.3359  0.5601 -0.1266
   17MOL   C259 5091   6.202   3.159   0.520  0.1711 -0.7199 -0.2533
   17MOL   O260 5092   6.276   3.098   0.451  0.3229 -0.0256  0.2870
   17MOL   O261 5093   6.067   3.150   0.529  0.0851  0.4012  0.1545
   17MOL   C262 5094   5.991   3.098   0.419  0.1624  0.6283  0.5101
   17MOL   C263 5095   5.852   3.058   0.478 -0.2931  0.0385 -0.4176
   17MOL   H264 5096   6.452   3.271   0.542 -0.6773 -0.0483 -1.3214
   17MOL   H265 5097   6.431   3.171   0.686 -1.9914  0.9487  0.2660
   17MOL   H266 5098   6.216   3.222   0.712  1.2014  0.3705  0.1100
   17MOL   H267 5099   5.975   3.164   0.334  1.2896  0.3345  0.0485
   17MOL   H268 5100   6.039   3.017   0.364 -0.4895  0.1713  0.6076
   17MOL   H269 5101   5.780   3.016   0.408 -0.5157  0.7591 -0.6317
   17MOL   H270 5102   5.789   3.138   0.517 -0.1617 -0.4536  0.8195
   17MOL   H271 5103   5.869   2.979   0.550  1.0533 -1.4759 -2.3364
   17MOL   C272 5104   6.166   3.397   0.602  0.6185  0.0531  0.4216
   17MOL   C273 5105   6.165   3.472   0.467  0.5945 -0.7894 -0.7111
   17MOL   C274 5106   6.286   3.537   0.413  0.1258 -0.3333 -0.1661
   17MOL   O275 5107   6.303   3.533   0.290  0.0498 -0.2032 -0.4703
   17MOL   O276 5108   6.363   3.601   0.505  0.6053  0.0898  0.1717
   17MOL   C277 5109   6.482   3.660   0.477  0.0697 -0.8920  0.2202
   17MOL   C278 5110   6.526   3.736   0.602  0.2994  0.4250  0.4213
   17MOL   H279 5111   6.061   3.379   0.626  0.6311  1.3041  1.4803
   17MOL   H280 5112   6.200   3.468   0.677 -1.8818  0.0198  1.6437
   17MOL   H281 5113   6.138   3.399   0.391  1.8464 -1.4517 -0.5268
   17MOL   H282 5114   6.560   3.592   0.442 -0.4639 -0.7681 -1.2393
   17MOL   H283 5115   6.469   3.734   0.397 -2.0827 -0.2466  1.1359
   17MOL   H284 5116   6.449   3.794   0.652 -0.0119  1.2255 -0.9576
   17MOL   H285 5117   6.602   3.813   0.588  0.2214  0.3655 -0.3778
   17MOL   H286 5118   6.569   3.667   0.675  0.1795 -0.2704 -0.1507
   17MOL   C287 5119   6.052   3.580   0.460 -0.2721  0.5370 -0.1733
   17MOL   C288 5120   5.906   3.540   0.430  0.0750 -0.0463 -0.2511
   17MOL   C289 5121   5.877   3.459   0.302  0.6117  0.0398 -0.7270
   17MOL   O290 5122   5.794   3.368   0.305  0.7330 -0.5732 -0.1818
   17MOL   O291 5123   5.947   3.492   0.195 -0.4526  0.1352  0.2335
   17MOL   C292 5124   5.971   3.410   0.080  0.3432 -0.1852 -0.7658
   17MOL   C293 5125   6.095   3.325   0.093  0.3623  0.4357  0.7386
   17MOL   H294 5126   6.050   3.636   0.553 -1.3106  0.1776  0.0317
   17MOL   H295 5127   6.073   3.660   0.389 -2.1985  2.2942  1.1724
   17MOL   H296 5128   5.869   3.484   0.516  1.0037  1.6084  1.2765
   17MOL   H297 5129   5.883   3.346   0.072 -1.0540  1.4156  1.1940
   17MOL   H298 5130   5.969   3.489   0.006 -1.0311  1.3326  0.8275
   17MOL   H299 5131   6.111   3.263   0.005 -0.8466  0.2392  0.6565
   17MOL   H300 5132   6.094   3.273   0.189 -0.9911  0.0938  0.5457
   17MOL   H301 5133   6.179   3.396   0.092 -1.1279  2.2472  1.0504
   17MOL   H302 5134   5.839   3.626   0.439  0.1140 -0.0334 -0.0800
   18MOL     C1 5135   2.919   5.897   1.519  0.2305 -0.7448  0.1854
   18MOL     C2 5136   3.067   5.860   1.508  0.6031 -0.8677  0.4299
   18MOL     C3 5137   3.099   5.792   1.374 -1.3771  0.0610 -0.4431
   18MOL     O4 5138   3.143   5.677   1.363  0.3161  0.2217 -0.7224
   18MOL     O5 5139   3.086   5.882   1.276 -0.1330  0.2004 -0.6886
   18MOL     C6 5140   3.131   5.850   1.148 -0.2180  0.7091 -0.3695
   18MOL     C7 5141   3.068   5.946   1.045 -0.0927  0.7401  0.2094
   18MOL     H8 5142   2.893   5.960   1.604  0.0764  0.7585 -0.9354
   18MOL     H9 5143   2.860   5.806   1.525 -0.8296 -0.0777  0.0780
   18MOL    H10 5144   3.130   5.948   1.514  1.2435 -1.0667 -2.5404
   18MOL    H11 5145   3.239   5.846   1.152 -0.2182  0.7177 -0.3509
   18MOL    H12 5146   3.090   5.753   1.120  2.3122  0.2488 -2.6216
   18MOL    H13 5147   3.107   5.922   0.946  0.3187 -1.7692  0.9502
   18MOL    H14 5148   3.100   6.049   1.064  2.4501  0.0813 -0.3267
   18MOL    H15 5149   2.960   5.931   1.037 -0.1424  0.7793  0.7999
   18MOL    H16 5150   2.892   5.946   1.425  1.8056 -0.8824 -0.3559
   18MOL    C17 5151   3.096   5.767   1.629 -0.6014 -0.4773 -0.1273
   18MOL    C18 5152   3.095   5.825   1.779 -0.1106 -0.6510  0.4148
   18MOL    C19 5153   3.167   5.966   1.788  0.6180  0.6967 -0.5652
   18MOL    O20 5154   3.106   6.069   1.816  0.2723 -0.5076 -0.1880
   18MOL    O21 5155   3.298   5.958   1.766 -0.1770  0.0154  0.7414
   18MOL    C22 5156   3.380   6.055   1.820  0.4991  0.5543 -0.7390
   18MOL    C23 5157   3.450   6.024   1.946  0.2248  0.1190 -0.8145
   18MOL    H24 5158   3.022   5.687   1.627 -1.2050 -0.0290  2.8436
   18MOL    H25 5159   3.190   5.714   1.617 -0.8594 -0.8058 -0.7160
   18MOL    H26 5160   2.988   5.835   1.799 -0.3680  0.0921 -1.2667
   18MOL    H27 5161   3.459   6.079   1.749  0.3178 -0.4191 -1.2815
   18MOL    H28 5162   3.324   6.149   1.829  1.0367  0.6281  2.3523
   18MOL    H29 5163   3.513   5.935   1.937  0.5283 -0.0378  2.2326
   18MOL    H30 5164   3.377   6.002   2.025  1.4047 -1.7698 -0.2152
   18MOL    H31 5165   3.518   6.102   1.979 -0.5620  0.5021 -0.0807
   18MOL    C32 5166   3.152   5.728   1.880 -0.3632 -0.5511  0.2671
   18MOL    C33 5167   3.106   5.756   2.018  0.3270  0.5129 -0.4495
   18MOL    C34 5168   3.212   5.726   2.125  0.0232 -0.5681  0.4629
   18MOL    O35 5169   3.264   5.816   2.189  0.1749  0.4359 -0.0305
   18MOL    O36 5170   3.231   5.597   2.156 -0.4516 -0.4001 -0.0659
   18MOL    C37 5171   3.330   5.562   2.254  0.1730  0.1326  0.4183
   18MOL    C38 5172   3.256   5.527   2.384  0.2330  0.0533  0.7111
   18MOL    H39 5173   3.137   5.626   1.846  0.3577 -1.4032  2.4549
   18MOL    H40 5174   3.260   5.737   1.882 -0.2503 -1.9035  0.3482
   18MOL    H41 5175   3.102   5.863   2.034 -0.8148  0.4337 -0.1489
   18MOL    H42 5176   3.386   5.476   2.217  0.3164  0.3907  0.0221
   18MOL    H43 5177   3.408   5.639   2.253  1.1578 -0.8546  0.0726
   18MOL    H44 5178   3.328   5.488   2.457 -1.2844  0.5387  2.5154
   18MOL    H45 5179   3.177   5.452   2.377  0.6670 -0.2802 -0.9202
   18MOL    H46 5180   3.206   5.612   2.429  0.7489  0.2025  1.0005
   18MOL    C47 5181   2.973   5.682   2.055  0.3941  0.4262 -0.2632
   18MOL    C48 5182   2.921   5.719   2.202 -0.3743  0.4005  0.8288
   18MOL    C49 5183   2.857   5.594   2.257 -0.2049  0.0021  0.2384
   18MOL    O50 5184   2.739   5.592   2.294 -0.5376  0.1648  1.2613
   18MOL    O51 5185   2.940   5.475   2.260 -0.3735  0.3237 -0.3213
   18MOL    C52 5186   2.891   5.351   2.299 -0.5311 -0.3679  0.5189
   18MOL    C53 5187   2.923   5.266   2.170 -0.3720  0.0302  0.0999
   18MOL    H54 5188   2.890   5.710   1.991 -1.1089 -0.4625  1.2630
   18MOL    H55 5189   2.996   5.577   2.033  2.5597  0.8185 -0.0344
   18MOL    H56 5190   3.005   5.740   2.268  0.3581 -0.8210  0.3110
   18MOL    H57 5191   2.950   5.304   2.378  1.9830 -0.0000 -1.0928
   18MOL    H58 5192   2.785   5.336   2.320 -0.8551  1.3140  0.1324
   18MOL    H59 5193   3.029   5.268   2.145 -0.0335  0.1223  1.5062
   18MOL    H60 5194   2.857   5.295   2.088  1.0429 -0.5620 -1.2663
   18MOL    H61 5195   2.905   5.159   2.181 -1.6821  0.2367  0.0987
   18MOL    C62 5196   2.824   5.837   2.208 -0.6712 -0.3903 -0.4364
   18MOL    C63 5197   2.877   5.976   2.148 -0.7549  0.7974 -0.3186
   18MOL    C64 5198   3.003   6.028   2.221 -0.3724  0.1839 -0.3116
   18MOL    O65 5199   3.030   5.989   2.335  0.0196 -0.1932 -0.4018
   18MOL    O66 5200   3.078   6.118   2.145  0.2699 -0.0445  0.6201
   18MOL    C67 5201   3.206   6.170   2.193  0.7485 -0.4952 -0.5962
   18MOL    C68 5202   3.188   6.285   2.296  0.2538 -0.1696 -0.6280
   18MOL    H69 5203   2.747   5.804   2.137 -1.3930  1.9369 -0.7914
   18MOL    H70 5204   2.781   5.846   2.307  1.1075  0.2161  0.2982
   18MOL    H71 5205   2.899   5.957   2.043  0.0343 -1.6682  0.2567
   18MOL    H72 5206   3.272   6.090   2.226  2.2798  0.9356 -0.0757
   18MOL    H73 5207   3.262   6.221   2.115 -0.0025  2.5985  0.7841
   18MOL    H74 5208   3.287   6.312   2.335 -0.3966  1.6286 -0.1589
   18MOL    H75 5209   3.130   6.250   2.381  0.7796  0.9283  0.2038
   18MOL    H76 5210   3.136   6.363   2.241 -1.5081 -0.9710 -0.1198
   18MOL    C77 5211   2.763   6.085   2.153 -0.0843  1.2590 -0.0459
   18MOL    C78 5212   2.658   6.070   2.044  0.0169 -0.5919  0.1902
   18MOL    C79 5213   2.711   6.104   1.905 -0.1216 -0.7616  0.3321
   18MOL    O80 5214   2.709   6.024   1.817  0.5622  0.6784 -0.4514
   18MOL    O81 5215   2.774   6.223   1.891  0.0618  0.1707  0.5672
   18MOL    C82 5216   2.828   6.260   1.764  0.5297  0.1726 -0.5629
   18MOL    C83 5217   2.724   6.352   1.696  0.7831  0.6305 -0.6540
   18MOL    H84 5218   2.715   6.077   2.251  0.2470  1.3650  0.1251
   18MOL    H85 5219   2.809   6.183   2.163  2.2103  0.2294 -0.1909
   18MOL    H86 5220   2.630   5.966   2.058  0.3554 -0.7315 -0.1513
   18MOL    H87 5221   2.920   6.318   1.771  0.4057  0.1359  1.7169
   18MOL    H88 5222   2.838   6.171   1.702 -0.3963 -0.1697 -0.2239
   18MOL    H89 5223   2.629   6.299   1.699  0.4721  1.1627 -1.0503
   18MOL    H90 5224   2.749   6.367   1.591  2.1753 -1.0989 -0.5989
   18MOL    H91 5225   2.716   6.450   1.743  1.3135  0.2765  0.2072
   18MOL    C92 5226   2.525   6.145   2.077 -0.7142  0.3765 -0.2178
   18MOL    C93 5227   2.403   6.109   1.984  0.5356 -0.0286 -0.3538
   18MOL    C94 5228   2.325   6.235   1.945  0.0860 -0.6521  0.9508
   18MOL    O95 5229   2.344   6.289   1.837 -0.4767 -0.2690 -0.1949
   18MOL    O96 5230   2.265   6.298   2.051  0.1327 -0.1598  0.1731
   18MOL    C97 5231   2.207   6.428   2.040  0.7579  0.7635  0.4806
   18MOL    C98 5232   2.076   6.431   2.107 -0.0421 -0.0160 -0.8479
   18MOL    H99 5233   2.495   6.117   2.178 -0.5185  2.0107  0.3057
   18MOL   H100 5234   2.539   6.253   2.087  0.1168  0.1840  0.8527
   18MOL   H101 5235   2.441   6.074   1.888  2.8204  2.8285 -0.5690
   18MOL   H102 5236   2.275   6.497   2.089 -0.0845  0.9252  1.4375
   18MOL   H103 5237   2.198   6.460   1.936  3.6744 -0.7961 -0.3086
   18MOL   H104 5238   2.080   6.397   2.211  0.2174 -0.1736 -0.9087
   18MOL   H105 5239   2.010   6.362   2.054 -0.6669 -1.3470  1.5648
   18MOL   H106 5240   2.042   6.533   2.123 -0.5618 -0.6380  2.4898
   18MOL   C107 5241   2.311   6.005   2.048 -0.1895 -0.0034  0.8334
   18MOL   C108 5242   2.369   5.865   2.101 -0.1039  0.1960 -0.8271
   18MOL   C109 5243   2.406   5.783   1.979  0.3433 -0.0194 -0.4737
   18MOL   O110 5244   2.519   5.741   1.958  0.4273 -0.5866 -0.9300
   18MOL   O111 5245   2.306   5.758   1.898 -0.4141 -0.3358 -0.3599
   18MOL   C112 5246   2.319   5.671   1.785 -0.5216 -0.4533  0.3969
   18MOL   C113 5247   2.232   5.546   1.822  0.8632 -0.4295  0.1448
   18MOL   H114 5248   2.255   6.052   2.128 -1.3989 -0.3509  0.2090
   18MOL   H115 5249   2.238   5.977   1.971 -0.6218 -0.8113  1.5371
   18MOL   H116 5250   2.466   5.879   2.150 -0.2445  0.4955 -0.6325
   18MOL   H117 5251   2.276   5.725   1.700 -0.2363  2.3762  1.9804
   18MOL   H118 5252   2.424   5.646   1.771  0.0777  0.2353  3.2699
   18MOL   H119 5253   2.286   5.462   1.864  2.3678  2.0108  3.2649
   18MOL   H120 5254   2.204   5.502   1.726 -0.3548 -0.4842  0.5258
   18MOL   H121 5255   2.132   5.567   1.859  1.1935 -1.9696  1.9772
   18MOL   C122 5256   2.284   5.790   2.211 -0.8279 -0.6508  0.4972
   18MOL   C123 5257   2.147   5.732   2.173 -0.4017  0.2575  0.7778
   18MOL   C124 5258   2.036   5.831   2.133 -0.0071  0.8176 -0.8028
   18MOL   O125 5259   1.964   5.805   2.041 -0.6567 -0.3294  0.1264
   18MOL   O126 5260   2.014   5.935   2.217 -0.3791  0.6108 -0.0233
   18MOL   C127 5261   1.930   6.042   2.186  0.5272 -0.5097 -0.1713
   18MOL   C128 5262   1.967   6.162   2.261  0.1578 -0.5676  0.1466
   18MOL   H129 5263   2.343   5.707   2.250  0.7191 -0.4376 -1.2973
   18MOL   H130 5264   2.267   5.853   2.299  1.2161 -0.0689  0.4982
   18MOL   H131 5265   2.173   5.664   2.091  0.8087  0.2038  1.1874
   18MOL   H132 5266   1.929   6.060   2.079  1.2856  2.0590  0.2211
   18MOL   H133 5267   1.831   6.007   2.216  0.2421 -0.5604 -1.1657
   18MOL   H134 5268   1.963   6.134   2.366  0.1370  2.4922  1.0341
   18MOL   H135 5269   1.895   6.244   2.253  0.9603  0.1747  0.5000
   18MOL   H136 5270   2.069   6.192   2.238 -0.4791  0.4365 -1.5215
   18MOL   C137 5271   2.094   5.634   2.286  0.3260  0.0873 -0.5546
   18MOL   C138 5272   2.104   5.488   2.262  0.1819 -0.6021  0.6160
   18MOL   C139 5273   2.247   5.438   2.269 -0.5703  0.2148  0.2005
   18MOL   O140 5274   2.292   5.403   2.372 -0.4121  0.0243  0.1025
   18MOL   O141 5275   2.312   5.431   2.148 -0.2878 -0.0182  0.3913
   18MOL   C142 5276   2.442   5.365   2.141  0.2704  0.3281 -0.3222
   18MOL   C143 5277   2.540   5.441   2.059 -0.7234  0.2487  0.3208
   18MOL   H144 5278   2.158   5.657   2.372 -0.5422  0.7607 -0.0778
   18MOL   H145 5279   1.994   5.655   2.325 -0.6023 -0.5826 -2.5454
   18MOL   H146 5280   2.064   5.435   2.348 -0.1650 -1.3545 -0.0028
   18MOL   H147 5281   2.476   5.336   2.240 -0.5651  1.3067  0.2596
   18MOL   H148 5282   2.416   5.274   2.087 -2.0097  1.3140 -0.9162
   18MOL   H149 5283   2.507   5.467   1.959  0.1960  3.2971  0.7533
   18MOL   H150 5284   2.638   5.394   2.045 -1.2358 -0.0827 -2.3363
   18MOL   H151 5285   2.546   5.538   2.107 -0.4492 -0.3375  1.4966
   18MOL   C152 5286   2.020   5.433   2.140  0.2985 -0.2746 -0.9416
   18MOL   C153 5287   1.986   5.273   2.131 -0.2479 -0.2472  0.1283
   18MOL   C154 5288   2.100   5.193   2.071  0.0666 -0.0796 -0.0451
   18MOL   O155 5289   2.157   5.225   1.967 -0.3370  0.2770 -0.2265
   18MOL   O156 5290   2.135   5.095   2.158  0.1057  0.1997  0.1526
   18MOL   C157 5291   2.247   5.013   2.123  0.1935 -0.5196  0.7021
   18MOL   C158 5292   2.259   4.913   2.223 -0.0336  0.2542 -0.1296
   18MOL   H159 5293   1.933   5.495   2.121  1.7748  2.0080 -0.4894
   18MOL   H160 5294   2.075   5.463   2.051  0.3502 -0.0100 -0.8202
   18MOL   H161 5295   1.966   5.242   2.233 -2.6851 -3.5343 -1.2858
   18MOL   H162 5296   2.240   4.976   2.020  1.3645 -0.0739  0.4515
   18MOL   H163 5297   2.345   5.062   2.128  0.5792 -1.0358 -1.2636
   18MOL   H164 5298   2.164   4.864   2.243  1.1493 -2.0448  0.0350
   18MOL   H165 5299   2.299   4.953   2.316 -2.5462  1.1686  0.5730
   18MOL   H166 5300   2.307   4.822   2.186  0.1670  0.9009 -1.5085
   18MOL   C167 5301   1.854   5.233   2.062  0.9996 -0.5096  0.4240
   18MOL   C168 5302   1.801   5.087   2.113 -0.2333 -0.1929 -0.1469
   18MOL   C169 5303   1.864   4.966   2.037 -0.1181  0.2161 -1.0807
   18MOL   O170 5304   1.924   4.874   2.094 -0.0216 -0.2443  0.0882
   18MOL   O171 5305   1.873   4.980   1.899  0.3027 -0.5314 -0.1322
   18MOL   C172 5306   1.972   4.913   1.825  0.1972  0.1929 -0.3096
   18MOL   C173 5307   1.936   4.935   1.673 -0.0236  0.5670 -0.0894
   18MOL   H174 5308   1.776   5.307   2.085  1.1934 -0.2183  0.1537
   18MOL   H175 5309   1.862   5.222   1.953 -1.4604 -1.1468  0.2634
   18MOL   H176 5310   1.837   5.069   2.215 -0.6534 -1.4819 -0.2186
   18MOL   H177 5311   2.069   4.960   1.836 -0.9128  2.4351  0.1728
   18MOL   H178 5312   1.972   4.807   1.852 -5.9275 -0.0028 -0.3538
   18MOL   H179 5313   1.831   4.910   1.663  0.5146 -0.9863 -1.9649
   18MOL   H180 5314   1.988   4.866   1.607  0.5001  1.6393 -0.8180
   18MOL   H181 5315   1.945   5.041   1.648 -1.1460  0.2770 -1.7699
   18MOL   C182 5316   1.652   5.077   2.116  0.2727 -0.0715  0.1482
   18MOL   C183 5317   1.597   5.109   2.258  0.5224 -0.1175 -0.4329
   18MOL   C184 5318   1.655   5.018   2.366 -0.1680  0.2636  0.4517
   18MOL   O185 5319   1.691   5.062   2.472 -1.0212 -0.7546  0.2628
   18MOL   O186 5320   1.641   4.887   2.338  0.1232  0.3745 -0.6484
   18MOL   C187 5321   1.702   4.789   2.428 -0.3518  0.0893  0.4139
   18MOL   C188 5322   1.593   4.727   2.512 -0.3018  0.3424 -0.7964
   18MOL   H189 5323   1.615   5.153   2.047 -0.5100  0.9274  1.6404
   18MOL   H190 5324   1.605   4.985   2.080  3.3350 -1.0319 -1.5763
   18MOL   H191 5325   1.631   5.208   2.291 -0.4537 -1.0050  3.5239
   18MOL   H192 5326   1.742   4.724   2.351 -1.1934  1.0032 -0.8001
   18MOL   H193 5327   1.778   4.842   2.485  0.8756 -0.2927 -0.8528
   18MOL   H194 5328   1.645   4.661   2.581  0.5726 -0.4789 -2.2423
   18MOL   H195 5329   1.525   4.667   2.451 -1.1706  0.4458  0.0483
   18MOL   H196 5330   1.543   4.813   2.557 -0.2142  0.5975 -1.1889
   18MOL   C197 5331   1.443   5.108   2.258 -0.0664 -0.4834  0.1818
   18MOL   C198 5332   1.374   5.167   2.391  0.2319 -0.2009  0.3770
   18MOL   C199 5333   1.339   5.058   2.500 -0.1621 -0.7720  0.5025
   18MOL   O200 5334   1.386   5.069   2.610 -0.0105 -0.2807  0.0678
   18MOL   O201 5335   1.260   4.957   2.460  0.5695  0.4659 -0.3893
   18MOL   C202 5336   1.215   4.859   2.558 -0.0160 -0.4169  0.4121
   18MOL   C203 5337   1.114   4.909   2.667 -0.1664 -0.0495  0.3146
   18MOL   H204 5338   1.415   5.171   2.174 -0.4355 -0.9628 -0.0598
   18MOL   H205 5339   1.400   5.011   2.234  0.5405 -0.8215  0.4562
   18MOL   H206 5340   1.443   5.237   2.437 -0.0170  0.1523  0.2241
   18MOL   H207 5341   1.161   4.784   2.501 -0.8780 -1.1963  2.2148
   18MOL   H208 5342   1.300   4.807   2.601  0.5202  1.2678  1.4501
   18MOL   H209 5343   1.013   4.933   2.634 -0.5028  0.6159  1.7505
   18MOL   H210 5344   1.132   5.007   2.713 -2.2806  1.3654 -1.7502
   18MOL   H211 5345   1.102   4.840   2.750 -1.3441 -0.4999 -0.2289
   18MOL   C212 5346   1.251   5.253   2.349  0.2238  0.6176 -0.0258
   18MOL   C213 5347   1.209   5.378   2.426 -0.5568  0.1518 -0.1214
   18MOL   C214 5348   1.221   5.372   2.584 -0.1326  0.3258  0.2897
   18MOL   O215 5349   1.130   5.336   2.653  0.2514  0.1837 -0.0109
   18MOL   O216 5350   1.340   5.402   2.628 -0.3373 -0.3644 -0.0630
   18MOL   C217 5351   1.373   5.397   2.764  0.3296 -0.7042  0.5066
   18MOL   C218 5352   1.514   5.449   2.781  0.4967  0.2234 -0.1343
   18MOL   H219 5353   1.267   5.287   2.246 -1.1400  0.9391 -0.1420
   18MOL   H220 5354   1.169   5.182   2.344  1.8776 -1.3021 -0.2807
   18MOL   H221 5355   1.283   5.456   2.409 -2.6908  2.7115  1.8861
   18MOL   H222 5356   1.299   5.452   2.822 -0.0506 -0.2890 -0.3577
   18MOL   H223 5357   1.377   5.292   2.792  1.2640 -0.5895  0.8281
   18MOL   H224 5358   1.545   5.459   2.885  1.4392 -2.9801 -0.0523
   18MOL   H225 5359   1.530   5.539   2.722 -1.5906  0.6638 -0.0508
   18MOL   H226 5360   1.587   5.382   2.735 -1.1405 -0.7237 -1.4442
   18MOL   C227 5361   1.073   5.429   2.381 -0.3216 -0.2628 -1.1013
   18MOL   C228 5362   1.076   5.506   2.247  0.0458 -0.0246 -0.1752
   18MOL   C229 5363   1.149   5.644   2.271 -0.1201  0.2062  1.1283
   18MOL   O230 5364   1.177   5.686   2.384  0.1564  0.3826 -0.1046
   18MOL   O231 5365   1.191   5.696   2.155 -0.4851  0.9103 -0.5041
   18MOL   C232 5366   1.261   5.822   2.150  0.1609 -0.3454 -1.2617
   18MOL   C233 5367   1.269   5.867   2.004 -0.5431 -0.4236 -0.2896
   18MOL   H234 5368   1.003   5.346   2.391 -1.4648  0.7322 -0.7495
   18MOL   H235 5369   1.039   5.497   2.459  0.0234 -1.9015  0.5230
   18MOL   H236 5370   1.151   5.454   2.187  0.6534  0.9536 -0.2751
   18MOL   H237 5371   1.204   5.896   2.205  1.1945 -0.4278 -0.0592
   18MOL   H238 5372   1.357   5.815   2.200 -0.9067 -1.3712  0.7217
   18MOL   H239 5373   1.311   5.785   1.945  0.4523 -2.3019  2.9256
   18MOL   H240 5374   1.340   5.949   1.991  0.6306 -1.5468 -1.1639
   18MOL   H241 5375   1.172   5.888   1.959  0.4625  2.7313 -1.1633
   18MOL   C242 5376   0.947   5.501   2.170 -0.0677 -0.3105  0.0162
   18MOL   C243 5377   0.948   5.551   2.025 -0.4262 -0.6666 -0.2715
   18MOL   C244 5378   0.818   5.627   1.992 -0.0745 -0.1420  0.7638
   18MOL   O245 5379   0.803   5.745   1.995 -0.8210 -0.1182 -0.1183
   18MOL   O246 5380   0.722   5.543   1.955 -0.8023  0.5277  0.1777
   18MOL   C247 5381   0.586   5.585   1.941 -0.1045 -0.2186  0.0889
   18MOL   C248 5382   0.504   5.521   2.050  0.3331 -0.4842 -0.0791
   18MOL   H249 5383   0.895   5.405   2.170  1.6275 -1.2670 -0.3165
   18MOL   H250 5384   0.886   5.567   2.231 -2.4492 -1.8695 -0.6366
   18MOL   H251 5385   1.008   5.639   2.003 -1.1134  0.3846  1.8845
   18MOL   H252 5386   0.577   5.692   1.923 -0.1122 -0.5326 -1.8777
   18MOL   H253 5387   0.554   5.531   1.852  1.4568 -0.9540 -0.0582
   18MOL   H254 5388   0.399   5.550   2.042  0.7279  0.7937 -0.7459
   18MOL   H255 5389   0.544   5.540   2.149  1.8858 -1.6725 -0.4593
   18MOL   H256 5390   0.507   5.413   2.036  3.5984 -0.8128  2.5564
   18MOL   C257 5391   0.976   5.432   1.929  0.1347  0.9212 -0.0833
   18MOL   C258 5392   1.100   5.339   1.950  0.1840  0.3015 -0.2266
   18MOL   C259 5393   1.232   5.405   1.927  0.3802 -0.0549  0.3885
   18MOL   O260 5394   1.328   5.366   1.999  0.1537  0.1111  0.3339
   18MOL   O261 5395   1.229   5.489   1.830 -0.4462  0.6944 -0.3882
   18MOL   C262 5396   1.353   5.555   1.793  0.2256  0.2669  0.0195
   18MOL   C263 5397   1.421   5.474   1.680 -0.4529 -0.9574 -0.1001
   18MOL   H264 5398   0.895   5.360   1.940  1.3245 -0.5533 -0.6399
   18MOL   H265 5399   0.973   5.468   1.826  1.4888 -1.3237 -0.9658
   18MOL   H266 5400   1.103   5.303   2.052  0.3309  1.4528  0.1786
   18MOL   H267 5401   1.340   5.661   1.774 -1.0626  0.2929  0.9211
   18MOL   H268 5402   1.422   5.552   1.878  1.8181  2.3490 -1.1802
   18MOL   H269 5403   1.446   5.375   1.719  1.6706  0.2062  1.6207
   18MOL   H270 5404   1.515   5.523   1.652 -0.1131 -1.7181 -0.3082
   18MOL   H271 5405   1.350   5.464   1.599  0.0907  3.4585 -1.2328
   18MOL   C272 5406   1.088   5.207   1.872 -0.2881  0.2416  0.0995
   18MOL   C273 5407   1.139   5.086   1.951 -0.1446  0.2552 -0.2197
   18MOL   C274 5408   1.229   4.986   1.874  0.2611  0.5531 -0.5382
   18MOL   O275 5409   1.205   4.866   1.860  0.0474 -0.0012  0.0530
   18MOL   O276 5410   1.342   5.040   1.839 -0.6795  0.2738  0.3708
   18MOL   C277 5411   1.451   4.954   1.803 -0.2993  0.6105 -0.8216
   18MOL   C278 5412   1.553   5.043   1.732 -0.7730  0.0894  0.2431
   18MOL   H279 5413   0.987   5.204   1.833 -0.7036 -0.0583  1.1853
   18MOL   H280 5414   1.144   5.213   1.779 -1.1358  1.3125 -0.3430
   18MOL   H281 5415   1.211   5.134   2.018  2.5265 -1.2368 -1.9162
   18MOL   H282 5416   1.485   4.906   1.894 -0.0784  0.9982 -0.7018
   18MOL   H283 5417   1.421   4.873   1.736 -1.6711 -0.9932  1.6820
   18MOL   H284 5418   1.655   5.005   1.741 -1.2967 -1.4346 -0.0020
   18MOL   H285 5419   1.541   5.147   1.762  0.7834  0.5748 -0.7523
   18MOL   H286 5420   1.525   5.061   1.628  1.7413  0.2182 -0.4453
   18MOL   C287 5421   1.037   5.006   2.038 -0.0866 -0.6340 -0.7182
   18MOL   C288 5422   1.106   4.931   2.155  0.3052  0.1140  0.3629
   18MOL   C289 5423   1.010   4.837   2.230  0.1574  0.4215  0.2717
   18MOL   O290 5424   1.025   4.717   2.224 -0.6715  0.7797  0.5830
   18MOL   O291 5425   0.911   4.895   2.298  0.4480 -0.0620  0.5713
   18MOL   C292 5426   0.819   4.808   2.378  0.4032  0.3351 -0.2358
   18MOL   C293 5427   0.697   4.767   2.298  0.3171  0.1345  0.0566
   18MOL   H294 5428   0.972   5.080   2.084  1.2866  0.3205 -0.2663
   18MOL   H295 5429   0.971   4.950   1.972 -0.5332 -0.9564 -0.0112
   18MOL   H296 5430   1.186   4.865   2.121  1.0437  0.1214  2.0067
   18MOL   H297 5431   0.885   4.726   2.406  2.1463  1.6119 -0.5112
   18MOL   H298 5432   0.780   4.861   2.465  3.2260 -1.1241  1.9914
   18MOL   H299 5433   0.643   4.849   2.251 -1.0015 -0.6960  0.1050
   18MOL   H300 5434   0.629   4.711   2.363  0.7525 -1.5430 -0.8956
   18MOL   H301 5435   0.726   4.697   2.220  0.6267  0.3253  0.0022
   18MOL   H302 5436   1.156   5.006   2.218  0.9653  0.7773 -0.9280
   19MOL     C1 5437   7.722   1.169   1.108  0.4500  0.0836  0.3505
   19MOL     C2 5438   7.827   1.166   1.000  0.3922  0.3324 -0.2800
   19MOL     C3 5439   0.023   1.275   1.035  0.1064  0.5022  0.4439
   19MOL     O4 5440   0.143   1.243   1.058  0.2723 -0.7414  0.0573
   19MOL     O5 5441   7.879   1.395   1.024 -0.0096 -0.1521  0.1516
   19MOL     C6 5442   0.055   1.509   1.020  0.3164 -0.2574 -0.4226
   19MOL     C7 5443   7.877   1.627   0.977  0.1757 -0.6617  0.8154
   19MOL     H8 5444   7.765   1.146   1.205  1.7362  0.7277 -0.0455
   19MOL     H9 5445   7.649   1.090   1.089 -0.2170  0.8256 -0.2641
   19MOL    H10 5446   7.879   1.071   0.982 -0.7931 -0.5725  1.0017
   19MOL    H11 5447   0.094   1.534   1.119  0.0305 -2.3362  0.2447
   19MOL    H12 5448   0.142   1.502   0.954  0.8143  0.7860  0.1138
   19MOL    H13 5449   7.852   1.604   0.874 -1.1472  1.7166  0.5763
   19MOL    H14 5450   0.025   1.721   0.982 -2.3066  1.0137 -1.5061
   19MOL    H15 5451   7.790   1.629   1.042 -0.4585 -0.6826 -0.0311
   19MOL    H16 5452   7.669   1.264   1.119 -0.5603 -0.1481 -2.0552
   19MOL    C17 5453   7.757   1.197   0.864  0.0799  0.0116  0.7111
   19MOL    C18 5454   7.840   1.235   0.739 -0.0106 -0.2887  0.1246
   19MOL    C19 5455   7.765   1.323   0.641  0.3582  0.3143 -0.5553
   19MOL    O20 5456   7.701   1.277   0.549 -0.3391  0.5810  0.2432
   19MOL    O21 5457   7.773   1.454   0.673  0.6160  0.3539 -0.4587
   19MOL    C22 5458   7.708   1.553   0.592 -0.7802 -0.6791  0.3452
   19MOL    C23 5459   7.569   1.567   0.654  0.6907 -0.4516  0.1740
   19MOL    H24 5460   7.680   1.122   0.844 -0.7935  0.8282  0.9535
   19MOL    H25 5461   7.704   1.292   0.874 -1.0056 -0.6382  1.2402
   19MOL    H26 5462   0.004   1.301   0.785  0.1344  0.0216 -0.5405
   19MOL    H27 5463   7.757   1.650   0.588 -0.8778 -0.6119  0.7303
   19MOL    H28 5464   7.698   1.525   0.487 -1.6470 -0.2929  0.3164
   19MOL    H29 5465   7.504   1.639   0.604  0.4804 -0.3097  0.6465
   19MOL    H30 5466   7.578   1.597   0.758 -2.0566 -0.9170  0.5635
   19MOL    H31 5467   7.510   1.476   0.666  0.4352 -0.2855  0.1628
   19MOL    C32 5468   0.005   1.111   0.673 -0.0255 -0.1695 -0.0951
   19MOL    C33 5469   0.144   1.132   0.596  0.6208 -0.3690 -0.2248
   19MOL    C34 5470   0.249   1.184   0.698  0.2362 -0.4414  0.4458
   19MOL    O35 5471   0.244   1.299   0.736  0.1075 -0.1043  0.3295
   19MOL    O36 5472   0.327   1.089   0.739 -0.8298  0.0557  0.0765
   19MOL    C37 5473   0.434   1.122   0.827  0.7859 -0.0096  0.4186
   19MOL    C38 5474   0.552   1.194   0.751  0.5066 -0.0937 -0.0739
   19MOL    H39 5475   0.029   1.039   0.751 -1.1556  1.0796  1.4520
   19MOL    H40 5476   7.840   1.057   0.613 -0.4574  1.3184 -0.9384
   19MOL    H41 5477   0.178   1.034   0.564  0.3816 -0.9547  1.2447
   19MOL    H42 5478   0.391   1.187   0.904  1.7839 -0.0900  1.0587
   19MOL    H43 5479   0.469   1.028   0.869 -1.9000 -1.7498 -1.1129
   19MOL    H44 5480   0.514   1.288   0.710  1.3096 -1.2030 -3.5968
   19MOL    H45 5481   0.608   1.133   0.679  3.6845  0.5407  1.7759
   19MOL    H46 5482   0.622   1.235   0.824  0.3661  0.3710 -0.1985
   19MOL    C47 5483   0.127   1.230   0.479 -0.5522 -0.1192  0.0736
   19MOL    C48 5484   0.227   1.217   0.359 -0.2639  0.5473  0.5236
   19MOL    C49 5485   0.218   1.080   0.283  0.3631  0.4536 -0.1297
   19MOL    O50 5486   0.185   0.970   0.331 -0.3557 -0.2958  0.4943
   19MOL    O51 5487   0.262   1.098   0.160 -0.4728 -0.2176 -0.0433
   19MOL    C52 5488   0.230   1.012   0.058 -0.2286  0.7057  0.4996
   19MOL    C53 5489   0.308   1.056   7.834  0.6474  0.2307 -0.4001
   19MOL    H54 5490   0.025   1.222   0.440 -0.6451  0.5091  0.1810
   19MOL    H55 5491   0.140   1.334   0.508 -2.0599  0.1875 -0.2924
   19MOL    H56 5492   0.188   1.291   0.289 -0.9037  0.7074  1.0395
   19MOL    H57 5493   0.255   0.908   0.078  0.6092  1.1269  1.6667
   19MOL    H58 5494   0.122   1.010   0.040 -0.4093 -1.6398  1.5853
   19MOL    H59 5495   0.397   0.996   7.815  0.8295  0.0067  1.0650
   19MOL    H60 5496   0.337   1.161   7.839 -0.1256  0.3538  2.3622
   19MOL    H61 5497   0.237   1.062   7.752 -1.4937  0.6161  1.4434
   19MOL    C62 5498   0.367   1.263   0.393 -0.2252 -0.1628  0.4170
   19MOL    C63 5499   0.433   1.340   0.285 -0.7896  0.5090 -0.2282
   19MOL    C64 5500   0.587   1.357   0.314  0.1701  0.6849 -0.7790
   19MOL    O65 5501   0.668   1.309   0.233 -0.6448 -0.5751 -1.0439
   19MOL    O66 5502   0.616   1.405   0.426  0.1790 -0.7921  0.6758
   19MOL    C67 5503   0.753   1.401   0.472  0.2379 -0.3423  0.3330
   19MOL    C68 5504   0.774   1.455   0.610  0.1123  0.3599 -0.3004
   19MOL    H69 5505   0.375   1.324   0.483  0.2035  3.7980 -2.1818
   19MOL    H70 5506   0.437   1.180   0.405  0.0873  0.3503  2.1554
   19MOL    H71 5507   0.424   1.274   0.199  0.5509 -0.6407  0.4854
   19MOL    H72 5508   0.793   1.300   0.477 -0.0385 -0.4959 -0.5676
   19MOL    H73 5509   0.812   1.455   0.398 -1.7285 -1.7629 -2.3734
   19MOL    H74 5510   0.711   1.423   0.693  1.2257  2.0546  1.2414
   19MOL    H75 5511   0.769   1.563   0.615  0.5720  0.2756  2.9496
   19MOL    H76 5512   0.871   1.421   0.647  0.0379  0.1991 -0.2517
   19MOL    C77 5513   0.364   1.478   0.260  0.3635  0.2082  0.4049
   19MOL    C78 5514   0.326   1.497   0.108 -0.4249 -0.9380 -0.9519
   19MOL    C79 5515   0.435   1.569   0.033 -0.0326 -0.7218  0.0866
   19MOL    O80 5516   0.447   1.694   0.035 -0.2826 -1.0576  0.0572
   19MOL    O81 5517   0.521   1.476   7.893 -0.0850  0.0903 -0.0026
   19MOL    C82 5518   0.639   1.500   7.816 -0.1334 -0.2538 -0.0523
   19MOL    C83 5519   0.618   1.479   7.669  0.6132  0.3140  0.0066
   19MOL    H84 5520   0.275   1.479   0.323 -1.4220 -1.5039 -1.9937
   19MOL    H85 5521   0.409   1.560   0.316  0.2070 -0.6431  1.7792
   19MOL    H86 5522   0.317   1.399   0.062  0.1535 -1.3421 -0.2147
   19MOL    H87 5523   0.672   1.601   7.843  1.4088 -0.7725  0.0719
   19MOL    H88 5524   0.720   1.443   7.861 -0.9513 -0.2205  1.4954
   19MOL    H89 5525   0.534   1.532   7.626  0.8039 -1.1628 -2.2353
   19MOL    H90 5526   0.607   1.375   7.638 -1.1511  0.1969  0.9482
   19MOL    H91 5527   0.709   1.523   7.628  1.5795  0.2688  2.0144
   19MOL    C92 5528   0.199   1.576   0.092  0.3970  0.1470  0.7078
   19MOL    C93 5529   0.062   1.499   0.083 -0.2011  0.4068 -0.0869
   19MOL    C94 5530   0.037   1.440   7.848  0.3471 -0.1605  0.4563
   19MOL    O95 5531   0.033   1.322   7.832 -0.3188 -0.1133  0.3800
   19MOL    O96 5532   0.022   1.534   7.752  0.2260 -0.1240 -0.3740
   19MOL    C97 5533   0.041   1.498   7.613  0.3471  0.3189  0.5078
   19MOL    C98 5534   0.128   1.590   7.531  0.5415 -0.8740 -0.2296
   19MOL    H99 5535   0.206   1.645   0.176  0.0121  0.7775  0.2253
   19MOL   H100 5536   0.206   1.640   0.005  0.4385  0.7421  1.1500
   19MOL   H101 5537   0.078   1.413   0.148 -1.0327  0.6711  0.4714
   19MOL   H102 5538   0.059   1.392   7.595  1.7894  0.8475 -1.2473
   19MOL   H103 5539   7.849   1.512   7.572  0.3023 -0.5341  0.3124
   19MOL   H104 5540   0.131   1.553   7.429 -0.9842 -1.9400  0.0960
   19MOL   H105 5541   0.231   1.577   7.565  0.0152 -0.6336  1.4848
   19MOL   H106 5542   0.099   1.695   7.523  1.3105 -0.7286 -1.3414
   19MOL   C107 5543   7.860   1.587   0.130 -0.1764  0.1659  0.3670
   19MOL   C108 5544   7.718   1.525   0.124  0.2840  0.2107 -0.2874
   19MOL   C109 5545   7.609   1.631   0.151 -0.6248 -0.5011 -0.2177
   19MOL   O110 5546   7.563   1.695   0.055 -0.0422  0.6362  0.3618
   19MOL   O111 5547   7.587   1.653   0.279 -0.0124  0.4164 -0.0422
   19MOL   C112 5548   7.504   1.757   0.316 -0.4750  0.0422  0.1750
   19MOL   C113 5549   7.574   1.876   0.365  0.3607  0.0821 -1.0173
   19MOL   H114 5550   7.877   1.622   0.232  3.1094 -1.4105  0.4146
   19MOL   H115 5551   7.854   1.667   0.056  0.0898  0.1414  0.3195
   19MOL   H116 5552   7.704   1.499   0.019  0.8384 -3.6445  0.5394
   19MOL   H117 5553   7.429   1.772   0.239  0.1870  0.6621 -0.3435
   19MOL   H118 5554   7.442   1.714   0.395  0.2722  1.6271  1.6503
   19MOL   H119 5555   7.503   1.941   0.416  0.0990 -0.3028 -0.8957
   19MOL   H120 5556   7.607   1.947   0.289  0.3796  2.2470  0.9534
   19MOL   H121 5557   7.657   1.857   0.432  0.8242  3.1435 -0.6441
   19MOL   C122 5558   7.704   1.403   0.219  0.6616 -0.4492 -0.3924
   19MOL   C123 5559   7.651   1.286   0.141  0.0546  0.4731  0.0083
   19MOL   C124 5560   7.496   1.287   0.145  0.3030 -0.7536  0.3230
   19MOL   O125 5561   7.428   1.214   0.226  0.6521 -0.7232 -0.4092
   19MOL   O126 5562   7.450   1.374   0.059  0.4152 -0.1642  0.3568
   19MOL   C127 5563   7.310   1.392   0.056  0.5446 -0.4149  0.3199
   19MOL   C128 5564   7.280   1.540   0.026 -0.7351  0.3739 -0.1207
   19MOL   H129 5565   7.800   1.387   0.268 -0.5072 -0.3984  1.9613
   19MOL   H130 5566   7.643   1.424   0.306  0.7701  0.1160 -0.4485
   19MOL   H131 5567   7.678   1.297   0.036 -2.1252 -1.4422 -0.7909
   19MOL   H132 5568   7.257   1.342   7.883  2.5308 -3.5170  0.8241
   19MOL   H133 5569   7.257   1.369   0.149 -3.1200  1.2963 -1.2437
   19MOL   H134 5570   7.178   1.544   7.897 -0.6523 -0.1951 -0.4097
   19MOL   H135 5571   7.350   1.567   7.855 -0.7623 -2.3308 -1.0991
   19MOL   H136 5572   7.281   1.607   0.112 -0.2611  0.0582  0.1178
   19MOL   C137 5573   7.715   1.148   0.179 -0.0743 -0.7678 -0.9656
   19MOL   C138 5574   7.659   1.027   0.099  0.5122  0.0551  1.0401
   19MOL   C139 5575   7.691   0.892   0.159  0.9487 -0.6518  0.3811
   19MOL   O140 5576   7.604   0.809   0.179 -0.5965  0.4211  0.2086
   19MOL   O141 5577   7.817   0.866   0.174 -0.7229  0.3393  0.0325
   19MOL   C142 5578   7.862   0.739   0.198 -0.7764  0.8484 -0.4015
   19MOL   C143 5579   7.896   0.673   0.058 -0.0213 -0.4078  0.0152
   19MOL   H144 5580   7.824   1.149   0.175 -0.1076 -0.0089 -1.9340
   19MOL   H145 5581   7.694   1.130   0.285  0.3305 -1.9149 -1.0736
   19MOL   H146 5582   7.550   1.031   0.100  0.4748  2.0989 -2.2363
   19MOL   H147 5583   0.040   0.746   0.264  0.3746  0.9892 -1.8750
   19MOL   H148 5584   7.794   0.678   0.256  0.4046  0.1997  0.3114
   19MOL   H149 5585   7.810   0.687   7.900 -0.9921 -0.7660  1.1808
   19MOL   H150 5586   7.892   0.565   0.066  0.0836 -0.4485 -0.4635
   19MOL   H151 5587   0.086   0.705   0.022  0.1077  1.5334  1.9904
   19MOL   C152 5588   7.706   1.026   7.858  0.0358  0.7513 -0.2689
   19MOL   C153 5589   7.619   1.101   7.754 -0.3996 -0.9367 -0.0597
   19MOL   C154 5590   7.480   1.041   7.740  0.2619  0.4921 -0.3713
   19MOL   O155 5591   7.462   0.942   7.672  0.2672 -0.3748  0.2669
   19MOL   O156 5592   7.391   1.090   7.824  0.6078 -0.2118 -0.1714
   19MOL   C157 5593   7.257   1.041   7.811 -0.6762  0.2816 -0.3289
   19MOL   C158 5594   7.186   1.054   0.043 -0.1296 -0.0327 -0.0065
   19MOL   H159 5595   7.805   1.070   7.851  0.7474 -0.7546  0.1043
   19MOL   H160 5596   7.731   0.927   7.820  0.1645  1.2343 -1.4794
   19MOL   H161 5597   7.592   1.198   7.794  0.8019 -0.7305  0.2796
   19MOL   H162 5598   7.201   1.093   7.733 -0.6093  0.6963 -0.0956
   19MOL   H163 5599   7.248   0.935   7.785  1.9404 -0.7956  2.8904
   19MOL   H164 5600   7.185   1.155   0.084 -0.1778 -0.5842  1.3802
   19MOL   H165 5601   7.255   1.000   0.107  2.1056 -0.3649 -2.6374
   19MOL   H166 5602   7.087   1.009   0.037 -0.6520  0.9293  1.1225
   19MOL   C167 5603   7.688   1.107   7.611 -0.3394  0.7201  0.4339
   19MOL   C168 5604   7.601   1.181   7.502 -0.2700  0.7985  0.2313
   19MOL   C169 5605   7.641   1.142   7.361 -0.3753 -0.7528  0.4978
   19MOL   O170 5606   7.554   1.119   7.273 -0.0172 -0.4887 -0.1836
   19MOL   O171 5607   7.772   1.128   7.344 -0.3522  0.5328 -0.7524
   19MOL   C172 5608   7.827   1.097   7.221  0.2503 -0.4950 -0.0603
   19MOL   C173 5609   0.049   1.177   7.205 -0.3711  0.0203  0.1021
   19MOL   H174 5610   7.784   1.158   7.618  1.0125 -1.7945  0.6003
   19MOL   H175 5611   7.722   1.011   7.574 -0.4145  0.4458  1.0782
   19MOL   H176 5612   7.500   1.140   7.509 -1.1418  2.6749 -1.0626
   19MOL   H177 5613   7.855   0.992   7.214 -1.4140 -0.8934 -1.1103
   19MOL   H178 5614   7.756   1.096   7.138  3.3284 -0.4896 -2.7781
   19MOL   H179 5615   0.112   1.166   7.293  0.2154 -0.7585 -0.4105
   19MOL   H180 5616   0.030   1.283   7.189 -0.1328  0.1321  0.5592
   19MOL   H181 5617   0.104   1.134   7.121  1.9789  2.5946  0.2727
   19MOL   C182 5618   7.598   1.335   7.535 -0.1101  0.3736  0.2875
   19MOL   C183 5619   7.477   1.421   7.494 -0.1987  0.9018 -0.2136
   19MOL   C184 5620   7.349   1.380   7.570 -0.3646 -0.2923 -0.1023
   19MOL   O185 5621   7.328   1.264   7.600 -0.0069 -0.1197  0.8277
   19MOL   O186 5622   7.272   1.485   7.588  0.1257  0.2798  0.3319
   19MOL   C187 5623   7.145   1.474   7.645 -0.0188  0.4190 -0.5139
   19MOL   C188 5624   7.050   1.431   7.535 -0.3049  0.6266  0.1038
   19MOL   H189 5625   7.633   1.368   7.632  1.4253  1.9325 -0.7601
   19MOL   H190 5626   7.681   1.388   7.487  0.0993 -0.2104 -0.0087
   19MOL   H191 5627   7.501   1.525   7.521  0.4366  0.3973  1.2273
   19MOL   H192 5628   7.129   1.411   7.731 -0.6841  0.1539 -0.8321
   19MOL   H193 5629   7.108   1.571   7.678 -0.0316 -0.6815  2.8147
   19MOL   H194 5630   7.058   1.326   7.506 -2.1893 -0.2672  2.6525
   19MOL   H195 5631   7.052   1.495   7.447  0.7577  0.9484  0.3623
   19MOL   H196 5632   6.947   1.441   7.569 -0.6562 -1.5877 -0.1742
   19MOL   C197 5633   7.459   1.428   7.342  0.6748 -0.3055 -0.1220
   19MOL   C198 5634   7.377   1.559   7.294  0.2891 -0.1449  0.3629
   19MOL   C199 5635   7.326   1.547   7.154  0.1583  0.3453  0.5871
   19MOL   O200 5636   7.386   1.474   7.074 -0.2436 -0.2829  0.7912
   19MOL   O201 5637   7.237   1.634   7.123  0.0923 -0.6169 -0.4048
   19MOL   C202 5638   7.187   1.650   6.992  0.0444  0.1909 -0.1688
   19MOL   C203 5639   7.046   1.593   6.984  1.1284  0.1065  0.1822
   19MOL   H204 5640   7.554   1.426   7.288  1.0584  2.2929  0.3659
   19MOL   H205 5641   7.405   1.340   7.308 -2.1999  1.3966 -0.2048
   19MOL   H206 5642   7.280   1.551   7.344 -1.0808 -0.3368 -2.2389
   19MOL   H207 5643   7.177   1.755   6.963  0.7131  0.2013 -0.3742
   19MOL   H208 5644   7.244   1.604   6.911  1.8375 -1.2387  1.8601
   19MOL   H209 5645   6.989   1.620   7.073  0.8463  1.3050 -0.3535
   19MOL   H210 5646   7.052   1.484   6.975  3.1990  0.3145 -1.2777
   19MOL   H211 5647   6.994   1.610   6.890  0.3090 -0.3056  0.5515
   19MOL   C212 5648   7.453   1.695   7.323  0.0808  0.4698 -0.2030
   19MOL   C213 5649   7.405   1.774   7.447 -0.2279 -0.0645  0.4498
   19MOL   C214 5650   7.259   1.834   7.425 -0.3032 -0.0679 -0.2733
   19MOL   O215 5651   7.238   1.957   7.428 -0.1358 -0.0612 -0.4449
   19MOL   O216 5652   7.165   1.741   7.395 -0.1032  0.3564  0.0948
   19MOL   C217 5653   7.038   1.788   7.363  0.4613 -0.1713  0.3771
   19MOL   C218 5654   6.956   1.821   7.494  0.3463  0.1718  0.2155
   19MOL   H219 5655   7.560   1.677   7.332 -0.3883 -1.9814  0.9683
   19MOL   H220 5656   7.440   1.773   7.248 -1.0242  0.7991  0.3208
   19MOL   H221 5657   7.394   1.704   7.529 -1.6190 -0.8325 -0.3622
   19MOL   H222 5658   7.056   1.873   7.297  0.9467  0.6087  1.4965
   19MOL   H223 5659   6.988   1.710   7.305  1.7721 -1.6618  1.2077
   19MOL   H224 5660   6.871   1.879   7.458  0.3210  0.1270  0.2031
   19MOL   H225 5661   7.007   1.890   7.561 -0.0740  0.5626  0.1383
   19MOL   H226 5662   6.927   1.726   7.540  1.4538 -0.6336 -0.7368
   19MOL   C227 5663   7.500   1.886   7.491  0.3141 -0.4823 -1.2861
   19MOL   C228 5664   7.536   2.000   7.392  0.0478  0.5133  0.0089
   19MOL   C229 5665   7.644   1.954   7.294  0.1030  0.2254 -0.2091
   19MOL   O230 5666   7.638   1.976   7.173  0.0691  0.4235 -0.2115
   19MOL   O231 5667   7.736   1.879   7.351 -0.1131 -0.5177 -0.0704
   19MOL   C232 5668   7.832   1.811   7.266 -0.6389 -0.2731  0.4782
   19MOL   C233 5669   0.033   1.915   7.247 -0.3587  0.8701 -0.3202
   19MOL   H234 5670   7.449   1.933   7.574  1.8216  0.4290 -0.8613
   19MOL   H235 5671   7.587   1.833   7.529 -0.5340  0.2359  1.7792
   19MOL   H236 5672   7.456   2.005   7.318  0.5492  0.6525 -0.5314
   19MOL   H237 5673   7.858   1.722   7.324  1.2635 -0.5208 -0.7036
   19MOL   H238 5674   7.793   1.769   7.173 -1.4065  0.7275  0.3415
   19MOL   H239 5675   0.004   1.993   7.177 -0.4904  1.5640  0.5150
   19MOL   H240 5676   0.122   1.865   7.207 -0.4966 -0.6682  1.2270
   19MOL   H241 5677   0.069   1.968   7.335 -1.7525  0.6749  0.3757
   19MOL   C242 5678   7.561   2.138   7.448  0.0307 -0.4197  0.1059
   19MOL   C243 5679   7.696   2.153   7.522 -0.3290 -0.2703 -0.3461
   19MOL   C244 5680   7.691   2.084   7.654  0.1601 -0.1121  0.9527
   19MOL   O245 5681   7.598   2.106   7.728 -0.0776 -0.3285  0.2310
   19MOL   O246 5682   7.786   1.998   7.676 -0.3889 -0.0045 -0.0409
   19MOL   C247 5683   7.812   1.940   7.808  0.8992  0.3721 -0.4419
   19MOL   C248 5684   0.047   1.908   7.837 -0.0173  0.4044  0.5919
   19MOL   H249 5685   7.546   2.207   7.365 -0.3558 -1.7190 -0.9231
   19MOL   H250 5686   7.478   2.167   7.512  0.1782  1.5542 -0.5341
   19MOL   H251 5687   7.780   2.103   7.473  0.1365  0.5618 -0.3917
   19MOL   H252 5688   7.779   2.019   7.876 -0.9218  0.0072 -0.8661
   19MOL   H253 5689   7.749   1.853   7.827  2.9357 -1.3176 -1.2973
   19MOL   H254 5690   0.107   1.995   7.811  1.3786 -0.6476  0.2353
   19MOL   H255 5691   0.094   1.823   7.789  1.3946  0.1351  2.3785
   19MOL   H256 5692   0.059   1.888   0.035  1.5344  1.3290  0.6014
   19MOL   C257 5693   7.743   2.300   7.545 -0.2290 -0.7848  0.7525
   19MOL   C258 5694   7.892   2.317   7.561  0.4935  1.2898 -0.5052
   19MOL   C259 5695   0.014   2.457   7.618  0.0361  0.4596 -0.6490
   19MOL   O260 5696   0.113   2.469   7.697  0.0191  0.6444  0.2858
   19MOL   O261 5697   7.853   2.555   7.564 -0.2258  0.4005  0.5703
   19MOL   C262 5698   7.883   2.688   7.594  0.4700  1.0116 -0.2027
   19MOL   C263 5699   7.796   2.739   7.707  0.1818  0.2400 -0.6212
   19MOL   H264 5700   7.707   2.361   7.462 -0.5979 -0.2590  1.2885
   19MOL   H265 5701   7.703   2.344   7.637 -0.0455 -1.8185  1.3366
   19MOL   H266 5702   0.014   2.237   7.629 -1.4125 -0.0873 -1.2131
   19MOL   H267 5703   0.081   2.705   7.613 -0.0127  1.5678  2.2253
   19MOL   H268 5704   7.856   2.744   7.504  0.9793  0.6266 -0.6001
   19MOL   H269 5705   7.835   2.706   7.803  0.9062  0.8474 -0.7035
   19MOL   H270 5706   7.692   2.713   7.687  0.4684  0.0910 -1.9873
   19MOL   H271 5707   7.807   2.847   7.716  1.4231  0.0846 -0.2525
   19MOL   C272 5708   0.060   2.287   7.434 -0.4544 -0.0644 -0.1179
   19MOL   C273 5709   0.214   2.269   7.440  0.3053 -0.1879  1.1202
   19MOL   C274 5710   0.286   2.315   7.308  0.4037  0.5295  0.5372
   19MOL   O275 5711   0.332   2.427   7.297  0.4989 -0.2198 -0.2285
   19MOL   O276 5712   0.294   2.223   7.219 -0.0058  0.0939 -0.4274
   19MOL   C277 5713   0.361   2.257   7.096 -0.5066  0.1573 -0.5762
   19MOL   C278 5714   0.316   2.150   6.995  0.3400 -0.4146  0.3371
   19MOL   H279 5715   0.029   2.200   7.376  0.5585 -2.0877  2.2491
   19MOL   H280 5716   0.042   2.378   7.378  0.7004 -0.3867 -1.0385
   19MOL   H281 5717   0.247   2.335   7.520 -0.0725  0.0738  1.0663
   19MOL   H282 5718   0.325   2.354   7.064  0.3808  1.1270  1.3050
   19MOL   H283 5719   0.467   2.272   7.118 -0.9013 -0.4291  1.8615
   19MOL   H284 5720   0.207   2.152   6.992  0.3634  0.0921 -4.2048
   19MOL   H285 5721   0.370   2.060   7.022 -0.1851 -0.5686  0.8897
   19MOL   H286 5722   0.339   2.174   6.891  0.0516 -0.6086  0.2269
   19MOL   C287 5723   0.262   2.133   7.491  0.5091  0.6055  0.1564
   19MOL   C288 5724   0.416   2.103   7.506  0.0341  0.1632 -0.8280
   19MOL   C289 5725   0.434   1.982   7.597 -0.2873  0.2250  0.4877
   19MOL   O290 5726   0.353   1.884   7.598 -0.5838  0.2133 -0.2370
   19MOL   O291 5727   0.552   1.977   7.659  0.4262  0.5298 -0.5136
   19MOL   C292 5728   0.594   1.860   7.720 -0.2856  0.1779 -0.4535
   19MOL   C293 5729   0.694   1.887   7.834  0.2597 -0.9361  0.9354
   19MOL   H294 5730   0.215   2.104   7.585  2.5291 -4.2050 -0.1549
   19MOL   H295 5731   0.246   2.061   7.410  1.8977  0.5262 -0.0638
   19MOL   H296 5732   0.453   2.084   7.405  2.0888 -0.2050 -0.0388
   19MOL   H297 5733   0.507   1.796   7.739 -0.2129  0.1946 -0.0490
   19MOL   H298 5734   0.640   1.802   7.640  1.4014 -0.8794  1.2203
   19MOL   H299 5735   0.727   1.789   7.868 -1.9159 -1.6657  1.0587
   19MOL   H300 5736   0.649   1.955   7.906 -0.8026  0.3084 -0.8330
   19MOL   H301 5737   0.790   1.932   7.809 -0.6993  1.3549  1.3010
   19MOL   H302 5738   0.464   2.195   7.542  2.0392 -0.8974 -0.7274
   20MOL     C1 5739   7.174   2.041   1.619  0.1940 -1.0498  0.3420
   20MOL     C2 5740   7.181   1.932   1.729  0.1763  0.7831  0.2216
   20MOL     C3 5741   7.146   1.985   1.869  0.2867  0.1547 -0.4439
   20MOL     O4 5742   7.218   1.968   1.968  0.5017  0.3685 -0.3237
   20MOL     O5 5743   7.027   2.039   1.872  0.1409  0.1509 -0.0338
   20MOL     C6 5744   6.962   2.077   1.992  0.4552 -0.0352 -0.1369
   20MOL     C7 5745   6.927   2.224   1.986 -0.3785  0.0904  0.8049
   20MOL     H8 5746   7.238   2.127   1.641 -0.9314 -0.4697  1.4000
   20MOL     H9 5747   7.071   2.073   1.601  0.3767  0.1625  1.3634
   20MOL    H10 5748   7.107   1.854   1.716  0.5033  0.3237  1.0649
   20MOL    H11 5749   6.871   2.017   1.992  1.0249 -0.9119 -0.4276
   20MOL    H12 5750   7.012   2.039   2.081 -0.1713 -0.5637 -0.0101
   20MOL    H13 5751   7.010   2.289   1.957 -2.1126  1.5921 -0.9762
   20MOL    H14 5752   6.887   2.251   2.084 -0.3944  0.3922  0.7166
   20MOL    H15 5753   6.841   2.252   1.924  1.6153 -0.7311 -2.4959
   20MOL    H16 5754   7.205   2.001   1.522 -0.1019  0.6742 -0.4807
   20MOL    C17 5755   7.319   1.861   1.717 -0.2105 -0.3248  0.3568
   20MOL    C18 5756   7.355   1.746   1.810  0.5171  0.5198  0.1654
   20MOL    C19 5757   7.479   1.683   1.750  0.8844  0.0953  0.5877
   20MOL    O20 5758   7.478   1.582   1.683  0.3880  0.6621  0.4035
   20MOL    O21 5759   7.590   1.761   1.783  0.3887 -0.4900 -0.6473
   20MOL    C22 5760   7.722   1.743   1.726 -0.1902  0.4150 -0.2569
   20MOL    C23 5761   7.809   1.851   1.796 -0.5377  0.3905 -0.1400
   20MOL    H24 5762   7.343   1.832   1.615 -0.6027  0.0000  0.1737
   20MOL    H25 5763   7.397   1.933   1.740 -0.0468  0.2244 -1.7977
   20MOL    H26 5764   7.391   1.792   1.902  0.3903  0.9651 -0.0054
   20MOL    H27 5765   7.762   1.642   1.733 -1.8240 -0.1781  0.8532
   20MOL    H28 5766   7.717   1.765   1.619 -1.2252  0.7734 -0.1481
   20MOL    H29 5767   7.757   1.947   1.801 -0.9685  0.0819  2.0571
   20MOL    H30 5768   7.905   1.860   1.745 -1.6339  0.6082 -2.1995
   20MOL    H31 5769   7.823   1.827   1.902 -0.9356  2.1702  0.3383
   20MOL    C32 5770   7.243   1.643   1.846 -0.7520  0.0694  0.4707
   20MOL    C33 5771   7.263   1.572   1.982 -0.2099  0.7670  0.1810
   20MOL    C34 5772   7.382   1.472   1.983 -0.6209  0.4813  0.5129
   20MOL    O35 5773   7.366   1.360   1.930 -0.4819  0.3564  0.1982
   20MOL    O36 5774   7.484   1.520   2.050 -0.3359 -0.6081 -0.2251
   20MOL    C37 5775   7.607   1.456   2.043  0.3812  0.0488 -0.0947
   20MOL    C38 5776   7.730   1.553   2.071  0.1199 -0.2972 -0.2023
   20MOL    H39 5777   7.146   1.691   1.835  0.5912  2.8266  0.1845
   20MOL    H40 5778   7.225   1.574   1.764 -0.7440 -1.5902  1.8412
   20MOL    H41 5779   7.282   1.648   2.058  1.3306  1.0075 -0.4288
   20MOL    H42 5780   7.605   1.370   2.111  0.1107  0.9976  1.1232
   20MOL    H43 5781   7.621   1.406   1.947 -1.1812 -1.8497  0.6113
   20MOL    H44 5782   7.732   1.646   2.013 -1.8741  0.1270  0.3687
   20MOL    H45 5783   7.818   1.494   2.046  1.1011  0.6968  0.8493
   20MOL    H46 5784   7.726   1.582   2.175 -3.6577  4.5107 -1.4835
   20MOL    C47 5785   7.133   1.499   2.027 -0.2055 -0.1505  0.1806
   20MOL    C48 5786   6.994   1.586   2.041  0.0639 -1.0442 -0.1562
   20MOL    C49 5787   7.006   1.718   2.111  0.4553 -0.1914 -0.1569
   20MOL    O50 5788   6.927   1.807   2.090 -0.0560  0.3295  0.2976
   20MOL    O51 5789   7.104   1.723   2.207  0.6610  0.2042 -0.8569
   20MOL    C52 5790   7.131   1.847   2.276 -0.1716 -0.5209  0.4684
   20MOL    C53 5791   7.214   1.842   2.403 -0.4822 -0.3541 -0.0018
   20MOL    H54 5792   7.101   1.419   1.961  1.0042 -0.9910  0.5933
   20MOL    H55 5793   7.159   1.461   2.125  1.9456  0.7683  0.0072
   20MOL    H56 5794   6.962   1.613   1.940  1.5486 -3.2166 -1.2492
   20MOL    H57 5795   7.164   1.919   2.200 -0.9673  0.6191  1.1886
   20MOL    H58 5796   7.038   1.900   2.296  0.3937  1.6923 -2.4092
   20MOL    H59 5797   7.221   1.928   2.470  0.8710 -0.1513 -0.3852
   20MOL    H60 5798   7.316   1.841   2.365 -0.3509  1.9332  0.2152
   20MOL    H61 5799   7.199   1.748   2.455  2.6298 -0.4097  0.8996
   20MOL    C62 5800   6.875   1.502   2.100 -0.0453 -0.6069  0.0387
   20MOL    C63 5801   6.886   1.427   2.233  0.1840 -0.0233 -0.2762
   20MOL    C64 5802   6.977   1.299   2.226  0.2084  0.1341  0.1520
   20MOL    O65 5803   7.050   1.274   2.318  0.3911 -0.7572 -0.9092
   20MOL    O66 5804   6.964   1.216   2.120 -1.3012 -0.2812  0.8642
   20MOL    C67 5805   7.016   1.075   2.118 -0.5374 -0.3116 -0.3132
   20MOL    C68 5806   7.163   1.080   2.088 -0.5754  0.5367  0.2457
   20MOL    H69 5807   6.787   1.564   2.116 -1.3730 -2.9234  2.0805
   20MOL    H70 5808   6.830   1.430   2.032 -1.6677  1.8802 -1.5684
   20MOL    H71 5809   6.926   1.496   2.307 -0.4508  2.8887 -2.5421
   20MOL    H72 5810   7.011   1.043   2.221  0.3890  0.9099  0.1222
   20MOL    H73 5811   6.955   1.003   2.063 -0.2263 -1.6180  1.0398
   20MOL    H74 5812   7.220   1.165   2.125 -0.7927  1.5716 -1.7277
   20MOL    H75 5813   7.168   1.088   1.980  0.7425 -0.1078  0.2432
   20MOL    H76 5814   7.217   0.986   2.100 -0.2538  0.3115 -2.6733
   20MOL    C77 5815   6.745   1.377   2.283 -0.1626 -0.2775 -0.3156
   20MOL    C78 5816   6.689   1.446   2.416 -0.2322  0.4924 -0.1041
   20MOL    C79 5817   6.662   1.599   2.388 -1.0844 -0.0623  0.8449
   20MOL    O80 5818   6.563   1.630   2.321 -0.2893  0.6250 -0.1412
   20MOL    O81 5819   6.771   1.682   2.417  0.2518  0.3609 -0.3443
   20MOL    C82 5820   6.761   1.828   2.401 -0.2031  0.3159 -0.4242
   20MOL    C83 5821   6.850   1.890   2.518 -0.3743  0.5230 -0.2560
   20MOL    H84 5822   6.672   1.374   2.203 -2.6150 -0.2553  1.8368
   20MOL    H85 5823   6.752   1.273   2.315 -1.3677 -0.8451 -1.8640
   20MOL    H86 5824   6.591   1.399   2.426 -0.2207 -0.3998 -3.4989
   20MOL    H87 5825   6.788   1.871   2.305  1.1085  0.5587  0.0399
   20MOL    H88 5826   6.656   1.853   2.411 -0.9717 -1.8153 -2.7486
   20MOL    H89 5827   6.945   1.837   2.514 -0.1653  0.8679  0.0672
   20MOL    H90 5828   6.821   1.871   2.622 -1.2962  0.1791 -0.5734
   20MOL    H91 5829   6.862   1.997   2.503 -0.2352  0.4350 -0.7594
   20MOL    C92 5830   6.785   1.413   2.542 -0.2234  0.1816  0.6959
   20MOL    C93 5831   6.732   1.414   2.690 -0.1730  0.3610  0.3389
   20MOL    C94 5832   6.667   1.279   2.719 -0.5228  0.3102 -0.5331
   20MOL    O95 5833   6.558   1.246   2.674 -0.1773  0.0404  0.5225
   20MOL    O96 5834   6.741   1.203   2.806 -0.2159  0.2992  0.1313
   20MOL    C97 5835   6.692   1.075   2.843  0.5976  0.9083 -0.3199
   20MOL    C98 5836   6.691   1.062   2.997 -0.5638 -0.2068 -0.1703
   20MOL    H99 5837   6.836   1.319   2.520 -0.5094  0.4193 -1.0981
   20MOL   H100 5838   6.868   1.485   2.540 -0.9520  1.0238 -2.5590
   20MOL   H101 5839   6.813   1.425   2.762 -0.0614  0.2294  0.2361
   20MOL   H102 5840   6.591   1.057   2.808 -0.9579  2.1536  3.2265
   20MOL   H103 5841   6.753   1.004   2.788  4.4365  1.0343  3.4967
   20MOL   H104 5842   6.615   1.134   3.030  0.9674  0.9531  0.8938
   20MOL   H105 5843   6.786   1.088   3.044 -0.5989  1.5780 -1.0220
   20MOL   H106 5844   6.665   0.962   3.029  0.4384  0.5107  3.0843
   20MOL   C107 5845   6.642   1.540   2.719  0.4894  0.2987 -0.3494
   20MOL   C108 5846   6.609   1.583   2.862 -0.3271 -0.9316 -0.2079
   20MOL   C109 5847   6.717   1.669   2.929 -0.3223  0.0897  0.0828
   20MOL   O110 5848   6.687   1.736   3.026  0.4796  0.2204 -0.0835
   20MOL   O111 5849   6.836   1.676   2.863 -0.4941 -0.2265  0.4939
   20MOL   C112 5850   6.939   1.759   2.894 -0.4484 -0.0242 -0.3164
   20MOL   C113 5851   7.069   1.677   2.887  0.1804 -0.5931 -0.5046
   20MOL   H114 5852   6.684   1.629   2.673 -1.4403  1.1195 -0.5918
   20MOL   H115 5853   6.550   1.521   2.663  0.1755  0.6644  0.0325
   20MOL   H116 5854   6.541   1.667   2.848  0.1321 -0.1045  2.2541
   20MOL   H117 5855   6.941   1.840   2.821 -1.3365 -0.4025 -0.7660
   20MOL   H118 5856   6.923   1.798   2.995  1.1989 -0.7882  0.2606
   20MOL   H119 5857   7.056   1.588   2.950 -0.6004 -0.7424 -0.8626
   20MOL   H120 5858   7.146   1.740   2.931  1.2572 -1.5276 -1.0290
   20MOL   H121 5859   7.094   1.639   2.788  1.6981 -0.9144 -0.0040
   20MOL   C122 5860   6.545   1.479   2.950 -0.7351 -0.8060  0.0579
   20MOL   C123 5861   6.476   1.522   3.079 -0.0517  0.2112  0.0287
   20MOL   C124 5862   6.407   1.401   3.156  0.4186 -0.8021  0.4485
   20MOL   O125 5863   6.429   1.376   3.274 -0.1100 -0.2082 -0.2123
   20MOL   O126 5864   6.326   1.323   3.082  0.1137 -0.0737 -0.2068
   20MOL   C127 5865   6.269   1.203   3.137  0.0761 -0.6282 -0.3766
   20MOL   C128 5866   6.209   1.110   3.028 -0.1627  0.1277  0.5288
   20MOL   H129 5867   6.479   1.425   2.881 -1.7121 -2.0315  1.9089
   20MOL   H130 5868   6.623   1.408   2.977  1.9392  1.0140 -2.5527
   20MOL   H131 5869   6.552   1.566   3.145 -2.5491  0.2148  3.0358
   20MOL   H132 5870   6.353   1.151   3.184 -0.1994 -0.9965 -0.2913
   20MOL   H133 5871   6.204   1.233   3.219  0.2729  2.3468 -1.2592
   20MOL   H134 5872   6.142   1.036   3.072 -0.7841 -0.1593 -0.8814
   20MOL   H135 5873   6.293   1.056   2.984 -0.0590 -0.1289  1.0368
   20MOL   H136 5874   6.156   1.165   2.951 -2.2615 -1.5163  0.7815
   20MOL   C137 5875   6.365   1.625   3.058  0.0136 -0.5372  0.1164
   20MOL   C138 5876   6.324   1.698   3.187 -0.2505  0.4625  0.2822
   20MOL   C139 5877   6.192   1.768   3.162  0.2849  0.2809  0.0863
   20MOL   O140 5878   6.096   1.758   3.236 -0.3749 -0.2737 -0.1437
   20MOL   O141 5879   6.205   1.854   3.052  0.1466  0.0633 -0.3088
   20MOL   C142 5880   6.090   1.930   3.019  0.5234 -0.2743  0.3588
   20MOL   C143 5881   6.119   2.016   2.896  0.4805 -0.4934  0.0418
   20MOL   H144 5882   6.392   1.700   2.983 -1.4341 -0.2092 -0.0977
   20MOL   H145 5883   6.288   1.580   2.996 -0.4154  1.2517 -0.6782
   20MOL   H146 5884   6.312   1.628   3.270  2.5641 -0.3922  0.0278
   20MOL   H147 5885   6.010   1.860   2.996  0.5503 -0.5285  1.0324
   20MOL   H148 5886   6.048   1.988   3.101 -0.2807 -0.6541  0.2189
   20MOL   H149 5887   6.123   1.961   2.802  0.8115 -0.4445  0.0282
   20MOL   H150 5888   6.199   2.089   2.905 -0.2526  0.2776  0.4687
   20MOL   H151 5889   6.031   2.079   2.883 -0.5222 -1.7832  0.4846
   20MOL   C152 5890   6.430   1.794   3.236  0.8418  0.2114  0.7683
   20MOL   C153 5891   6.400   1.845   3.381 -0.6757 -0.2147 -0.4150
   20MOL   C154 5892   6.386   2.001   3.379 -0.3674 -0.3504 -0.0794
   20MOL   O155 5893   6.465   2.073   3.436  0.3987 -0.5133  0.3651
   20MOL   O156 5894   6.268   2.040   3.317  0.2631 -0.1751  0.7617
   20MOL   C157 5895   6.239   2.185   3.311 -0.4684 -0.3011 -0.2019
   20MOL   C158 5896   6.312   2.238   3.186 -0.2789  0.1427 -0.7587
   20MOL   H159 5897   6.524   1.738   3.234  1.5600  1.3976  1.2042
   20MOL   H160 5898   6.437   1.871   3.160  2.5212  2.4734  3.1281
   20MOL   H161 5899   6.308   1.807   3.423  0.9392  0.5571  4.1196
   20MOL   H162 5900   6.131   2.189   3.319 -0.6714 -2.7311 -1.4549
   20MOL   H163 5901   6.282   2.239   3.396 -1.0633 -0.1239 -0.0087
   20MOL   H164 5902   6.297   2.171   3.101  0.5030 -0.9890 -0.0247
   20MOL   H165 5903   6.416   2.265   3.202  0.2708 -2.0077 -0.4586
   20MOL   H166 5904   6.275   2.336   3.157  0.1947  0.3681 -0.5992
   20MOL   C167 5905   6.515   1.799   3.477  0.1987 -0.2384 -0.0715
   20MOL   C168 5906   6.523   1.648   3.514 -0.1565 -0.2373  0.4803
   20MOL   C169 5907   6.402   1.589   3.601  0.3693  0.0622 -0.2963
   20MOL   O170 5908   6.369   1.471   3.592  0.1449  0.6027  0.2871
   20MOL   O171 5909   6.341   1.682   3.685 -0.0729 -0.0017  0.1268
   20MOL   C172 5910   6.245   1.634   3.775 -0.3303 -0.5777  0.8789
   20MOL   C173 5911   6.255   1.733   3.893 -0.1425  0.3409  0.7145
   20MOL   H174 5912   6.607   1.831   3.426  0.1656  1.3278  0.8198
   20MOL   H175 5913   6.504   1.849   3.573  2.1935  0.8761 -0.3748
   20MOL   H176 5914   6.523   1.593   3.420  1.0540  1.3245 -0.4597
   20MOL   H177 5915   6.147   1.649   3.730  0.8427  2.4013 -0.8397
   20MOL   H178 5916   6.261   1.535   3.818  0.6785  0.1426  2.1998
   20MOL   H179 5917   6.360   1.738   3.921  0.5772  1.9589 -2.0798
   20MOL   H180 5918   6.181   1.695   3.963  0.8608 -1.1508  0.9901
   20MOL   H181 5919   6.209   1.829   3.870 -0.0194 -0.2921 -2.3886
   20MOL   C182 5920   6.658   1.617   3.583 -0.1297 -0.1973 -0.4719
   20MOL   C183 5921   6.686   1.674   3.727  0.0140 -0.0707  0.3475
   20MOL   C184 5922   6.730   1.824   3.720  0.9661 -0.1684  0.2307
   20MOL   O185 5923   6.757   1.876   3.608 -0.5631  0.2136  0.1828
   20MOL   O186 5924   6.736   1.876   3.837 -0.1666 -0.1149 -0.0046
   20MOL   C187 5925   6.754   2.018   3.830  0.7707 -0.2010 -0.7101
   20MOL   C188 5926   6.735   2.082   3.960  0.2088  0.5254  0.0087
   20MOL   H189 5927   6.646   1.509   3.592 -1.1341 -0.0348  0.2028
   20MOL   H190 5928   6.743   1.631   3.516 -0.5954 -2.3558 -1.5837
   20MOL   H191 5929   6.587   1.674   3.772  0.0347  0.2037  0.3991
   20MOL   H192 5930   6.858   2.026   3.800 -0.0745  0.4993 -3.6000
   20MOL   H193 5931   6.698   2.058   3.746  0.8289 -0.0618 -0.6818
   20MOL   H194 5932   6.795   2.173   3.963 -0.4789  0.9609  0.8097
   20MOL   H195 5933   6.763   2.021   4.047  0.9386  0.6241 -0.1571
   20MOL   H196 5934   6.631   2.112   3.978 -0.1385 -0.0567 -1.0048
   20MOL   C197 5935   6.778   1.586   3.813  0.1390  0.2392  0.0374
   20MOL   C198 5936   6.704   1.476   3.895  0.4511 -0.2161  0.7852
   20MOL   C199 5937   6.588   1.535   3.982  0.1928  0.2826  0.1599
   20MOL   O200 5938   6.469   1.519   3.947 -0.0554 -0.1152  0.0794
   20MOL   O201 5939   6.635   1.593   4.088 -0.2891 -0.0178  0.4907
   20MOL   C202 5940   6.557   1.648   4.195 -0.1200  0.4430  1.1031
   20MOL   C203 5941   6.595   1.788   4.222  0.1623  0.4051 -0.4723
   20MOL   H204 5942   6.858   1.548   3.750 -0.3343 -1.0689  0.1951
   20MOL   H205 5943   6.832   1.651   3.880 -1.3999  0.0067  1.5408
   20MOL   H206 5944   6.646   1.416   3.825  2.0554 -1.3011  0.3499
   20MOL   H207 5945   6.455   1.637   4.157  0.8089  0.6155 -1.5304
   20MOL   H208 5946   6.565   1.586   4.284  0.7067  0.1696  0.8415
   20MOL   H209 5947   6.592   1.848   4.131 -2.4506 -0.1877 -0.8365
   20MOL   H210 5948   6.694   1.799   4.265  1.0096 -0.9012 -2.0408
   20MOL   H211 5949   6.512   1.830   4.279  0.8399  1.4196 -0.2244
   20MOL   C212 5950   6.805   1.379   3.977  0.2081  0.3315 -0.6712
   20MOL   C213 5951   6.837   1.261   3.888 -0.9468 -0.0458  0.2820
   20MOL   C214 5952   6.714   1.184   3.854 -0.2864 -0.2357  0.2476
   20MOL   O215 5953   6.662   1.113   3.939 -0.1956 -0.1841  0.1896
   20MOL   O216 5954   6.680   1.189   3.722 -0.8515  0.0518  0.2128
   20MOL   C217 5955   6.555   1.128   3.691  0.2320 -0.1314  0.4233
   20MOL   C218 5956   6.510   1.151   3.554 -0.2122 -0.5771  0.1558
   20MOL   H219 5957   6.897   1.426   4.012 -0.5496  1.1581  0.2283
   20MOL   H220 5958   6.769   1.346   4.075  1.0312  0.3978 -0.3395
   20MOL   H221 5959   6.879   1.305   3.798  0.3485 -0.8416  0.4877
   20MOL   H222 5960   6.556   1.019   3.694 -1.4554 -0.1938 -0.6361
   20MOL   H223 5961   6.475   1.153   3.761  0.1821  0.8309  0.0228
   20MOL   H224 5962   6.583   1.110   3.484 -0.8463 -2.6438  0.6741
   20MOL   H225 5963   6.482   1.253   3.525 -2.1257 -0.9285  0.7316
   20MOL   H226 5964   6.411   1.114   3.529  0.0078 -1.4156  0.5132
   20MOL   C227 5965   6.938   1.180   3.963  1.1316  0.2660 -0.3779
   20MOL   C228 5966   6.982   1.052   3.885 -0.7147 -0.5666 -0.2978
   20MOL   C229 5967   7.043   0.954   3.985  1.0576  0.7288 -0.6036
   20MOL   O230 5968   7.159   0.964   4.019  0.2506 -0.5240 -0.4784
   20MOL   O231 5969   6.951   0.868   4.036  0.1217  0.3387 -0.7717
   20MOL   C232 5970   6.994   0.745   4.102  0.1130 -0.4431 -0.2357
   20MOL   C233 5971   6.876   0.658   4.103  0.3220  0.3881 -0.3291
   20MOL   H234 5972   7.029   1.231   3.993  0.1047  1.6754  0.3811
   20MOL   H235 5973   6.902   1.152   4.062  1.2610 -0.8616 -0.6380
   20MOL   H236 5974   6.892   1.002   3.851 -2.2806  1.0211  1.3608
   20MOL   H237 5975   7.064   0.700   4.032  1.1982  0.2255  0.4075
   20MOL   H238 5976   7.047   0.756   4.197  0.5494 -0.0506 -0.5220
   20MOL   H239 5977   6.836   0.666   4.002  1.0829  0.9333 -0.5904
   20MOL   H240 5978   6.806   0.695   4.179 -1.2472 -1.7728 -0.6752
   20MOL   H241 5979   6.908   0.556   4.121 -1.1437 -0.7271 -3.7404
   20MOL   C242 5980   7.088   1.083   3.769 -0.3161  0.6615  0.8564
   20MOL   C243 5981   7.034   1.061   3.626 -0.5348 -0.1726  0.6790
   20MOL   C244 5982   6.987   0.919   3.594  0.3461 -0.8219  0.5688
   20MOL   O245 5983   6.993   0.824   3.668  0.1239  0.0071  0.2764
   20MOL   O246 5984   6.919   0.920   3.482  0.1854  0.0383 -0.6858
   20MOL   C247 5985   6.836   0.807   3.449  0.1223 -0.6144  0.2020
   20MOL   C248 5986   6.743   0.856   3.339  0.4897  0.1058 -0.3438
   20MOL   H249 5987   7.121   1.186   3.776 -0.6974  0.7358  1.5530
   20MOL   H250 5988   7.179   1.023   3.773  0.1603  1.3156  0.0324
   20MOL   H251 5989   6.940   1.114   3.615 -1.4107 -1.9743 -0.8421
   20MOL   H252 5990   6.903   0.728   3.416 -0.4495 -2.5034  3.3737
   20MOL   H253 5991   6.783   0.771   3.537  0.5145  2.3140  1.7240
   20MOL   H254 5992   6.673   0.924   3.387  0.6924  0.8254 -1.0659
   20MOL   H255 5993   6.701   0.764   3.298 -0.1506 -1.0296  2.7413
   20MOL   H256 5994   6.798   0.908   3.261 -0.0123 -1.2541 -1.6187
   20MOL   C257 5995   7.132   1.121   3.520 -0.5012  0.1434  0.7919
   20MOL   C258 5996   7.139   1.281   3.527  0.4350  0.1148  0.0945
   20MOL   C259 5997   7.003   1.346   3.500 -0.5067 -0.0591  1.1605
   20MOL   O260 5998   6.962   1.433   3.577  0.4161 -0.2084 -0.5425
   20MOL   O261 5999   6.937   1.299   3.393  0.0967 -0.9957  0.2937
   20MOL   C262 6000   6.815   1.342   3.347  0.3465 -0.9512  1.0190
   20MOL   C263 6001   6.818   1.328   3.196  0.1947  0.2721 -0.0218
   20MOL   H264 6002   7.230   1.077   3.536 -0.6280 -0.6131 -0.4888
   20MOL   H265 6003   7.105   1.095   3.418 -1.4668 -0.5326  1.2077
   20MOL   H266 6004   7.153   1.311   3.631  0.9367  2.5568 -0.6448
   20MOL   H267 6005   6.732   1.280   3.380  0.1302 -0.1381  2.0272
   20MOL   H268 6006   6.803   1.446   3.378 -0.8202 -0.1220 -2.0673
   20MOL   H269 6007   6.717   1.314   3.160  0.2774 -0.3395 -0.0117
   20MOL   H270 6008   6.881   1.247   3.159 -0.2944  0.4065 -1.1453
   20MOL   H271 6009   6.860   1.418   3.151  2.5980 -0.0535  1.4372
   20MOL   C272 6010   7.259   1.339   3.438 -0.7246 -0.3526 -0.8606
   20MOL   C273 6011   7.390   1.364   3.515  0.5966  0.3972  0.2325
   20MOL   C274 6012   7.383   1.443   3.652  0.0968  0.5349  0.1475
   20MOL   O275 6013   7.407   1.382   3.757  0.2525 -0.0064  0.6348
   20MOL   O276 6014   7.327   1.564   3.636 -0.3711  0.0824 -0.2676
   20MOL   C277 6015   7.299   1.654   3.747  0.4135 -0.4603  0.1280
   20MOL   C278 6016   7.149   1.628   3.781 -0.2507  0.2696 -0.5019
   20MOL   H279 6017   7.280   1.282   3.347  1.7368 -1.2915  0.2459
   20MOL   H280 6018   7.233   1.440   3.404  1.9733  0.9296  0.6517
   20MOL   H281 6019   7.437   1.269   3.540 -2.5541 -0.6707  2.3430
   20MOL   H282 6020   7.371   1.630   3.826 -0.1418  0.5654  0.9551
   20MOL   H283 6021   7.315   1.758   3.718  0.8964 -0.3206  0.8785
   20MOL   H284 6022   7.115   1.525   3.780  0.8189 -0.1069  0.3986
   20MOL   H285 6023   7.089   1.674   3.702 -1.7048 -1.6053 -0.5260
   20MOL   H286 6024   7.124   1.671   3.878  1.0516  0.1949 -0.1292
   20MOL   C287 6025   7.485   1.443   3.417 -0.2505 -0.2924  0.3587
   20MOL   C288 6026   7.636   1.413   3.448 -0.3995 -0.1317  0.3166
   20MOL   C289 6027   7.729   1.476   3.345 -0.5316 -0.5373 -0.2226
   20MOL   O290 6028   7.780   1.406   3.252 -0.4737  0.3424  0.3575
   20MOL   O291 6029   7.733   1.605   3.356 -0.5830  0.1064 -0.1066
   20MOL   C292 6030   7.829   1.675   3.282  0.9584 -0.9685  0.6650
   20MOL   C293 6031   0.044   1.695   3.367 -0.0588 -1.0214 -0.3024
   20MOL   H294 6032   7.472   1.419   3.311 -0.0078 -0.1265  0.2906
   20MOL   H295 6033   7.469   1.551   3.425  1.7887 -0.0676  1.4830
   20MOL   H296 6034   7.654   1.447   3.550  0.4072  1.6174 -0.3856
   20MOL   H297 6035   7.851   1.627   3.187  1.5066  2.9251 -1.2854
   20MOL   H298 6036   7.794   1.776   3.257  2.3152 -0.6229  0.1579
   20MOL   H299 6037   0.088   1.603   3.405 -0.9240 -1.3399 -0.0684
   20MOL   H300 6038   0.024   1.758   3.454  1.3895 -3.4633  1.8654
   20MOL   H301 6039   0.121   1.737   3.302  0.1468  0.1359  0.6761
   20MOL   H302 6040   7.655   1.306   3.455  0.0725 -0.0249  0.6524
   21MOL     C1 6041   1.154   3.552   6.388 -0.5015 -0.0658 -0.1336
   21MOL     C2 6042   1.256   3.639   6.310 -0.4277  0.4715 -0.3370
   21MOL     C3 6043   1.280   3.571   6.173  0.1335  0.2082  0.1317
   21MOL     O4 6044   1.395   3.527   6.144  0.3263 -0.4435 -0.1932
   21MOL     O5 6045   1.169   3.562   6.099  0.1871 -0.5520  0.0434
   21MOL     C6 6046   1.161   3.484   5.983  0.4852 -0.1593  0.0750
   21MOL     C7 6047   1.065   3.543   5.896  0.1495  0.0425 -0.5210
   21MOL     H8 6048   1.114   3.608   6.473 -0.0850 -1.1477  0.7852
   21MOL     H9 6049   1.189   3.456   6.424  2.5917  0.6646 -1.0062
   21MOL    H10 6050   1.206   3.732   6.284  3.9598  3.0457  0.1405
   21MOL    H11 6051   1.253   3.484   5.925  0.5625 -2.4717  0.1759
   21MOL    H12 6052   1.127   3.385   6.013 -0.8842 -0.6963 -3.1214
   21MOL    H13 6053   1.068   3.489   5.802  2.5731 -0.3695 -0.2236
   21MOL    H14 6054   1.105   3.640   5.865 -2.2240  1.2167 -0.0391
   21MOL    H15 6055   0.966   3.548   5.942  0.6700  0.1941  0.6106
   21MOL    H16 6056   1.078   3.514   6.320 -1.3322  0.2507  0.6098
   21MOL    C17 6057   1.368   3.695   6.400 -0.5621  0.2885 -0.0533
   21MOL    C18 6058   1.426   3.835   6.378  0.7433 -0.2976 -0.1919
   21MOL    C19 6059   1.324   3.944   6.402  0.9136  0.0358  0.4919
   21MOL    O20 6060   1.223   3.928   6.465 -0.2074  0.1915 -0.0300
   21MOL    O21 6061   1.364   4.066   6.368 -0.6386 -0.1491 -0.9430
   21MOL    C22 6062   1.275   4.181   6.363 -0.0475  0.2775 -0.1295
   21MOL    C23 6063   1.196   4.173   6.229  0.0802 -0.8128  0.5392
   21MOL    H24 6064   1.327   3.692   6.501 -2.7686  1.1367 -0.9029
   21MOL    H25 6065   1.450   3.623   6.395 -1.1411 -0.3466 -0.4818
   21MOL    H26 6066   1.496   3.850   6.460  0.1257  0.6283  0.1779
   21MOL    H27 6067   1.209   4.202   6.447 -0.1703  1.1306 -0.4397
   21MOL    H28 6068   1.344   4.265   6.368  1.2082 -0.7302 -0.2840
   21MOL    H29 6069   1.261   4.154   6.144  0.8763  2.7580  0.2701
   21MOL    H30 6070   1.129   4.253   6.198  2.8432  1.1655 -0.5650
   21MOL    H31 6071   1.126   4.090   6.235 -2.0364  0.8562 -0.2882
   21MOL    C32 6072   1.499   3.849   6.242 -0.2773  0.0597  0.3891
   21MOL    C33 6073   1.640   3.780   6.236 -0.6736 -0.4414 -0.2899
   21MOL    C34 6074   1.739   3.859   6.328  0.4083 -0.3687 -0.4878
   21MOL    O35 6075   1.812   3.956   6.290  0.2836  0.1011  0.3983
   21MOL    O36 6076   1.739   3.805   6.449  0.0072 -0.5196 -0.2047
   21MOL    C37 6077   1.823   3.862   6.550  0.0753 -0.3114 -0.0612
   21MOL    C38 6078   1.742   3.966   6.629  0.1939 -0.0497 -0.3111
   21MOL    H39 6079   1.427   3.823   6.164  0.3433  2.2707 -0.9587
   21MOL    H40 6080   1.517   3.955   6.226 -1.1569 -0.0872 -1.7982
   21MOL    H41 6081   1.633   3.674   6.263 -1.0251 -0.1042  0.9881
   21MOL    H42 6082   1.848   3.780   6.618 -3.2649 -2.3220 -1.1430
   21MOL    H43 6083   1.915   3.901   6.507  0.5484 -3.5111 -2.0997
   21MOL    H44 6084   1.794   4.003   6.716  2.1903  0.1901 -1.5845
   21MOL    H45 6085   1.648   3.920   6.661  0.4960  0.3117  1.1109
   21MOL    H46 6086   1.705   4.039   6.556  0.9578  1.5866  0.9221
   21MOL    C47 6087   1.695   3.783   6.096  0.5585  0.3348 -0.0683
   21MOL    C48 6088   1.826   3.706   6.072 -0.1919 -0.4138  0.3607
   21MOL    C49 6089   1.933   3.794   6.013  0.0486  0.7666 -0.3664
   21MOL    O50 6090   2.041   3.810   6.067 -0.9568  0.2532  0.1045
   21MOL    O51 6091   1.901   3.855   5.900 -0.2878  0.2751 -0.2119
   21MOL    C52 6092   1.995   3.921   5.819  0.3077 -0.3915  0.0670
   21MOL    C53 6093   2.050   3.818   5.722  0.2162  0.0059 -0.0441
   21MOL    H54 6094   1.614   3.756   6.028  2.3214  0.8289 -2.4224
   21MOL    H55 6095   1.701   3.884   6.057  0.3474  0.7403  0.9430
   21MOL    H56 6096   1.871   3.695   6.171 -0.3725 -5.1512 -0.0019
   21MOL    H57 6097   1.970   4.011   5.763  1.9712 -1.4885 -2.5067
   21MOL    H58 6098   2.080   3.964   5.871 -0.7564  0.5952  1.0036
   21MOL    H59 6099   2.125   3.863   5.657  0.3885 -0.8579 -0.4595
   21MOL    H60 6100   1.974   3.778   5.654 -0.2498  1.4055 -0.3570
   21MOL    H61 6101   2.108   3.737   5.767  3.4063  2.8180  1.1001
   21MOL    C62 6102   1.829   3.565   6.005 -0.1906  0.0359 -0.4520
   21MOL    C63 6103   1.783   3.452   6.099  0.0481  0.0678 -0.1014
   21MOL    C64 6104   1.872   3.417   6.210  0.4788 -0.2118 -0.3668
   21MOL    O65 6105   1.983   3.467   6.211  0.1706  0.1861 -0.1469
   21MOL    O66 6106   1.818   3.323   6.295 -0.0410  0.0057  0.1861
   21MOL    C67 6107   1.897   3.282   6.410  0.0259  0.1935  0.5308
   21MOL    C68 6108   1.863   3.370   6.532 -0.0755 -0.4325  0.2223
   21MOL    H69 6109   1.769   3.580   5.915  0.1943  0.3363 -0.6611
   21MOL    H70 6110   1.925   3.541   5.960 -1.3812 -3.8229 -1.1471
   21MOL    H71 6111   1.688   3.486   6.140  0.4578  0.7531  0.2971
   21MOL    H72 6112   1.876   3.176   6.426  2.4065 -0.3593  0.1667
   21MOL    H73 6113   2.000   3.278   6.377 -0.8327 -0.5086 -2.2426
   21MOL    H74 6114   1.877   3.475   6.505  2.4101 -0.8431 -0.2275
   21MOL    H75 6115   1.925   3.351   6.619  0.1190  0.1098  0.1984
   21MOL    H76 6116   1.756   3.369   6.555 -0.0977 -0.9679  0.0989
   21MOL    C77 6117   1.743   3.323   6.030 -0.1604  0.2110  0.3872
   21MOL    C78 6118   1.847   3.240   5.943 -0.1659  0.1137  0.1508
   21MOL    C79 6119   1.864   3.301   5.809 -0.4257  0.4996  0.2406
   21MOL    O80 6120   1.771   3.331   5.734 -0.1581  0.4081  0.7574
   21MOL    O81 6121   1.993   3.302   5.772  0.0377 -0.3716  0.1735
   21MOL    C82 6122   2.037   3.324   5.632 -0.2238  0.2480 -0.2043
   21MOL    C83 6123   2.104   3.459   5.600 -0.4601 -0.0556  0.3742
   21MOL    H84 6124   1.719   3.252   6.109 -0.7856  0.8294  0.7611
   21MOL    H85 6125   1.657   3.338   5.963  1.7970  0.7578 -2.0928
   21MOL    H86 6126   1.943   3.255   5.992 -0.9936  0.8623  1.5615
   21MOL    H87 6127   2.113   3.246   5.626  1.7813  2.1241  0.1449
   21MOL    H88 6128   1.958   3.298   5.561 -1.0448 -3.2999  1.8239
   21MOL    H89 6129   2.180   3.484   5.674  0.9781 -0.9770 -0.7422
   21MOL    H90 6130   2.028   3.536   5.609 -0.9529 -0.3849 -0.8615
   21MOL    H91 6131   2.155   3.475   5.505  0.5786  0.2777  0.9736
   21MOL    C92 6132   1.814   3.093   5.940  0.2670 -0.3203  0.1884
   21MOL    C93 6133   1.940   3.014   5.972  0.4742 -0.3496 -0.1036
   21MOL    C94 6134   1.951   2.871   5.918  0.1520 -0.8763 -0.0758
   21MOL    O95 6135   2.062   2.832   5.877 -0.1047  0.5424 -0.3723
   21MOL    O96 6136   1.837   2.807   5.933 -0.4672 -0.1023 -0.0188
   21MOL    C97 6137   1.828   2.666   5.930 -0.1599 -0.5012 -0.3564
   21MOL    C98 6138   1.820   2.633   6.082 -0.0288 -0.3329 -0.0760
   21MOL    H99 6139   1.727   3.066   6.000  0.3599 -0.9700  0.0417
   21MOL   H100 6140   1.776   3.072   5.839 -1.1756  0.0168  0.6431
   21MOL   H101 6141   2.007   3.077   5.914 -0.2422  1.4327  0.9389
   21MOL   H102 6142   1.732   2.647   5.881 -2.0433  2.5285  1.9069
   21MOL   H103 6143   1.907   2.618   5.873  0.2274  0.2755 -0.4868
   21MOL   H104 6144   1.796   2.528   6.102  2.3189 -0.3438  3.1624
   21MOL   H105 6145   1.740   2.691   6.129 -2.0588 -2.2791 -1.0181
   21MOL   H106 6146   1.916   2.643   6.131  0.0969 -3.3909  0.3985
   21MOL   C107 6147   1.970   3.023   6.128  0.1935  0.3814  0.9797
   21MOL   C108 6148   2.120   3.010   6.157 -0.5738 -0.8261  0.2562
   21MOL   C109 6149   2.146   2.986   6.305  0.0536 -0.3981 -0.4497
   21MOL   O110 6150   2.187   3.075   6.381  0.0998 -0.6173 -0.3102
   21MOL   O111 6151   2.127   2.856   6.341  0.4743 -0.2641 -0.2730
   21MOL   C112 6152   2.130   2.817   6.484 -0.0635 -0.3632 -0.0345
   21MOL   C113 6153   2.045   2.694   6.504  0.2144  0.0036 -0.0476
   21MOL   H114 6154   1.921   3.106   6.177  0.7305  1.0030  0.4698
   21MOL   H115 6155   1.928   2.936   6.179  0.7642 -0.9955 -0.8488
   21MOL   H116 6156   2.146   2.923   6.097 -0.0798  0.3021 -1.2000
   21MOL   H117 6157   2.232   2.815   6.522 -0.8153  0.9892  2.1404
   21MOL   H118 6158   2.090   2.898   6.545  1.0758 -1.0279  1.6365
   21MOL   H119 6159   2.091   2.609   6.453 -1.2122 -2.0329  1.9779
   21MOL   H120 6160   1.942   2.721   6.480 -0.0343 -1.2089 -0.3542
   21MOL   H121 6161   2.063   2.654   6.604 -0.5170 -0.9086 -0.2871
   21MOL   C122 6162   2.199   3.130   6.092  0.0092  0.7034 -0.7271
   21MOL   C123 6163   2.271   3.092   5.964  0.5215  0.5093 -0.2539
   21MOL   C124 6164   2.406   3.023   5.996  0.8335  0.1001 -0.2029
   21MOL   O125 6165   2.513   3.088   5.998 -0.3349  0.3220 -1.0285
   21MOL   O126 6166   2.381   2.898   6.023 -0.5986 -0.2435  0.2025
   21MOL   C127 6167   2.488   2.816   6.066  0.9680  0.5324  0.6499
   21MOL   C128 6168   2.512   2.825   6.219 -0.0304  0.0648  0.1808
   21MOL   H129 6169   2.131   3.214   6.080 -1.7638 -0.2751  1.9095
   21MOL   H130 6170   2.280   3.155   6.161 -1.9839 -0.3929  2.0909
   21MOL   H131 6171   2.203   3.025   5.912  0.5905  0.3900 -0.1931
   21MOL   H132 6172   2.469   2.712   6.039  0.8044  0.4012  1.2791
   21MOL   H133 6173   2.580   2.832   6.010 -0.8351  0.5626 -2.4523
   21MOL   H134 6174   2.603   2.770   6.243  0.3726  0.3344 -0.6734
   21MOL   H135 6175   2.424   2.808   6.281  0.0337  1.2027  0.5876
   21MOL   H136 6176   2.536   2.929   6.239  0.7143 -0.3012  1.2058
   21MOL   C137 6177   2.290   3.205   5.867 -0.0333  0.5655 -1.0788
   21MOL   C138 6178   2.361   3.340   5.903 -0.5791  0.2019  0.0575
   21MOL   C139 6179   2.283   3.445   5.983  0.7487  0.8735  0.7028
   21MOL   O140 6180   2.164   3.471   5.949 -0.1535  0.1016  0.0909
   21MOL   O141 6181   2.359   3.517   6.068  0.3789 -0.0585  0.1978
   21MOL   C142 6182   2.302   3.640   6.119 -0.4001 -0.2493 -0.6511
   21MOL   C143 6183   2.329   3.757   6.020 -0.9395  0.0874 -0.1347
   21MOL   H144 6184   2.341   3.147   5.790 -0.0622 -0.8725 -0.0421
   21MOL   H145 6185   2.192   3.223   5.824 -0.4257  2.4686  0.5319
   21MOL   H146 6186   2.433   3.309   5.979  0.3353  2.9551  0.3895
   21MOL   H147 6187   2.195   3.635   6.143 -0.1644  3.1787  1.5693
   21MOL   H148 6188   2.355   3.667   6.210  0.0550  1.2610 -1.3578
   21MOL   H149 6189   2.435   3.764   5.998 -1.1365 -0.8668 -1.4014
   21MOL   H150 6190   2.305   3.856   6.061 -0.1687  0.0498  0.4227
   21MOL   H151 6191   2.270   3.744   5.929 -1.3181  0.0506  0.1180
   21MOL   C152 6192   2.441   3.411   5.789 -0.5976  0.9636  0.3781
   21MOL   C153 6193   2.585   3.352   5.764 -0.3088 -0.3893 -0.3004
   21MOL   C154 6194   2.681   3.399   5.873 -0.2355  0.4883 -0.1132
   21MOL   O155 6195   2.678   3.513   5.921  0.0694 -0.7196 -0.0875
   21MOL   O156 6196   2.770   3.302   5.911 -0.4667  0.2835 -0.1546
   21MOL   C157 6197   2.890   3.329   5.981  0.5154  0.2979  0.1627
   21MOL   C158 6198   2.961   3.195   6.019 -0.9241  0.6069 -0.5411
   21MOL   H159 6199   2.381   3.405   5.699  0.7302 -2.2219 -0.3933
   21MOL   H160 6200   2.445   3.518   5.810 -0.9528  1.5958 -2.5617
   21MOL   H161 6201   2.585   3.243   5.759 -1.7934 -0.3040 -3.0733
   21MOL   H162 6202   2.961   3.389   5.923 -0.4655  2.3361  1.0336
   21MOL   H163 6203   2.873   3.389   6.070  1.5718 -2.5663  2.3658
   21MOL   H164 6204   2.915   3.140   6.101 -0.7457 -0.1948 -0.9771
   21MOL   H165 6205   3.059   3.222   6.056 -0.8595 -1.1755  0.6591
   21MOL   H166 6206   2.972   3.131   5.932  0.2323 -2.7028  1.9313
   21MOL   C167 6207   2.649   3.402   5.636  0.8644  0.1485 -0.2943
   21MOL   C168 6208   2.581   3.347   5.505  0.1647 -0.5178  0.1292
   21MOL   C169 6209   2.634   3.202   5.477  0.1172 -0.2006 -0.0778
   21MOL   O170 6210   2.558   3.108   5.483 -0.4241 -0.0893  0.4222
   21MOL   O171 6211   2.765   3.200   5.433 -0.3506 -0.0249  0.4023
   21MOL   C172 6212   2.816   3.068   5.388 -0.0615 -0.4149 -0.0286
   21MOL   C173 6213   2.829   3.078   5.238 -0.4222 -0.3711  0.9138
   21MOL   H174 6214   2.640   3.510   5.643 -0.9539  0.0225 -0.4191
   21MOL   H175 6215   2.756   3.380   5.637  0.7551 -0.3661  1.1793
   21MOL   H176 6216   2.474   3.330   5.513  0.1689 -1.4837 -1.6177
   21MOL   H177 6217   2.914   3.051   5.433 -0.6565 -0.5429  1.2505
   21MOL   H178 6218   2.755   2.984   5.422 -1.5367  0.7533  0.3149
   21MOL   H179 6219   2.733   3.101   5.193  0.0874 -2.3000 -1.2419
   21MOL   H180 6220   2.846   2.975   5.206 -1.7394 -0.6584  1.1067
   21MOL   H181 6221   2.897   3.154   5.199  2.7585 -3.1021  0.9123
   21MOL   C182 6222   2.596   3.444   5.384 -0.1182 -0.4441  0.0057
   21MOL   C183 6223   2.488   3.456   5.281  0.0618  0.2351 -0.5132
   21MOL   C184 6224   2.421   3.328   5.230 -0.0467 -0.5322 -0.2623
   21MOL   O185 6225   2.479   3.251   5.153  0.0253 -0.1711 -0.0523
   21MOL   O186 6226   2.307   3.305   5.298  0.1259  0.2740 -0.1367
   21MOL   C187 6227   2.237   3.185   5.286 -0.0955  0.1534  0.3725
   21MOL   C188 6228   2.091   3.214   5.252  0.0204  0.5881 -0.9475
   21MOL   H189 6229   2.622   3.542   5.424  1.2171 -0.8800  0.2175
   21MOL   H190 6230   2.681   3.424   5.319 -0.1355  2.6671 -1.0852
   21MOL   H191 6231   2.399   3.500   5.325 -0.3254 -1.9026  0.9113
   21MOL   H192 6232   2.281   3.099   5.236  2.0895  1.8143 -0.6631
   21MOL   H193 6233   2.226   3.158   5.391  2.0121  2.1254  1.1451
   21MOL   H194 6234   2.042   3.273   5.329  0.1665 -0.9263  0.3336
   21MOL   H195 6235   2.027   3.125   5.252  1.5403 -0.5274 -0.2145
   21MOL   H196 6236   2.084   3.269   5.158  0.2166  0.7126 -0.8892
   21MOL   C197 6237   2.520   3.545   5.160 -0.2404  0.0558  0.4943
   21MOL   C198 6238   2.555   3.702   5.192 -0.1758  0.4801  0.5814
   21MOL   C199 6239   2.441   3.769   5.275  0.3935  0.0960 -0.8959
   21MOL   O200 6240   2.334   3.784   5.225  0.2241 -0.5586 -0.4775
   21MOL   O201 6241   2.476   3.794   5.402 -0.3174 -0.4863  0.2867
   21MOL   C202 6242   2.379   3.810   5.510  0.2590  0.9416  0.3082
   21MOL   C203 6243   2.453   3.787   5.643 -0.1333  0.4157  0.5969
   21MOL   H204 6244   2.595   3.500   5.095 -0.6310  0.0974  0.0091
   21MOL   H205 6245   2.436   3.538   5.090 -0.2015  1.8379  0.2594
   21MOL   H206 6246   2.644   3.705   5.254 -0.6359  1.7724  1.1979
   21MOL   H207 6247   2.338   3.911   5.505  0.2838  0.8816 -1.2443
   21MOL   H208 6248   2.303   3.732   5.506  2.9986 -1.7915 -1.0733
   21MOL   H209 6249   2.388   3.753   5.724 -0.4208  0.4084  0.3658
   21MOL   H210 6250   2.512   3.872   5.676 -1.9996  1.5414  1.1639
   21MOL   H211 6251   2.523   3.704   5.630 -1.2697 -0.5161  0.2860
   21MOL   C212 6252   2.583   3.782   5.067  0.1705 -0.4415  0.0489
   21MOL   C213 6253   2.624   3.929   5.078 -0.6419 -0.1114  0.1738
   21MOL   C214 6254   2.613   3.992   4.937  0.8318  0.1918  0.0253
   21MOL   O215 6255   2.515   4.059   4.906 -0.0526 -0.3042  0.2004
   21MOL   O216 6256   2.715   3.976   4.858  0.4617 -0.4603 -0.4389
   21MOL   C217 6257   2.734   4.026   4.722  0.3921  0.3189  1.0165
   21MOL   C218 6258   2.865   3.954   4.670  0.1545 -0.0298 -0.2074
   21MOL   H219 6259   2.656   3.731   5.004 -0.7920 -0.6842 -0.8963
   21MOL   H220 6260   2.494   3.781   5.003  1.0587  0.8059 -1.2500
   21MOL   H221 6261   2.546   3.984   5.131 -0.0385  0.3645  0.5690
   21MOL   H222 6262   2.644   4.006   4.662  1.8517  2.0076 -1.8469
   21MOL   H223 6263   2.750   4.133   4.731  1.5971  0.2771 -0.4559
   21MOL   H224 6264   2.948   3.978   4.735  1.3012  0.0930 -1.6802
   21MOL   H225 6265   2.887   3.984   4.567  1.4020  0.4435  0.1936
   21MOL   H226 6266   2.845   3.847   4.659  1.5737 -0.4188  0.9613
   21MOL   C227 6267   2.765   3.949   5.143 -0.6260  0.4924 -0.2043
   21MOL   C228 6268   2.761   3.964   5.292 -0.2121 -0.4334  0.0727
   21MOL   C229 6269   2.678   4.087   5.342  0.2018  0.2137 -0.6704
   21MOL   O230 6270   2.653   4.173   5.267  0.3576  0.4841 -0.4603
   21MOL   O231 6271   2.651   4.080   5.466 -0.2691  0.0470 -0.1858
   21MOL   C232 6272   2.578   4.186   5.530 -0.1841  0.2889 -0.3790
   21MOL   C233 6273   2.660   4.203   5.662  0.0169 -0.4359 -0.4065
   21MOL   H234 6274   2.826   3.862   5.119  1.0710  1.2362  1.2370
   21MOL   H235 6275   2.817   4.034   5.099 -1.1023  1.7295  1.5963
   21MOL   H236 6276   2.709   3.877   5.334 -0.3287  0.9175  2.8362
   21MOL   H237 6277   2.580   4.286   5.487  0.9477  0.1953 -0.5477
   21MOL   H238 6278   2.478   4.155   5.561 -0.3819  1.0005 -0.2963
   21MOL   H239 6279   2.644   4.118   5.728 -2.3485  1.6729  1.8832
   21MOL   H240 6280   2.636   4.301   5.704 -1.3878 -0.2765 -1.5495
   21MOL   H241 6281   2.767   4.194   5.643  0.2269 -1.3564  1.0636
   21MOL   C242 6282   2.908   3.967   5.356  0.4214 -0.5739  0.3364
   21MOL   C243 6283   2.973   3.830   5.373 -0.8019 -0.0471  0.4354
   21MOL   C244 6284   2.902   3.757   5.489 -0.0275 -0.0218  0.5125
   21MOL   O245 6285   2.857   3.643   5.476  0.4597 -0.2179 -0.4161
   21MOL   O246 6286   2.900   3.834   5.605 -0.4222 -0.4525 -0.3640
   21MOL   C247 6287   2.848   3.772   5.721  0.1338 -1.0220  0.0876
   21MOL   C248 6288   2.855   3.875   5.834  0.3336  0.2414 -0.4342
   21MOL   H249 6289   2.977   4.030   5.300  1.8772 -0.9694  1.6666
   21MOL   H250 6290   2.897   4.021   5.450  0.2457  0.0280 -0.0260
   21MOL   H251 6291   2.950   3.765   5.289 -0.6676  1.2197 -0.6051
   21MOL   H252 6292   2.746   3.741   5.697  1.1143 -2.6455 -2.2197
   21MOL   H253 6293   2.907   3.688   5.758 -0.0822 -0.6460  1.2876
   21MOL   H254 6294   2.955   3.915   5.854 -0.4108  0.7166  2.4657
   21MOL   H255 6295   2.818   3.835   5.928  0.2219  0.5156 -0.3612
   21MOL   H256 6296   2.799   3.961   5.798 -1.4002 -1.0391 -0.8464
   21MOL   C257 6297   3.128   3.848   5.396  0.3519 -0.1660  0.2458
   21MOL   C258 6298   3.239   3.743   5.374  0.2804 -0.2136 -0.0927
   21MOL   C259 6299   3.246   3.652   5.496  0.5543  0.0309 -0.4133
   21MOL   O260 6300   3.292   3.679   5.606  0.1351 -0.2709  0.1688
   21MOL   O261 6301   3.186   3.528   5.467 -0.0056  0.2731  0.1914
   21MOL   C262 6302   3.186   3.426   5.562  0.3937 -0.5219 -0.6750
   21MOL   C263 6303   3.050   3.413   5.624 -0.2206  0.7779 -0.1589
   21MOL   H264 6304   3.160   3.933   5.335  0.8426 -1.3714 -1.2000
   21MOL   H265 6305   3.144   3.888   5.496  0.2645 -1.2407  0.6988
   21MOL   H266 6306   3.218   3.676   5.291  1.4945  0.3935 -0.9078
   21MOL   H267 6307   3.225   3.340   5.507  1.3340 -0.8213  0.4592
   21MOL   H268 6308   3.261   3.441   5.639 -0.6726 -0.2348  0.3124
   21MOL   H269 6309   2.975   3.401   5.546  1.3549 -1.4678 -1.3710
   21MOL   H270 6310   3.017   3.506   5.670 -5.8843 -0.3992 -1.5053
   21MOL   H271 6311   3.056   3.328   5.692  1.3880  2.1358  1.4651
   21MOL   C272 6312   3.390   3.795   5.357  0.4109 -0.5303 -0.4910
   21MOL   C273 6313   3.513   3.695   5.353  0.3694  0.2446  0.4034
   21MOL   C274 6314   3.642   3.780   5.368 -0.6677 -0.1172 -0.5052
   21MOL   O275 6315   3.689   3.798   5.477  0.5343 -0.0862  0.4903
   21MOL   O276 6316   3.695   3.836   5.257 -0.0743  0.2027 -0.2306
   21MOL   C277 6317   3.808   3.924   5.276  0.2376 -0.3410  0.4297
   21MOL   C278 6318   3.834   4.005   5.148  0.8754  0.4102  0.5110
   21MOL   H279 6319   3.389   3.850   5.262  2.1735  0.3087 -0.0512
   21MOL   H280 6320   3.397   3.870   5.436  0.6765 -0.8943 -0.1683
   21MOL   H281 6321   3.515   3.636   5.444  4.0638 -1.0829 -0.4415
   21MOL   H282 6322   3.787   3.984   5.365  0.6515  0.1489  0.1954
   21MOL   H283 6323   3.901   3.871   5.298  0.1787 -2.6626 -4.2527
   21MOL   H284 6324   3.801   3.943   5.065 -1.0254  1.4069  0.5080
   21MOL   H285 6325   3.935   4.048   5.145  1.6455 -0.9844  3.8578
   21MOL   H286 6326   3.768   4.091   5.134  0.6860  0.5281  2.0491
   21MOL   C287 6327   3.521   3.589   5.244  0.6058  0.1373  0.0565
   21MOL   C288 6328   3.633   3.488   5.260  0.3087  0.1741 -0.2842
   21MOL   C289 6329   3.589   3.356   5.331 -0.8912  0.3401 -0.3556
   21MOL   O290 6330   3.511   3.354   5.431  0.4244 -0.0794 -0.1303
   21MOL   O291 6331   3.647   3.248   5.281  0.0086  0.2207 -0.4894
   21MOL   C292 6332   3.648   3.119   5.353  0.1971  0.0637 -0.2650
   21MOL   C293 6333   3.520   3.048   5.384  0.7293  0.0403 -0.7601
   21MOL   H294 6334   3.428   3.532   5.248  0.8394 -0.2212  0.4753
   21MOL   H295 6335   3.538   3.632   5.146  0.5446  0.6064  0.2506
   21MOL   H296 6336   3.667   3.447   5.165  0.2286 -2.1009  0.6495
   21MOL   H297 6337   3.711   3.044   5.306  0.2582  0.1781 -0.3677
   21MOL   H298 6338   3.701   3.137   5.447  2.1049 -0.6767 -1.1794
   21MOL   H299 6339   3.532   2.972   5.460  0.2686  0.3565 -0.3704
   21MOL   H300 6340   3.499   2.992   5.293 -2.2602 -1.8137  1.0105
   21MOL   H301 6341   3.428   3.104   5.401  0.6307  0.2306 -1.8451
   21MOL   H302 6342   3.722   3.529   5.309  1.2875 -0.5821 -1.4193
   22MOL     C1 6343   6.822   0.670   3.009 -0.2425  0.3151  0.0570
   22MOL     C2 6344   6.970   0.701   2.959 -0.1549  0.2400  0.5133
   22MOL     C3 6345   7.016   0.838   3.019  0.1915  0.1679  0.5745
   22MOL     O4 6346   6.984   0.938   2.961  0.2345 -0.5150 -0.1822
   22MOL     O5 6347   7.083   0.821   3.132  0.2140  0.9783 -0.6450
   22MOL     C6 6348   7.108   0.935   3.211  0.3503  0.6713 -0.7168
   22MOL     C7 6349   7.246   0.995   3.177  0.3848 -0.3274 -0.1839
   22MOL     H8 6350   6.785   0.576   2.968 -0.3432  1.6912 -3.0625
   22MOL     H9 6351   6.748   0.745   2.984 -0.9102 -0.3909 -0.1156
   22MOL    H10 6352   7.037   0.630   3.009 -0.1454 -0.0020  0.1553
   22MOL    H11 6353   7.028   1.008   3.218 -0.0249  0.0884  1.3146
   22MOL    H12 6354   7.112   0.915   3.318 -1.4725 -2.1550 -1.1225
   22MOL    H13 6355   7.268   1.069   3.254 -0.7510 -2.3209  2.1218
   22MOL    H14 6356   7.269   1.024   3.074 -0.3045 -3.4102 -1.2563
   22MOL    H15 6357   7.321   0.920   3.204  1.1673  0.4948 -0.0561
   22MOL    H16 6358   6.818   0.661   3.118 -0.5520  1.5601  0.1459
   22MOL    C17 6359   6.969   0.678   2.804  0.0897  1.0578  0.4788
   22MOL    C18 6360   7.101   0.661   2.740  0.2030  0.1052  0.2708
   22MOL    C19 6361   7.101   0.715   2.593 -0.2106 -0.0076  0.3268
   22MOL    O20 6362   7.004   0.695   2.518 -0.1207  0.6617 -0.2544
   22MOL    O21 6363   7.199   0.804   2.567 -1.2008  0.3006 -0.7531
   22MOL    C22 6364   7.223   0.848   2.432 -0.3173  0.6781  0.3350
   22MOL    C23 6365   7.309   0.975   2.427  0.4582 -0.3231 -0.4848
   22MOL    H24 6366   6.904   0.594   2.780  0.1954  1.2324 -0.4408
   22MOL    H25 6367   6.925   0.769   2.764 -0.6617  0.8792  0.9032
   22MOL    H26 6368   7.172   0.721   2.797  0.2709 -0.6952  1.0431
   22MOL    H27 6369   7.273   0.771   2.373 -0.8919  1.1361 -0.7519
   22MOL    H28 6370   7.129   0.860   2.379 -1.3455 -1.3640  1.6113
   22MOL    H29 6371   7.277   1.042   2.508  1.8795  1.3783 -1.2918
   22MOL    H30 6372   7.304   1.027   2.331  2.7734 -0.0613 -0.4845
   22MOL    H31 6373   7.415   0.955   2.442  0.1206 -0.9179  1.2668
   22MOL    C32 6374   7.164   0.519   2.737 -0.9443 -0.3424  0.4448
   22MOL    C33 6375   7.100   0.418   2.637 -0.6221  0.1210  0.2135
   22MOL    C34 6376   6.963   0.363   2.685  0.0789 -0.2562 -0.4604
   22MOL    O35 6377   6.859   0.354   2.614 -0.5377  0.1309  0.0702
   22MOL    O36 6378   6.966   0.325   2.818  0.1638 -0.1122  0.0189
   22MOL    C37 6379   6.848   0.260   2.867  0.4757  0.3373 -0.3700
   22MOL    C38 6380   6.836   0.244   3.017 -0.1902 -0.4592  0.3063
   22MOL    H39 6381   7.268   0.541   2.717 -1.3366  2.7980  1.5114
   22MOL    H40 6382   7.177   0.480   2.838  1.1704  1.5795  0.9398
   22MOL    H41 6383   7.069   0.470   2.547 -2.5375  1.2568  1.4828
   22MOL    H42 6384   6.760   0.318   2.841 -1.4050 -2.3674 -0.2071
   22MOL    H43 6385   6.842   0.162   2.820  0.8679  1.4028 -2.7437
   22MOL    H44 6386   6.829   0.337   3.074  0.8371 -1.4340  2.0835
   22MOL    H45 6387   6.922   0.187   3.052 -0.4096 -0.0559  1.5570
   22MOL    H46 6388   6.744   0.190   3.040  1.4830 -4.2752 -1.5794
   22MOL    C47 6389   7.194   0.297   2.603 -0.2895  0.0198  0.3244
   22MOL    C48 6390   7.221   0.184   2.701  0.2882 -0.4688 -0.2111
   22MOL    C49 6391   7.299   0.236   2.827 -0.1227  0.2868 -0.2206
   22MOL    O50 6392   7.259   0.201   2.939 -0.4351 -0.6718  0.4457
   22MOL    O51 6393   7.408   0.309   2.803  0.4059 -0.4084  0.0097
   22MOL    C52 6394   7.503   0.328   2.908 -0.2048  0.7919  0.0376
   22MOL    C53 6395   7.595   0.452   2.890  0.2745  0.5050  0.0504
   22MOL    H54 6396   7.151   0.244   2.518 -0.8755  0.5213  0.3014
   22MOL    H55 6397   7.291   0.333   2.568 -0.2162 -2.6431 -2.3610
   22MOL    H56 6398   7.124   0.141   2.725  0.4180 -0.3293  0.5819
   22MOL    H57 6399   7.443   0.345   2.998  1.5153  1.5057  1.0644
   22MOL    H58 6400   7.566   0.240   2.916  0.5152  1.1504 -1.5094
   22MOL    H59 6401   7.686   0.463   2.949  2.6783 -0.9019 -3.2858
   22MOL    H60 6402   7.533   0.542   2.895  0.9513  0.9232  1.0532
   22MOL    H61 6403   7.636   0.455   2.789 -1.4195 -0.2831 -0.6941
   22MOL    C62 6404   7.293   0.065   2.636  0.5150  0.6705 -0.8495
   22MOL    C63 6405   7.271   7.843   2.716 -0.3220 -0.0722 -0.5066
   22MOL    C64 6406   7.374   7.736   2.674  0.0628 -0.0974  0.2422
   22MOL    O65 6407   7.476   7.710   2.730 -0.7103 -0.2419 -0.5236
   22MOL    O66 6408   7.334   7.672   2.569  0.0885 -0.8822 -0.5788
   22MOL    C67 6409   7.406   7.574   2.506  0.5659  0.2758  0.4705
   22MOL    C68 6410   7.386   7.435   2.571 -0.1426 -0.4406  0.4299
   22MOL    H69 6411   7.250   0.043   2.538 -0.1243  1.1578 -0.6746
   22MOL    H70 6412   7.395   0.094   2.609  1.1645  0.8629  1.6927
   22MOL    H71 6413   7.305   7.878   2.813  2.7686 -0.3921 -1.4009
   22MOL    H72 6414   7.379   7.579   2.400  1.0024  1.1853  0.3994
   22MOL    H73 6415   7.512   7.595   2.497  0.8346 -0.8441  0.9287
   22MOL    H74 6416   7.434   7.349   2.524  0.2400  0.1468 -0.2604
   22MOL    H75 6417   7.281   7.415   2.548  0.0461 -1.5008  0.4814
   22MOL    H76 6418   7.419   7.426   2.675  1.6910  0.1862 -0.0723
   22MOL    C77 6419   7.123   7.777   2.708 -0.3744 -0.8104 -0.0661
   22MOL    C78 6420   7.105   7.647   2.799 -0.4976  0.1524 -0.5008
   22MOL    C79 6421   6.966   7.588   2.773 -0.9506  0.3265 -0.2118
   22MOL    O80 6422   6.865   7.645   2.733 -0.1687 -0.6046 -0.4833
   22MOL    O81 6423   6.963   7.457   2.785 -0.7888 -0.4240  0.2745
   22MOL    C82 6424   6.849   7.378   2.746 -0.0621 -0.5084  0.7990
   22MOL    C83 6425   6.903   7.289   2.638 -0.0037 -0.3950 -0.0971
   22MOL    H84 6426   7.059   7.852   2.753  0.2992 -0.0616 -0.3464
   22MOL    H85 6427   7.079   7.768   2.608 -1.5157 -0.7131  0.4246
   22MOL    H86 6428   7.183   7.573   2.782 -0.2802 -0.0109  1.1799
   22MOL    H87 6429   6.827   7.309   2.827  0.7549 -0.5164  1.0159
   22MOL    H88 6430   6.762   7.437   2.719  0.7460  0.3684  0.0595
   22MOL    H89 6431   6.816   7.229   2.610 -1.8989  1.9402  0.6316
   22MOL    H90 6432   6.977   7.221   2.679  0.7898 -0.0089 -0.8791
   22MOL    H91 6433   6.937   7.339   2.547  1.5592 -0.5294  0.4149
   22MOL    C92 6434   7.119   7.687   2.953 -0.2286 -0.3132  0.1530
   22MOL    C93 6435   7.260   7.654   3.013  0.1818 -0.0543 -0.7575
   22MOL    C94 6436   7.297   7.503   3.019 -0.4404  0.5438  0.5305
   22MOL    O95 6437   7.405   7.460   3.058 -0.3752 -0.1960 -0.5188
   22MOL    O96 6438   7.196   7.428   2.984  0.2509 -0.2047  0.2008
   22MOL    C97 6439   7.204   7.285   2.993  1.0780 -0.3378 -0.1597
   22MOL    C98 6440   7.277   7.243   2.871  0.2602  0.0603 -0.5308
   22MOL    H99 6441   7.098   7.794   2.953  0.6806 -0.1147  2.1129
   22MOL   H100 6442   7.030   7.645   3.001 -1.1152 -0.4596 -1.5587
   22MOL   H101 6443   7.343   7.684   2.950 -0.1363 -0.5585 -1.4281
   22MOL   H102 6444   7.250   7.246   3.085 -1.1816 -0.6042  0.8791
   22MOL   H103 6445   7.102   7.248   2.999  0.5354  1.2983  1.2466
   22MOL   H104 6446   7.383   7.268   2.878  0.4831 -1.0498  0.2107
   22MOL   H105 6447   7.249   7.289   2.776  1.0987 -0.4394 -1.0337
   22MOL   H106 6448   7.272   7.134   2.862  1.9965 -0.2358  1.5949
   22MOL   C107 6449   7.286   7.732   3.146  0.1295  0.3597 -1.3341
   22MOL   C108 6450   7.200   7.681   3.271  0.0051 -0.5898 -0.0395
   22MOL   C109 6451   7.068   7.755   3.278  0.3526 -0.1007  0.3980
   22MOL   O110 6452   6.962   7.698   3.272  1.1347 -0.2003 -0.1859
   22MOL   O111 6453   7.075   7.889   3.301  0.1766  0.3736  0.6335
   22MOL   C112 6454   6.956   0.063   3.307 -0.2597 -0.6819 -0.6364
   22MOL   C113 6455   6.890   0.059   3.437 -0.7145  0.3115  0.6261
   22MOL   H114 6456   7.393   7.724   3.164 -0.1691  2.1047  1.5856
   22MOL   H115 6457   7.277   7.837   3.120 -0.0136  0.1845 -2.0138
   22MOL   H116 6458   7.179   7.576   3.254 -0.4267 -0.2676 -1.6232
   22MOL   H117 6459   6.990   0.166   3.295  0.6064 -1.1600 -2.5663
   22MOL   H118 6460   6.885   0.036   3.229 -0.4047 -0.0744 -0.7169
   22MOL   H119 6461   6.803   0.124   3.433 -1.1852 -0.4376 -2.3597
   22MOL   H120 6462   6.965   0.088   3.510 -0.8525 -0.5757  1.1260
   22MOL   H121 6463   6.866   7.867   3.474  0.9070 -0.4696 -0.3730
   22MOL   C122 6464   7.277   7.697   3.406 -0.0010  0.3451 -0.4783
   22MOL   C123 6465   7.239   7.596   3.516 -0.0719 -0.4690 -0.4779
   22MOL   C124 6466   7.249   7.658   3.656  0.5421 -0.1869 -0.5681
   22MOL   O125 6467   7.152   7.652   3.731  0.2406 -0.3917 -0.4426
   22MOL   O126 6468   7.373   7.702   3.681  0.3696  0.4111  0.3368
   22MOL   C127 6469   7.418   7.723   3.818  0.1556  0.1412 -0.5584
   22MOL   C128 6470   7.533   7.831   3.831 -0.2032  0.8346 -0.2256
   22MOL   H129 6471   7.386   7.687   3.406 -0.2317 -2.8532 -0.3391
   22MOL   H130 6472   7.260   7.797   3.446  0.1421  0.1546  0.0606
   22MOL   H131 6473   7.136   7.563   3.501 -0.0078 -0.6404 -0.5352
   22MOL   H132 6474   7.337   7.736   3.891  1.3377 -1.1553  1.0182
   22MOL   H133 6475   7.457   7.627   3.853 -1.6437 -0.0909  0.9211
   22MOL   H134 6476   7.493   0.019   3.802 -0.7641  0.4590 -0.7081
   22MOL   H135 6477   7.613   7.816   3.759 -1.8837 -3.9515 -1.2702
   22MOL   H136 6478   7.588   7.830   3.926 -1.2688 -2.0000  0.4172
   22MOL   C137 6479   7.318   7.467   3.521 -0.1272 -0.1547  0.6366
   22MOL   C138 6480   7.293   7.369   3.409  0.4265 -0.1048  0.8598
   22MOL   C139 6481   7.166   7.298   3.427 -0.3244 -0.1585 -0.7572
   22MOL   O140 6482   7.112   7.291   3.532 -0.0289 -0.0619 -0.7238
   22MOL   O141 6483   7.120   7.249   3.313 -0.8953  0.1715 -0.2372
   22MOL   C142 6484   6.996   7.180   3.305 -0.1258 -0.8648 -0.1303
   22MOL   C143 6485   7.017   7.036   3.315 -0.1358 -0.2508 -0.0816
   22MOL   H144 6486   7.421   7.500   3.519  0.5193 -2.1541 -0.3908
   22MOL   H145 6487   7.307   7.418   3.618  0.8762  1.7262  1.7295
   22MOL   H146 6488   7.282   7.421   3.314  0.7822  1.7919  1.8406
   22MOL   H147 6489   6.921   7.226   3.369 -0.6842  1.0597 -2.1097
   22MOL   H148 6490   6.952   7.203   3.208 -0.7149  1.6769  0.6886
   22MOL   H149 6491   7.089   7.011   3.237  1.0825  3.0462 -0.0816
   22MOL   H150 6492   6.929   6.979   3.287 -0.9074 -0.0909  1.9562
   22MOL   H151 6493   7.053   6.997   3.410 -1.6734  0.7477  0.9178
   22MOL   C152 6494   7.416   7.272   3.376  0.2307 -0.3264  0.7782
   22MOL   C153 6495   7.434   7.149   3.462  0.3592 -0.7423  0.3919
   22MOL   C154 6496   7.447   7.188   3.609  0.8376  0.9415  0.1556
   22MOL   O155 6497   7.367   7.151   3.697 -0.3207  0.7504  0.8265
   22MOL   O156 6498   7.555   7.255   3.628 -0.6791  0.7695  0.0573
   22MOL   C157 6499   7.591   7.296   3.756 -0.0010 -0.5150 -0.4749
   22MOL   C158 6500   7.632   7.442   3.747 -0.5561 -0.6319 -0.0274
   22MOL   H159 6501   7.385   7.237   3.278  2.2169 -0.0430  0.0271
   22MOL   H160 6502   7.504   7.334   3.357  0.3404 -0.1184  1.9043
   22MOL   H161 6503   7.339   7.097   3.457 -0.7605  1.4224 -1.7026
   22MOL   H162 6504   7.516   7.287   3.835 -0.2624  1.8617 -0.4122
   22MOL   H163 6505   7.676   7.240   3.794  1.6036  1.3776 -1.1206
   22MOL   H164 6506   7.556   7.500   3.694 -1.4737 -0.4868  1.4207
   22MOL   H165 6507   7.726   7.453   3.693 -0.8305 -1.3461 -0.6591
   22MOL   H166 6508   7.640   7.472   3.851  1.0165 -1.7390  0.1824
   22MOL   C167 6509   7.556   7.066   3.407 -0.0422  0.3033 -0.3941
   22MOL   C168 6510   7.538   6.913   3.388 -0.1990  0.0558 -0.7183
   22MOL   C169 6511   7.445   6.858   3.282  0.6129 -0.4651 -1.2539
   22MOL   O170 6512   7.361   6.925   3.226 -0.4361 -0.4849 -0.2593
   22MOL   O171 6513   7.470   6.738   3.248  0.5123 -0.2626  0.5736
   22MOL   C172 6514   7.404   6.675   3.132 -0.1908  0.0442 -0.2599
   22MOL   C173 6515   7.467   6.700   2.997 -0.3027 -0.1956 -0.2534
   22MOL   H174 6516   7.573   7.100   3.304  0.3854  0.3086 -0.3225
   22MOL   H175 6517   7.638   7.081   3.477 -2.8121  2.4424  2.5315
   22MOL   H176 6518   7.634   6.881   3.346 -2.3851 -2.1440 -4.2369
   22MOL   H177 6519   7.410   6.567   3.145 -2.6293 -0.3720 -2.2212
   22MOL   H178 6520   7.297   6.693   3.122  0.1532  2.6103  0.2747
   22MOL   H179 6521   7.409   6.655   2.917  0.4971  0.5436 -1.2645
   22MOL   H180 6522   7.569   6.662   3.009  0.3892  2.0891  1.7799
   22MOL   H181 6523   7.481   6.806   2.976 -1.0594 -0.2550 -1.0938
   22MOL   C182 6524   7.531   6.844   3.530  0.3128 -0.7018  0.3760
   22MOL   C183 6525   7.663   6.779   3.584  1.0037  0.5287 -0.5138
   22MOL   C184 6526   7.630   6.676   3.695 -0.9557  0.3267  0.1833
   22MOL   O185 6527   7.553   6.685   3.793 -0.2491  0.0741  0.1115
   22MOL   O186 6528   7.722   6.577   3.681 -0.5859  0.4379 -0.4886
   22MOL   C187 6529   7.716   6.463   3.777  0.6460 -0.5097 -0.4197
   22MOL   C188 6530   7.759   6.336   3.714  0.1311 -0.3539 -0.4072
   22MOL   H189 6531   7.481   6.903   3.606  0.0890  0.1208 -0.4059
   22MOL   H190 6532   7.457   6.764   3.523  0.0336 -0.4365  0.3009
   22MOL   H191 6533   7.695   6.719   3.500 -2.4032  0.3485 -1.7444
   22MOL   H192 6534   7.783   6.484   3.861 -0.3944 -0.4582  0.4122
   22MOL   H193 6535   7.615   6.451   3.814  0.8058 -0.0428  0.1823
   22MOL   H194 6536   7.693   6.308   3.632 -1.4944  1.2958  0.2945
   22MOL   H195 6537   7.771   6.258   3.789  0.0246 -1.4477 -1.5186
   22MOL   H196 6538   7.857   6.363   3.676 -0.7314 -0.5946 -2.9190
   22MOL   C197 6539   7.770   6.880   3.637  0.0731 -0.2113  0.1853
   22MOL   C198 6540   7.892   6.909   3.561  0.4381 -0.3998  0.5513
   22MOL   C199 6541   0.065   6.788   3.523  0.4206  0.3757  0.8726
   22MOL   O200 6542   0.109   6.768   3.408 -0.2096 -0.1259  0.2756
   22MOL   O201 6543   0.081   6.708   3.627 -0.1773 -0.1423  0.0793
   22MOL   C202 6544   0.160   6.590   3.616  0.0330 -0.4932 -0.4921
   22MOL   C203 6545   0.176   6.537   3.753 -0.0372  0.0697  0.2110
   22MOL   H204 6546   7.722   6.977   3.645  1.4043  0.4519  0.3490
   22MOL   H205 6547   7.794   6.859   3.742  0.3524 -1.2155 -0.0755
   22MOL   H206 6548   7.857   6.938   3.462 -0.7757  1.1707  1.4218
   22MOL   H207 6549   0.104   6.517   3.557  0.4138  0.1899 -1.7148
   22MOL   H208 6550   0.251   6.607   3.558 -0.6284  1.0572 -1.0986
   22MOL   H209 6551   0.084   6.482   3.771  0.3289 -0.9271 -0.9291
   22MOL   H210 6552   0.181   6.610   3.834  1.6355 -0.7805  0.9103
   22MOL   H211 6553   0.253   6.461   3.770 -0.4965 -0.2345  0.9596
   22MOL   C212 6554   0.071   7.016   3.621  0.0596 -1.1836 -0.4167
   22MOL   C213 6555   0.010   7.162   3.608 -0.2023  0.0416 -0.0195
   22MOL   C214 6556   7.890   7.209   3.465  0.3696  0.0283 -0.2000
   22MOL   O215 6557   0.035   7.159   3.366 -0.2376 -0.2286 -0.2581
   22MOL   O216 6558   7.818   7.326   3.457 -0.1560  0.8583  0.2186
   22MOL   C217 6559   7.810   7.397   3.334  0.3540  0.1780  0.3082
   22MOL   C218 6560   0.011   7.507   3.332 -0.1410 -0.0018 -0.6417
   22MOL   H219 6561   0.093   6.979   3.721 -0.3908  0.6162  0.3671
   22MOL   H220 6562   0.171   7.020   3.578  0.1261  0.2180 -0.1676
   22MOL   H221 6563   7.819   7.168   3.654 -0.5411 -1.6434 -0.4977
   22MOL   H222 6564   7.821   7.324   3.253  1.8461  1.7288 -0.9386
   22MOL   H223 6565   7.716   7.452   3.332  2.0828  3.3487  2.0959
   22MOL   H224 6566   7.901   7.591   3.398  3.0631  1.7548 -1.8238
   22MOL   H225 6567   0.027   7.553   3.234  2.6744  1.1408  0.3005
   22MOL   H226 6568   0.106   7.460   3.356 -0.4359  0.5811  1.7529
   22MOL   C227 6569   0.106   7.275   3.662 -0.0729  0.4171 -0.4729
   22MOL   C228 6570   0.162   7.246   3.806  0.0169  0.3051  0.4641
   22MOL   C229 6571   0.052   7.233   3.906 -1.0207  0.0576 -0.5844
   22MOL   O230 6572   7.882   7.320   3.931  0.3973  0.3619  0.5265
   22MOL   O231 6573   0.050   7.110   3.963  0.7601  0.1472 -0.1685
   22MOL   C232 6574   7.851   7.078   4.056 -0.2841  0.0397  0.0838
   22MOL   C233 6575   7.757   6.991   3.986 -0.3791 -0.2514 -0.1331
   22MOL   H234 6576   0.191   7.278   3.593 -0.7826  0.6380 -1.3545
   22MOL   H235 6577   0.063   7.374   3.645  0.4945  0.6530 -0.5401
   22MOL   H236 6578   0.222   7.156   3.796 -1.2076 -0.3919 -0.7486
   22MOL   H237 6579   7.897   7.039   4.146 -1.0596  0.1509  0.5298
   22MOL   H238 6580   7.802   7.167   4.096 -0.9105  0.2461 -1.1175
   22MOL   H239 6581   7.668   6.985   4.049 -1.3553  2.0546 -1.2317
   22MOL   H240 6582   7.806   6.896   3.963  1.5523  0.7597 -0.2886
   22MOL   H241 6583   7.721   7.032   3.891 -1.6296  0.1837  0.5217
   22MOL   C242 6584   0.267   7.358   3.847 -0.6387  0.1277  0.1626
   22MOL   C243 6585   0.338   7.338   3.986 -0.3797  0.3962 -0.0045
   22MOL   C244 6586   0.390   7.474   4.041 -0.2844 -0.4843  1.0516
   22MOL   O245 6587   0.400   7.574   3.968 -0.1291 -0.2344  0.1100
   22MOL   O246 6588   0.420   7.471   4.172 -0.3512 -0.2564 -0.6972
   22MOL   C247 6589   0.438   7.595   4.235  0.6633  0.6462 -0.0920
   22MOL   C248 6590   0.301   7.641   4.309 -0.1348 -0.0535  0.1068
   22MOL   H249 6591   0.335   7.370   3.762 -3.2078 -1.9922 -2.2813
   22MOL   H250 6592   0.210   7.450   3.850 -1.5310 -0.4036 -0.1832
   22MOL   H251 6593   0.264   7.305   4.059  0.4869 -1.5624  0.0197
   22MOL   H252 6594   0.520   7.576   4.304  0.4932  1.7785  0.4345
   22MOL   H253 6595   0.483   7.673   4.173  0.3898 -1.6226 -3.2987
   22MOL   H254 6596   0.257   7.561   4.368  0.5591 -0.3758  0.1897
   22MOL   H255 6597   0.231   7.660   4.228 -0.5358  1.3247  0.7515
   22MOL   H256 6598   0.319   7.730   4.370 -1.3979 -0.8905  1.7462
   22MOL   C257 6599   0.438   7.220   3.984 -0.5387  0.3591 -0.1453
   22MOL   C258 6600   0.400   7.101   4.072 -0.4068 -0.6230  0.4439
   22MOL   C259 6601   0.414   7.125   4.222 -0.5090 -0.0127 -0.0125
   22MOL   O260 6602   0.512   7.190   4.267  0.2439  0.1241  0.4579
   22MOL   O261 6603   0.318   7.073   4.308  0.2260 -0.4864  1.0796
   22MOL   C262 6604   0.336   7.089   4.447  0.3881  0.4189 -0.0389
   22MOL   C263 6605   0.251   6.978   4.513 -0.5939  0.0347  0.1099
   22MOL   H264 6606   0.446   7.190   3.880  0.2604  1.1282 -0.3163
   22MOL   H265 6607   0.532   7.261   4.022 -0.7438 -0.4762  1.3147
   22MOL   H266 6608   0.292   7.093   4.063 -0.2741 -1.2859 -0.5710
   22MOL   H267 6609   0.435   7.074   4.488  0.5007 -1.1145 -0.8700
   22MOL   H268 6610   0.302   7.190   4.473 -1.1022 -0.0099 -0.2564
   22MOL   H269 6611   0.167   6.924   4.471 -1.3643 -0.3437  2.0839
   22MOL   H270 6612   0.222   7.013   4.612 -3.3964 -0.9083 -0.3612
   22MOL   H271 6613   0.319   6.901   4.551 -1.8428  0.0953  2.5309
   22MOL   C272 6614   0.473   6.970   4.028 -0.3840 -0.5332 -0.2486
   22MOL   C273 6615   0.393   6.901   3.919 -0.3124  0.3560  0.5913
   22MOL   C274 6616   0.279   6.826   3.986  0.6224  0.0159 -0.2712
   22MOL   O275 6617   0.165   6.864   3.966  0.0453  0.1830 -0.2120
   22MOL   O276 6618   0.315   6.727   4.066  0.3598  0.2590  0.1191
   22MOL   C277 6619   0.227   6.662   4.156  0.4277 -0.5126 -0.2180
   22MOL   C278 6620   0.298   6.675   4.290  0.2610  0.1647  0.2137
   22MOL   H279 6621   0.574   7.001   3.999 -0.3610  2.7945  2.9949
   22MOL   H280 6622   0.497   6.901   4.109  0.1357 -0.7816 -0.6052
   22MOL   H281 6623   0.341   6.972   3.854 -2.3776 -1.4238  0.2370
   22MOL   H282 6624   0.129   6.711   4.159  0.0648 -1.1205 -1.8263
   22MOL   H283 6625   0.222   6.562   4.114  1.0454  0.2747 -2.1979
   22MOL   H284 6626   0.311   6.776   4.327 -2.9398  0.6571  0.1385
   22MOL   H285 6627   0.403   6.645   4.292  0.3526  0.4472 -0.4242
   22MOL   H286 6628   0.249   6.620   4.371  1.6472  0.0275  0.9706
   22MOL   C287 6629   0.483   6.806   3.827 -0.2806  0.6279 -0.3839
   22MOL   C288 6630   0.454   6.802   3.677 -0.0528  0.1902  0.9453
   22MOL   C289 6631   0.469   6.935   3.605 -0.7646 -0.0692 -0.6231
   22MOL   O290 6632   0.524   7.034   3.658 -0.3206 -0.0657 -0.3188
   22MOL   O291 6633   0.415   6.932   3.491  0.2259 -0.2854  0.3097
   22MOL   C292 6634   0.445   7.028   3.388 -0.0354  0.2609  0.5669
   22MOL   C293 6635   0.359   6.998   3.263 -0.6326  0.4045  0.0806
   22MOL   H294 6636   0.588   6.827   3.849 -0.2933  0.3167 -0.0207
   22MOL   H295 6637   0.473   6.705   3.867  2.2170  0.9509  1.1615
   22MOL   H296 6638   0.507   6.722   3.624  1.6785  1.9718 -0.1051
   22MOL   H297 6639   0.436   7.131   3.423 -1.3944  0.1642  0.5240
   22MOL   H298 6640   0.549   7.015   3.359 -0.2417 -0.0783 -0.0187
   22MOL   H299 6641   0.380   7.052   3.171  1.1318 -2.0131 -0.9897
   22MOL   H300 6642   0.260   7.024   3.301  0.8014  2.9145  2.3068
   22MOL   H301 6643   0.363   6.895   3.227  2.2972  0.2323  0.7529
   22MOL   H302 6644   0.348   6.783   3.659 -0.0058  1.1521 -0.5262
   23MOL     C1 6645   5.532   1.842   6.497  0.0925 -0.1219  0.2197
   23MOL     C2 6646   5.577   1.893   6.636 -0.1700  0.0900 -0.3795
   23MOL     C3 6647   5.529   2.036   6.659  0.0812 -0.2067 -0.1280
   23MOL     O4 6648   5.424   2.049   6.726  0.0739 -0.0319  0.2125
   23MOL     O5 6649   5.587   2.137   6.598  0.1544  0.1100  0.1599
   23MOL     C6 6650   5.546   2.275   6.618  0.4040  0.2546  0.9700
   23MOL     C7 6651   5.657   2.375   6.624 -0.4437  0.3884 -0.2048
   23MOL     H8 6652   5.434   1.879   6.465  0.3897 -0.4691 -1.1237
   23MOL     H9 6653   5.522   1.734   6.498  3.4949 -0.5105 -1.0981
   23MOL    H10 6654   5.523   1.834   6.710  1.2475 -1.4921 -0.5887
   23MOL    H11 6655   5.465   2.296   6.549  1.7345  0.8413 -0.4360
   23MOL    H12 6656   5.490   2.290   6.711  0.1211  1.8002  0.5657
   23MOL    H13 6657   5.631   2.469   6.674 -0.3786  1.0724 -1.4288
   23MOL    H14 6658   5.685   2.395   6.521  1.4577  0.0587  0.2272
   23MOL    H15 6659   5.745   2.339   6.677 -1.7197 -1.8781  0.4031
   23MOL    H16 6660   5.592   1.856   6.407  2.5585 -0.0226  1.8190
   23MOL    C17 6661   5.729   1.873   6.668  0.2165 -0.0676 -0.5796
   23MOL    C18 6662   5.788   1.737   6.632  0.3686  0.3085 -0.4105
   23MOL    C19 6663   5.735   1.618   6.715 -0.0334 -0.5748  0.4762
   23MOL    O20 6664   5.684   1.522   6.664 -0.9640  0.2425  0.1921
   23MOL    O21 6665   5.764   1.624   6.852  0.2054  0.3261 -0.1765
   23MOL    C22 6666   5.752   1.507   6.929 -0.2296 -0.4947  0.6658
   23MOL    C23 6667   5.828   1.523   7.059 -0.3783  0.0031 -0.2912
   23MOL    H24 6668   5.779   1.946   6.603  4.5169 -0.9855  1.5300
   23MOL    H25 6669   5.763   1.920   6.760 -2.1204 -0.7005  0.6470
   23MOL    H26 6670   5.760   1.726   6.527  1.8476  1.2708 -0.9138
   23MOL    H27 6671   5.647   1.499   6.955 -0.4383 -0.4095 -0.1305
   23MOL    H28 6672   5.774   1.417   6.872  2.5748  0.5653 -0.0393
   23MOL    H29 6673   5.768   1.603   7.103 -0.2025  0.8689 -1.6053
   23MOL    H30 6674   5.928   1.564   7.043 -0.4098  0.8177  1.3777
   23MOL    H31 6675   5.823   1.446   7.136  0.1515 -1.0245 -1.2889
   23MOL    C32 6676   5.941   1.742   6.633 -0.5284 -0.0495  0.2202
   23MOL    C33 6677   6.016   1.666   6.531  0.3940  1.2276 -0.4217
   23MOL    C34 6678   6.150   1.602   6.576  0.2155  0.1905  0.5828
   23MOL    O35 6679   6.259   1.660   6.567  0.6856  0.4143 -0.1947
   23MOL    O36 6680   6.134   1.476   6.622  0.0192 -0.1341 -0.8178
   23MOL    C37 6681   6.245   1.409   6.672  0.4887  0.5231 -0.8095
   23MOL    C38 6682   6.194   1.327   6.794  0.3290 -0.4024  0.1371
   23MOL    H39 6683   5.984   1.841   6.619 -1.6219  0.1329 -1.9249
   23MOL    H40 6684   5.977   1.713   6.732 -2.0385 -3.3299 -0.1338
   23MOL    H41 6685   5.958   1.578   6.503  1.6877 -0.3415  1.7167
   23MOL    H42 6686   6.280   1.343   6.592 -0.5813 -1.0042 -0.0308
   23MOL    H43 6687   6.326   1.481   6.683  0.1564  0.6357  1.0229
   23MOL    H44 6688   6.283   1.281   6.838 -0.5281 -1.4791  0.7592
   23MOL    H45 6689   6.116   1.264   6.752 -0.7824  0.7116  0.4897
   23MOL    H46 6690   6.134   1.384   6.865  1.7866 -0.4828  1.4766
   23MOL    C47 6691   6.023   1.743   6.395 -0.9254  0.3339 -0.2280
   23MOL    C48 6692   5.982   1.673   6.269  0.1512 -0.4905  1.1406
   23MOL    C49 6693   6.047   1.730   6.138  0.5126 -0.5888 -0.5403
   23MOL    O50 6694   6.093   1.651   6.052 -0.0727 -0.0727  0.2257
   23MOL    O51 6695   6.053   1.866   6.130 -0.1151 -0.0515 -0.1106
   23MOL    C52 6696   6.082   1.929   6.012 -0.3517  0.1407 -0.6723
   23MOL    C53 6697   6.072   2.080   6.033  0.2146  0.0903  0.4321
   23MOL    H54 6698   5.968   1.837   6.398 -0.5258  0.4985  2.4321
   23MOL    H55 6699   6.126   1.777   6.388 -0.7782  0.2932  1.5818
   23MOL    H56 6700   6.025   1.573   6.274  0.1920 -0.4839  0.9462
   23MOL    H57 6701   6.184   1.912   5.977  0.2217  0.8814  0.6099
   23MOL    H58 6702   6.022   1.889   5.930 -1.5849 -1.8922  1.1491
   23MOL    H59 6703   6.156   2.113   6.095  1.7950  0.1159 -1.6904
   23MOL    H60 6704   5.974   2.110   6.071 -0.8153 -1.5121 -0.8874
   23MOL    H61 6705   6.084   2.122   5.933  1.1951  1.4146  1.0879
   23MOL    C62 6706   5.831   1.663   6.253 -0.4230  0.2016  0.3649
   23MOL    C63 6707   5.765   1.588   6.130  0.0485 -0.3272  0.7258
   23MOL    C64 6708   5.616   1.616   6.127  0.0681  0.9842 -0.2469
   23MOL    O65 6709   5.556   1.634   6.021 -0.7307 -0.5698 -0.0538
   23MOL    O66 6710   5.563   1.622   6.251 -0.1258 -0.0330 -0.1825
   23MOL    C67 6711   5.421   1.598   6.263  0.0079 -0.1137  0.2693
   23MOL    C68 6712   5.392   1.501   6.377  0.9768  0.3761 -0.0450
   23MOL    H69 6713   5.801   1.602   6.338 -1.4661  1.6984  1.0947
   23MOL    H70 6714   5.787   1.760   6.273 -1.3976  0.5567 -3.1384
   23MOL    H71 6715   5.810   1.608   6.032 -0.4698  0.1122  0.5796
   23MOL    H72 6716   5.373   1.695   6.274  1.0584  0.5003 -0.4826
   23MOL    H73 6717   5.382   1.557   6.170  2.5995 -0.0239 -0.9192
   23MOL    H74 6718   5.288   1.485   6.405  0.4045  2.3341 -0.9759
   23MOL    H75 6719   5.441   1.538   6.467 -0.6996  0.1762  0.9584
   23MOL    H76 6720   5.434   1.402   6.361  0.8985  0.4768 -0.9117
   23MOL    C77 6721   5.788   1.437   6.150  0.8432 -0.0963 -0.3098
   23MOL    C78 6722   5.750   1.368   6.011 -0.0239  0.0879  0.2912
   23MOL    C79 6723   5.656   1.249   6.024 -0.1739 -0.1776 -0.2131
   23MOL    O80 6724   5.543   1.265   5.989 -0.2376 -0.2885 -0.3878
   23MOL    O81 6725   5.701   1.141   6.084  0.3919  0.1294 -0.1761
   23MOL    C82 6726   5.616   1.036   6.110 -0.1617  0.4956 -0.1460
   23MOL    C83 6727   5.693   0.902   6.113 -0.0109  0.6549  0.3967
   23MOL    H84 6728   5.893   1.416   6.169  1.3559  1.3226 -1.4590
   23MOL    H85 6729   5.730   1.403   6.235 -1.1527  2.8619 -0.4015
   23MOL    H86 6730   5.699   1.441   5.948  1.1237  1.7045  1.1954
   23MOL    H87 6731   5.555   1.042   6.201  1.1966 -1.8691  0.9868
   23MOL    H88 6732   5.540   1.027   6.033 -1.3500  1.9367  0.8237
   23MOL    H89 6733   5.778   0.904   6.182  0.5156  0.8949 -0.2588
   23MOL    H90 6734   5.730   0.881   6.013 -1.4110  0.3521 -0.0639
   23MOL    H91 6735   5.627   0.820   6.139  1.5070 -1.1815 -1.3705
   23MOL    C92 6736   5.879   1.320   5.933 -1.5348  0.0337  0.7076
   23MOL    C93 6737   5.868   1.266   5.788 -0.1315 -0.0615 -0.4531
   23MOL    C94 6738   5.754   1.320   5.696  0.1820  0.2364 -0.1450
   23MOL    O95 6739   5.669   1.247   5.648 -0.3992  0.3210  0.4575
   23MOL    O96 6740   5.764   1.457   5.665 -0.4668  0.1591 -0.4060
   23MOL    C97 6741   5.654   1.515   5.597  0.0601 -0.0530 -0.3780
   23MOL    C98 6742   5.552   1.574   5.695 -0.4535  0.3572  0.3153
   23MOL    H99 6743   5.939   1.410   5.919 -1.0020 -0.0995  2.0740
   23MOL   H100 6744   5.931   1.249   5.997 -1.3577 -3.0084 -2.6562
   23MOL   H101 6745   5.951   1.319   5.741 -0.4966  0.4779 -0.4905
   23MOL   H102 6746   5.698   1.598   5.541  1.5968 -0.2376  0.5155
   23MOL   H103 6747   5.612   1.441   5.529 -0.3284 -1.3311  1.2260
   23MOL   H104 6748   5.469   1.631   5.653 -1.1907 -1.7009 -1.0531
   23MOL   H105 6749   5.608   1.635   5.766  1.0695  0.6548 -1.1078
   23MOL   H106 6750   5.505   1.498   5.757 -0.7233  1.9750  2.1700
   23MOL   C107 6751   5.893   1.115   5.779  0.0162  0.8818  0.2266
   23MOL   C108 6752   5.910   1.066   5.634 -0.1500 -0.1509  0.7364
   23MOL   C109 6753   5.922   0.909   5.625  0.2076 -0.1108 -0.8053
   23MOL   O110 6754   5.853   0.840   5.557  0.4041 -0.1810 -0.3690
   23MOL   O111 6755   6.020   0.865   5.705  0.4782 -0.7301  0.2151
   23MOL   C112 6756   6.054   0.721   5.701  0.8591  0.0078 -0.1440
   23MOL   C113 6757   6.175   0.702   5.781 -0.3855 -0.0170 -0.0686
   23MOL   H114 6758   5.991   1.101   5.824  0.4363 -1.6953 -1.3756
   23MOL   H115 6759   5.813   1.057   5.826  0.5323 -1.9128 -2.1259
   23MOL   H116 6760   5.826   1.098   5.572  0.5398 -3.5995 -2.1154
   23MOL   H117 6761   5.967   0.664   5.733  0.0635  2.2140  1.7699
   23MOL   H118 6762   6.084   0.694   5.600  2.8001 -0.2012  0.4643
   23MOL   H119 6763   6.144   0.721   5.883 -0.7107 -1.1791  0.0545
   23MOL   H120 6764   6.256   0.773   5.764  0.5545 -1.0298  0.1462
   23MOL   H121 6765   6.210   0.599   5.775 -0.0080  0.0380  1.1655
   23MOL   C122 6766   6.033   1.116   5.556 -0.5818 -0.5501 -0.7737
   23MOL   C123 6767   6.038   1.082   5.403  0.6577  0.5870  0.1092
   23MOL   C124 6768   6.180   1.070   5.345 -0.0972  0.4843 -0.3869
   23MOL   O125 6769   6.284   1.096   5.404  0.2717 -0.3384  0.0171
   23MOL   O126 6770   6.174   1.028   5.215 -0.3315  0.3804 -0.0896
   23MOL   C127 6771   6.291   0.996   5.154 -0.1647 -0.2097  0.4929
   23MOL   C128 6772   6.268   0.951   5.013 -0.0069  0.5477  0.7796
   23MOL   H129 6773   6.032   1.222   5.579  1.7448 -0.8877  0.9748
   23MOL   H130 6774   6.124   1.086   5.608 -0.9961  0.8143  0.7931
   23MOL   H131 6775   6.008   0.978   5.412  1.5581  0.4252  1.3289
   23MOL   H132 6776   6.372   1.069   5.157  0.4676 -0.9466  1.5166
   23MOL   H133 6777   6.323   0.904   5.204 -0.6295  0.3055  1.7494
   23MOL   H134 6778   6.367   0.912   4.987 -0.8080 -1.8428  1.1573
   23MOL   H135 6779   6.232   1.032   4.950 -1.6448  0.3992  1.5078
   23MOL   H136 6780   6.209   0.861   4.992  0.7896  0.0141  0.8115
   23MOL   C137 6781   5.945   1.162   5.308 -0.0503  0.5126 -0.4915
   23MOL   C138 6782   5.999   1.300   5.250 -0.1331 -0.1061 -0.4914
   23MOL   C139 6783   6.075   1.382   5.358  0.2785  0.3744 -0.6256
   23MOL   O140 6784   6.196   1.400   5.341  0.0917 -0.4993 -0.4590
   23MOL   O141 6785   6.009   1.429   5.453 -0.4262  0.2721 -0.0984
   23MOL   C142 6786   6.073   1.509   5.553 -0.3818  0.0289  0.1783
   23MOL   C143 6787   6.096   1.659   5.520 -0.4570 -0.0703 -0.4711
   23MOL   H144 6788   5.906   1.092   5.235  3.4566 -0.2378 -1.7626
   23MOL   H145 6789   5.860   1.197   5.367  0.0371  0.0902 -0.1153
   23MOL   H146 6790   6.063   1.279   5.164  1.9293 -0.2094  1.0402
   23MOL   H147 6791   6.016   1.494   5.644  1.6745 -0.9886  1.3355
   23MOL   H148 6792   6.170   1.471   5.584 -0.2892 -1.3309 -1.7032
   23MOL   H149 6793   6.156   1.669   5.430  2.1067 -0.2442  1.1798
   23MOL   H150 6794   6.145   1.703   5.608  2.0285 -1.2233 -1.2435
   23MOL   H151 6795   5.996   1.701   5.504 -0.0089  2.2139  2.2481
   23MOL   C152 6796   5.877   1.386   5.199  0.3737 -0.2763 -0.1554
   23MOL   C153 6797   5.905   1.535   5.171  0.0311  0.0850 -0.3288
   23MOL   C154 6798   5.770   1.608   5.177 -0.7573  0.4921  0.6952
   23MOL   O155 6799   5.709   1.622   5.280 -0.0701  0.1236 -0.0645
   23MOL   O156 6800   5.720   1.651   5.059 -0.2341 -0.0747  0.3047
   23MOL   C157 6801   5.597   1.722   5.051 -0.4563  0.2811 -0.4795
   23MOL   C158 6802   5.556   1.729   4.901 -0.9149  0.0424  0.2829
   23MOL   H159 6803   5.842   1.337   5.109  0.5413 -0.5078 -0.0942
   23MOL   H160 6804   5.796   1.375   5.271  0.2069 -0.9304 -0.4415
   23MOL   H161 6805   5.958   1.590   5.248 -2.1181 -1.4832  2.3571
   23MOL   H162 6806   5.511   1.670   5.095 -1.1172  0.4381 -1.5539
   23MOL   H163 6807   5.602   1.824   5.087 -0.5343  0.4512 -0.9494
   23MOL   H164 6808   5.463   1.786   4.895  0.0727  1.6661 -0.0041
   23MOL   H165 6809   5.550   1.630   4.856 -1.3169 -0.3665  1.2200
   23MOL   H166 6810   5.632   1.782   4.844  1.0492 -1.8917  1.0600
   23MOL   C167 6811   5.987   1.557   5.038  0.2259  0.3805  0.6284
   23MOL   C168 6812   6.133   1.588   5.052  0.4209  0.4227  0.4346
   23MOL   C169 6813   6.158   1.722   5.123  0.1437  0.5675 -0.6611
   23MOL   O170 6814   6.067   1.800   5.149  0.0703  0.1446  0.3150
   23MOL   O171 6815   6.291   1.749   5.148 -0.3414  0.1197  0.3923
   23MOL   C172 6816   6.319   1.874   5.213 -0.2338 -0.3893 -0.1317
   23MOL   C173 6817   6.462   1.863   5.273 -1.0439 -0.0864  0.6637
   23MOL   H174 6818   5.995   1.465   4.980 -0.1913 -0.7888  2.3993
   23MOL   H175 6819   5.940   1.628   4.970  0.4479 -1.5469 -1.6059
   23MOL   H176 6820   6.166   1.515   5.126  0.4550  0.3858  0.3831
   23MOL   H177 6821   6.308   1.947   5.133  2.3208  0.0734 -0.0831
   23MOL   H178 6822   6.238   1.903   5.281 -0.1488  2.2235 -1.0728
   23MOL   H179 6823   6.494   1.966   5.293  0.2836 -0.2803 -0.4060
   23MOL   H180 6824   6.536   1.833   5.199 -0.4695  0.1589  1.1353
   23MOL   H181 6825   6.473   1.790   5.353  1.5949 -1.6454 -1.0623
   23MOL   C182 6826   6.211   1.564   4.926 -0.6277 -0.0368  0.6733
   23MOL   C183 6827   6.371   1.558   4.925 -0.2871 -0.2570  0.2625
   23MOL   C184 6828   6.430   1.570   4.780  0.3294  0.1342  0.6080
   23MOL   O185 6829   6.374   1.531   4.682  0.9440  0.1803 -0.1638
   23MOL   O186 6830   6.549   1.623   4.789 -0.0902 -0.0818  0.3121
   23MOL   C187 6831   6.626   1.642   4.665  0.5747 -0.0793 -0.7621
   23MOL   C188 6832   6.761   1.715   4.701  1.0351 -0.2665 -0.3006
   23MOL   H189 6833   6.175   1.476   4.873  0.1474 -0.6363  1.1331
   23MOL   H190 6834   6.184   1.647   4.861  1.3247 -0.3709 -0.5975
   23MOL   H191 6835   6.401   1.651   4.974 -0.2660  0.4169 -1.0070
   23MOL   H192 6836   6.649   1.543   4.624 -1.2784 -0.0601 -1.8645
   23MOL   H193 6837   6.557   1.693   4.598  0.4113  0.0485 -0.4965
   23MOL   H194 6838   6.826   1.664   4.772 -0.3841  0.5409  1.6283
   23MOL   H195 6839   6.744   1.815   4.743 -0.7427  0.2675 -2.1897
   23MOL   H196 6840   6.825   1.735   4.616  0.0213 -0.1872 -1.0489
   23MOL   C197 6841   6.438   1.451   5.015 -0.2584 -0.2305  0.4136
   23MOL   C198 6842   6.523   1.509   5.136  0.7774  0.3686  0.0465
   23MOL   C199 6843   6.662   1.547   5.085 -0.9109  0.4743 -0.1951
   23MOL   O200 6844   6.707   1.662   5.086 -0.1815  0.4552 -0.1191
   23MOL   O201 6845   6.729   1.440   5.048  0.0465  0.0358  0.4591
   23MOL   C202 6846   6.844   1.451   4.973  0.0035  0.6701  0.9029
   23MOL   C203 6847   6.837   1.375   4.839 -0.2200  0.2510 -0.2151
   23MOL   H204 6848   6.366   1.375   5.047 -1.1830  1.5729  2.7600
   23MOL   H205 6849   6.499   1.390   4.949  1.5383  1.4848  0.4356
   23MOL   H206 6850   6.476   1.590   5.191  0.2627 -0.5931  1.0551
   23MOL   H207 6851   6.878   1.554   4.966  2.1500 -0.0548  0.1799
   23MOL   H208 6852   6.928   1.411   5.030  0.7455  0.5431 -0.2532
   23MOL   H209 6853   6.840   1.269   4.864 -4.0535  0.3162  0.7461
   23MOL   H210 6854   6.912   1.397   4.763  3.4649 -0.8770  2.9480
   23MOL   H211 6855   6.742   1.404   4.794 -1.4350 -0.6307  1.7371
   23MOL   C212 6856   6.527   1.403   5.248 -0.2041 -0.3366 -0.2158
   23MOL   C213 6857   6.564   1.448   5.392  0.6309 -0.4222  0.8158
   23MOL   C214 6858   6.709   1.506   5.391  0.2034  0.1255  0.2061
   23MOL   O215 6859   6.730   1.627   5.413 -0.4349  0.7169 -0.4078
   23MOL   O216 6860   6.805   1.424   5.387  0.7911 -0.1591 -0.2834
   23MOL   C217 6861   6.943   1.455   5.383 -0.7282  0.0345  0.1877
   23MOL   C218 6862   7.014   1.321   5.377 -0.2569  0.1920 -0.4496
   23MOL   H219 6863   6.433   1.348   5.260 -0.8911  0.7423 -0.6452
   23MOL   H220 6864   6.593   1.324   5.212 -0.5949 -0.3825 -0.8447
   23MOL   H221 6865   6.501   1.530   5.427 -0.6924 -0.6717 -0.9208
   23MOL   H222 6866   6.979   1.522   5.305  1.8062  0.0482  1.3476
   23MOL   H223 6867   6.977   1.511   5.470 -0.5076 -1.1724  0.8904
   23MOL   H224 6868   6.990   1.268   5.285 -2.6473 -0.4031  0.4682
   23MOL   H225 6869   6.966   1.256   5.450 -1.5670  1.0921 -0.4810
   23MOL   H226 6870   7.122   1.329   5.389  0.5608 -1.8934 -5.0724
   23MOL   C227 6871   6.536   1.334   5.490  0.2518  0.4499  0.5772
   23MOL   C228 6872   6.538   1.363   5.646  0.1076 -1.0503  0.6086
   23MOL   C229 6873   6.681   1.407   5.689 -0.1435  0.6877 -1.1592
   23MOL   O230 6874   6.778   1.326   5.688  0.3601 -0.2232  0.1279
   23MOL   O231 6875   6.689   1.545   5.711 -0.3805 -0.0521  0.1449
   23MOL   C232 6876   6.814   1.610   5.720  0.2485  0.4126  0.0655
   23MOL   C233 6877   6.872   1.586   5.859 -0.0138  0.5301 -0.2273
   23MOL   H234 6878   6.431   1.304   5.483  0.1935  0.3338  1.7310
   23MOL   H235 6879   6.596   1.252   5.453  0.4349  1.0081 -0.3846
   23MOL   H236 6880   6.469   1.444   5.668 -0.6112 -2.0379  2.0914
   23MOL   H237 6881   6.881   1.574   5.642  1.1861  1.3217  0.4454
   23MOL   H238 6882   6.796   1.716   5.708  3.6764  1.2370  1.5585
   23MOL   H239 6883   6.907   1.484   5.877 -0.2879  0.7251  1.4714
   23MOL   H240 6884   6.791   1.600   5.930  1.3318 -2.4473  1.9849
   23MOL   H241 6885   6.960   1.650   5.871  1.6365 -1.4139 -1.5407
   23MOL   C242 6886   6.489   1.244   5.732  0.1794  0.1240 -0.1544
   23MOL   C243 6887   6.342   1.234   5.760 -0.2812  0.5782  0.0192
   23MOL   C244 6888   6.301   1.366   5.833 -0.2762  0.3828  0.0943
   23MOL   O245 6889   6.188   1.416   5.815  0.2094 -0.2523 -0.2108
   23MOL   O246 6890   6.399   1.419   5.913 -0.2210  0.0812 -0.2516
   23MOL   C247 6891   6.367   1.528   5.993 -0.0671  0.5938 -0.3719
   23MOL   C248 6892   6.501   1.598   6.039  0.0740 -0.4104 -0.0828
   23MOL   H249 6893   6.522   1.155   5.680 -1.4922 -0.0744 -0.9039
   23MOL   H250 6894   6.545   1.240   5.825  1.6509  0.2529 -1.0085
   23MOL   H251 6895   6.276   1.244   5.674 -1.3154 -3.0536  0.3195
   23MOL   H252 6896   6.310   1.603   5.939 -1.0626 -1.4836 -2.2838
   23MOL   H253 6897   6.318   1.494   6.084 -0.4023  1.3640 -0.2588
   23MOL   H254 6898   6.499   1.676   6.115 -1.4611 -0.4069 -0.1040
   23MOL   H255 6899   6.551   1.642   5.953  1.3903  0.3907  1.0671
   23MOL   H256 6900   6.570   1.525   6.081 -2.2872 -1.4370  2.2159
   23MOL   C257 6901   6.303   1.108   5.842 -0.1352  0.4643 -0.4859
   23MOL   C258 6902   6.377   1.076   5.975  0.0590 -0.0661 -0.0513
   23MOL   C259 6903   6.503   0.984   5.962  0.8901  0.3450  0.3504
   23MOL   O260 6904   6.613   1.002   6.021 -0.0110 -0.1027  0.4499
   23MOL   O261 6905   6.476   0.884   5.871  0.3729  0.2467 -0.8766
   23MOL   C262 6906   6.550   0.762   5.878 -0.1545 -0.1483  0.3094
   23MOL   C263 6907   6.483   0.675   5.981  0.0158  0.7348 -0.3532
   23MOL   H264 6908   6.195   1.103   5.852 -0.1121 -2.4063 -1.1650
   23MOL   H265 6909   6.315   1.030   5.766 -2.2098 -0.6416  0.2785
   23MOL   H266 6910   6.416   1.164   6.027  0.2836  0.3302 -0.8843
   23MOL   H267 6911   6.559   0.701   5.788 -0.5075  3.1681 -2.0705
   23MOL   H268 6912   6.654   0.789   5.896  0.2834  0.0698 -2.3358
   23MOL   H269 6913   6.522   0.574   5.986 -0.3272  0.6615  1.2098
   23MOL   H270 6914   6.378   0.665   5.954 -0.4174 -0.6061  1.6752
   23MOL   H271 6915   6.502   0.714   6.082 -0.1293  0.5589 -0.2592
   23MOL   C272 6916   6.273   1.017   6.073  0.0381  0.7146  0.3825
   23MOL   C273 6917   6.176   1.106   6.153 -0.0355  0.1369  0.1362
   23MOL   C274 6918   6.244   1.214   6.229  0.6267  0.2666 -0.2786
   23MOL   O275 6919   6.206   1.331   6.221  0.5904 -0.3350  0.3749
   23MOL   O276 6920   6.350   1.176   6.296  0.0296 -0.1872 -0.2721
   23MOL   C277 6921   6.438   1.260   6.362  0.8901 -0.8924 -0.4216
   23MOL   C278 6922   6.560   1.270   6.267  0.1855  1.0405  0.1110
   23MOL   H279 6923   6.221   0.928   6.038  0.5631  0.6740 -0.2913
   23MOL   H280 6924   6.342   0.978   6.147 -0.3875  2.0706  1.5271
   23MOL   H281 6925   6.124   1.168   6.080  0.9827  1.2498  0.3458
   23MOL   H282 6926   6.409   1.366   6.363  3.6500 -0.0849 -1.0381
   23MOL   H283 6927   6.461   1.229   6.464 -0.4489  0.8990  0.4585
   23MOL   H284 6928   6.547   1.339   6.184  1.7737  0.3992 -0.6954
   23MOL   H285 6929   6.585   1.178   6.214 -1.1740 -0.0901  1.3777
   23MOL   H286 6930   6.654   1.295   6.315  1.3572 -0.6867 -1.2156
   23MOL   C287 6931   6.066   1.031   6.235 -1.0949 -0.6875 -0.3976
   23MOL   C288 6932   6.112   0.949   6.356  0.1350  0.1365  0.4053
   23MOL   C289 6933   6.159   0.809   6.319  0.1652  0.5763  0.1199
   23MOL   O290 6934   6.133   0.756   6.213 -0.1014  0.2360  0.3013
   23MOL   O291 6935   6.229   0.748   6.419  0.2478 -0.3555  0.2260
   23MOL   C292 6936   6.239   0.608   6.427  0.6542  0.7921  0.3543
   23MOL   C293 6937   6.362   0.558   6.338 -0.8024  0.2789  0.5551
   23MOL   H294 6938   5.991   1.103   6.267  0.7896  0.6353  1.2104
   23MOL   H295 6939   6.001   0.977   6.166  0.4285 -0.3857 -2.1387
   23MOL   H296 6940   6.192   1.005   6.404  1.6204 -2.6099  1.2018
   23MOL   H297 6941   6.252   0.562   6.525  1.7304 -1.8106 -0.9629
   23MOL   H298 6942   6.143   0.563   6.398  1.8090 -2.0677  0.8110
   23MOL   H299 6943   6.371   0.449   6.332 -0.2603  0.5019 -4.2503
   23MOL   H300 6944   6.447   0.596   6.395 -1.4148  0.1078  1.5892
   23MOL   H301 6945   6.366   0.589   6.234  0.2865  0.3891  0.6218
   23MOL   H302 6946   6.026   0.950   6.423 -0.2388 -2.8184  0.0248
   24MOL     C1 6947   3.130   7.788   4.317  0.0057 -0.2591 -0.0129
   24MOL     C2 6948   3.065   7.700   4.205 -0.3611  0.6354 -0.8751
   24MOL     C3 6949   3.143   7.700   4.071 -0.7245 -0.7835  0.0599
   24MOL     O4 6950   3.157   7.597   4.009 -0.1039 -0.2334 -0.1966
   24MOL     O5 6951   3.156   7.825   4.010  0.2660  0.7241 -0.0176
   24MOL     C6 6952   3.210   7.828   3.876 -0.2339  0.5741  0.5915
   24MOL     C7 6953   3.216   0.059   3.813  0.0183 -0.6691  0.3515
   24MOL     H8 6954   3.224   7.742   4.349  0.6156  1.5832  0.9052
   24MOL     H9 6955   3.063   7.803   4.402 -0.8989 -0.7395 -0.6245
   24MOL    H10 6956   3.062   7.602   4.252 -2.2415  0.4447 -1.3759
   24MOL    H11 6957   3.311   7.795   3.896 -0.5867 -0.2944  0.9485
   24MOL    H12 6958   3.165   7.755   3.808 -1.8268  1.6737  0.4136
   24MOL    H13 6959   3.117   0.101   3.799 -0.6769 -2.2457  0.4332
   24MOL    H14 6960   3.280   0.053   3.725  0.7557  1.4380  0.7052
   24MOL    H15 6961   3.272   0.133   3.872  0.9188 -0.9650 -0.1190
   24MOL    H16 6962   3.162   7.886   4.282  1.4508 -0.5347  0.4958
   24MOL    C17 6963   2.916   7.734   4.181  0.3292  0.2208 -0.2797
   24MOL    C18 6964   2.818   7.629   4.215  0.0561  0.1798 -0.4060
   24MOL    C19 6965   2.816   7.509   4.119 -0.2180 -0.5027  0.5806
   24MOL    O20 6966   2.738   7.504   4.023 -0.4769  0.3207 -0.1433
   24MOL    O21 6967   2.889   7.409   4.171 -0.7774 -0.0446  0.2141
   24MOL    C22 6968   2.876   7.275   4.119  0.0937 -0.2718 -0.3614
   24MOL    C23 6969   2.777   7.190   4.206 -0.5057  0.1256 -0.8587
   24MOL    H24 6970   2.890   7.831   4.224 -0.7645 -0.1450 -0.1032
   24MOL    H25 6971   2.902   7.757   4.075  0.5794  1.7703  0.0124
   24MOL    H26 6972   2.832   7.581   4.312 -0.4892  1.6805  0.4360
   24MOL    H27 6973   2.860   7.256   4.013  0.6431  1.2886 -0.7422
   24MOL    H28 6974   2.979   7.241   4.131  0.8218  1.5780 -1.0590
   24MOL    H29 6975   2.679   7.236   4.208  0.0029  1.2074  0.1043
   24MOL    H30 6976   2.810   7.182   4.310  0.6882 -2.4856 -1.3798
   24MOL    H31 6977   2.760   7.088   4.171  1.3520 -0.1773 -0.9431
   24MOL    C32 6978   2.675   7.687   4.231  0.6000 -0.3552  0.4750
   24MOL    C33 6979   2.645   7.773   4.362 -0.1900 -0.6783 -0.2003
   24MOL    C34 6980   2.706   7.697   4.485  0.5652  0.4217  0.3442
   24MOL    O35 6981   2.776   7.755   4.567  0.6065  0.3773  0.3561
   24MOL    O36 6982   2.669   7.575   4.493  0.0018 -0.2951  0.0447
   24MOL    C37 6983   2.730   7.481   4.578 -0.1306 -1.0519 -0.0443
   24MOL    C38 6984   2.871   7.442   4.527  0.1761 -0.0126  0.4194
   24MOL    H39 6985   2.665   7.743   4.139 -0.1551 -1.3953 -0.0855
   24MOL    H40 6986   2.604   7.606   4.218  0.4103 -0.5926  2.6732
   24MOL    H41 6987   2.703   7.865   4.357 -0.7344 -0.3525 -0.5435
   24MOL    H42 6988   2.729   7.526   4.678  1.7572  2.6574 -1.5939
   24MOL    H43 6989   2.674   7.388   4.590 -1.5903 -0.2234 -0.2768
   24MOL    H44 6990   2.857   7.400   4.427  0.0345  1.7220 -0.3101
   24MOL    H45 6991   2.909   7.355   4.578 -0.5273 -0.9129 -0.5627
   24MOL    H46 6992   2.944   7.523   4.526  1.2395 -0.9746  0.2299
   24MOL    C47 6993   2.500   7.818   4.388 -0.5641 -0.6030 -0.0721
   24MOL    C48 6994   2.435   7.880   4.259  0.4094  0.1942 -1.0832
   24MOL    C49 6995   2.502   0.098   4.220 -0.5896 -0.2958 -0.8084
   24MOL    O50 6996   2.477   0.200   4.283 -0.2061 -0.2301  0.1805
   24MOL    O51 6997   2.574   0.076   4.109  0.2899  0.2276 -0.0987
   24MOL    C52 6998   2.659   0.178   4.064 -0.6392  0.3743  0.6326
   24MOL    C53 6999   2.760   0.112   3.970  0.2756  0.2688 -0.1345
   24MOL    H54 7000   2.439   7.736   4.424  0.2640  0.8291  4.9471
   24MOL    H55 7001   2.503   7.871   4.483  2.2921 -2.8965  1.1900
   24MOL    H56 7002   2.457   7.810   4.178  2.5883  0.7070 -0.9672
   24MOL    H57 7003   2.606   0.265   4.024 -0.5266  0.7678  1.3352
   24MOL    H58 7004   2.715   0.219   4.147  3.5719  2.8721 -3.1854
   24MOL    H59 7005   2.713   0.029   3.917 -0.0284  0.7146 -0.5667
   24MOL    H60 7006   2.851   0.077   4.019  0.2845 -0.3608 -0.6040
   24MOL    H61 7007   2.788   0.182   3.891 -1.1126  0.0445 -0.8393
   24MOL    C62 7008   2.281   7.894   4.278 -1.0785  0.9179 -0.5038
   24MOL    C63 7009   2.195   7.766   4.272  0.3763  0.2191  0.6742
   24MOL    C64 7010   2.223   7.678   4.152  0.1491 -0.0600  0.9374
   24MOL    O65 7011   2.198   7.558   4.155 -0.3618  0.4682  0.2697
   24MOL    O66 7012   2.241   7.750   4.040  0.1370 -0.2016 -0.4793
   24MOL    C67 7013   2.283   7.687   3.923 -0.8737  0.5168  0.3751
   24MOL    C68 7014   2.440   7.698   3.914  0.4370 -0.2464 -0.4347
   24MOL    H69 7015   2.260   0.029   4.376  0.1412  1.6658 -0.5683
   24MOL    H70 7016   2.245   0.061   4.208  0.8860  2.5376  0.1907
   24MOL    H71 7017   2.221   7.698   4.353  0.4874  0.3840  0.7773
   24MOL    H72 7018   2.245   7.587   3.904  0.8420 -0.2514  0.8530
   24MOL    H73 7019   2.235   7.744   3.843  0.6551  0.6900 -0.4288
   24MOL    H74 7020   2.480   7.800   3.915  0.9238 -0.4312 -0.8296
   24MOL    H75 7021   2.486   7.648   3.829  0.3171  0.2784 -0.8132
   24MOL    H76 7022   2.484   7.653   4.003  1.1160  1.1150 -0.0545
   24MOL    C77 7023   2.043   7.792   4.285  0.1969  0.4105  0.8752
   24MOL    C78 7024   1.962   7.682   4.368 -0.1147  0.0525 -0.4100
   24MOL    C79 7025   1.810   7.713   4.373  0.0394 -0.1133 -0.1020
   24MOL    O80 7026   1.767   7.808   4.308  0.5691  0.5269  0.1772
   24MOL    O81 7027   1.737   7.633   4.448  0.4110 -0.1686  0.3534
   24MOL    C82 7028   1.592   7.650   4.444 -0.6858  0.1187  0.1766
   24MOL    C83 7029   1.519   7.529   4.497  0.0235  0.0431  0.6904
   24MOL    H84 7030   2.026   7.886   4.339 -0.9875  0.1778  0.9159
   24MOL    H85 7031   2.001   7.803   4.185 -0.5511 -1.8192  0.9365
   24MOL    H86 7032   1.969   7.584   4.321 -1.2370  0.4807 -1.4961
   24MOL    H87 7033   1.574   7.735   4.509 -1.3648  0.4376 -0.4151
   24MOL    H88 7034   1.551   7.680   4.347 -3.2470  2.1671  1.8310
   24MOL    H89 7035   1.538   7.496   4.599 -0.0818  0.6055  0.8884
   24MOL    H90 7036   1.529   7.447   4.425  1.8616  1.5240 -0.7815
   24MOL    H91 7037   1.413   7.551   4.503 -0.5645 -2.5024  0.5914
   24MOL    C92 7038   2.016   7.651   4.504 -0.5399  0.3559 -0.1228
   24MOL    C93 7039   2.077   7.509   4.533 -0.6367 -0.1495  0.5808
   24MOL    C94 7040   1.978   7.407   4.586 -0.1095  0.2432  0.7845
   24MOL    O95 7041   1.887   7.439   4.665  0.5708  0.1145  0.5277
   24MOL    O96 7042   1.991   7.285   4.529  0.2698  0.3919  0.0657
   24MOL    C97 7043   1.895   7.179   4.547 -0.0357 -0.0558 -0.6724
   24MOL    C98 7044   1.752   7.190   4.490  0.7158 -0.1768  0.0724
   24MOL    H99 7045   2.088   7.726   4.535  0.8868 -0.4854 -1.3459
   24MOL   H100 7046   1.950   7.665   4.591  1.5037 -1.7601  1.8322
   24MOL   H101 7047   2.103   7.476   4.432 -0.8200  0.4252  0.3421
   24MOL   H102 7048   1.945   7.098   4.495  1.3611  0.1754  0.3042
   24MOL   H103 7049   1.891   7.151   4.652 -1.4727  1.4680 -0.2991
   24MOL   H104 7050   1.706   7.274   4.543  0.5517  0.2303 -0.6954
   24MOL   H105 7051   1.697   7.098   4.506  0.9496 -0.2000  0.7730
   24MOL   H106 7052   1.765   7.216   4.385  0.1890  0.5665  0.1846
   24MOL   C107 7053   2.216   7.510   4.598 -0.3131  0.7525 -0.6572
   24MOL   C108 7054   2.214   7.521   4.756  0.1369  0.0738  0.5072
   24MOL   C109 7055   2.192   7.674   4.799 -0.0921  0.2756  0.1069
   24MOL   O110 7056   2.210   7.771   4.727 -0.7969  0.1303  0.5188
   24MOL   O111 7057   2.157   7.678   4.925  0.0731 -0.5270 -0.1584
   24MOL   C112 7058   2.136   7.798   4.993  0.0611  0.1613 -0.0391
   24MOL   C113 7059   2.074   7.764   5.123 -0.0804 -0.0781 -0.7553
   24MOL   H114 7060   2.272   7.423   4.565 -0.9977 -0.0551  0.2969
   24MOL   H115 7061   2.273   7.597   4.564  0.0756  0.9127  0.3734
   24MOL   H116 7062   2.122   7.477   4.793 -0.0795 -0.3907 -0.5553
   24MOL   H117 7063   2.234   7.843   5.007  0.3742 -0.8985  1.3182
   24MOL   H118 7064   2.067   7.856   4.932  0.7019  0.6841 -0.2608
   24MOL   H119 7065   1.984   7.703   5.113  1.8449 -2.7191 -2.6388
   24MOL   H120 7066   2.066   7.854   5.184 -2.3797 -0.1090 -0.9860
   24MOL   H121 7067   2.147   7.698   5.170 -1.9055 -0.3175  1.8428
   24MOL   C122 7068   2.344   7.460   4.817 -0.1698 -0.1551 -0.0681
   24MOL   C123 7069   2.343   7.306   4.818  0.3491  0.1617  0.4863
   24MOL   C124 7070   2.240   7.258   4.921  0.1706  0.1683  0.5580
   24MOL   O125 7071   2.257   7.282   5.042 -0.0346  0.1417 -0.3478
   24MOL   O126 7072   2.134   7.189   4.871 -0.7306 -0.1068  0.1022
   24MOL   C127 7073   2.032   7.137   4.953  0.2749  0.7427 -0.3485
   24MOL   C128 7074   1.914   7.223   4.953 -0.0129  0.2860  0.1476
   24MOL   H129 7075   2.431   7.485   4.755 -2.8569  1.4175 -3.3635
   24MOL   H130 7076   2.350   7.495   4.920 -0.3134 -1.6229  0.4400
   24MOL   H131 7077   2.309   7.284   4.716  0.4802  0.8339  0.2905
   24MOL   H132 7078   2.002   7.049   4.896 -0.6183  1.4766 -1.0129
   24MOL   H133 7079   2.069   7.106   5.051 -2.9187 -2.6014 -0.0481
   24MOL   H134 7080   1.828   7.169   4.993 -0.3512  0.2307 -0.6388
   24MOL   H135 7081   1.888   7.256   4.852 -0.6350  0.4797  0.3632
   24MOL   H136 7082   1.931   7.320   5.000  0.7532  0.8317 -1.2320
   24MOL   C137 7083   2.486   7.248   4.824  0.2839 -0.3074 -0.3319
   24MOL   C138 7084   2.505   7.115   4.775 -0.1559 -0.0049 -0.0136
   24MOL   C139 7085   2.496   7.117   4.621 -0.2272 -0.0696 -0.0526
   24MOL   O140 7086   2.586   7.172   4.561  0.4447 -0.7581  0.0112
   24MOL   O141 7087   2.384   7.063   4.564  0.0385  0.6829  0.5934
   24MOL   C142 7088   2.363   7.074   4.426 -0.5724  0.3365  0.1426
   24MOL   C143 7089   2.443   6.966   4.350 -0.7832 -0.4181  0.6155
   24MOL   H144 7090   2.557   7.313   4.772 -1.3365  2.0713  0.3465
   24MOL   H145 7091   2.508   7.245   4.931 -0.1774 -1.0032 -0.2489
   24MOL   H146 7092   2.609   7.085   4.789 -0.2275 -1.0160 -1.4909
   24MOL   H147 7093   2.256   7.063   4.409 -0.7136 -0.7248  1.6103
   24MOL   H148 7094   2.390   7.171   4.385  0.6530  0.5809  1.4820
   24MOL   H149 7095   2.429   6.988   4.244 -0.2804 -0.5875  0.5137
   24MOL   H150 7096   2.418   6.861   4.366  2.1478 -1.1006  0.9415
   24MOL   H151 7097   2.550   6.977   4.368 -1.0352  2.5316  0.5911
   24MOL   C152 7098   2.418   6.995   4.837  0.1752 -0.3242  0.6391
   24MOL   C153 7099   2.465   6.851   4.813 -0.1841  0.5809 -0.3765
   24MOL   C154 7100   2.359   6.755   4.866  0.1530 -0.3110  0.0196
   24MOL   O155 7101   2.282   6.692   4.791  0.4716  0.3553  0.0046
   24MOL   O156 7102   2.345   6.760   5.001  0.1708 -0.1713 -0.3357
   24MOL   C157 7103   2.232   6.696   5.068 -0.5029  0.1636 -0.2760
   24MOL   C158 7104   2.110   6.791   5.079 -0.5571  0.0864  0.7669
   24MOL   H159 7105   2.402   7.023   4.941 -1.7998  0.7488  0.0612
   24MOL   H160 7106   2.315   6.996   4.801  0.4973 -0.3561 -0.2906
   24MOL   H161 7107   2.457   6.844   4.705  0.0728 -1.6206 -0.2746
   24MOL   H162 7108   2.212   6.605   5.010 -2.0965 -0.0681  0.6123
   24MOL   H163 7109   2.264   6.662   5.167 -1.8705 -2.1560 -0.5988
   24MOL   H164 7110   2.070   6.831   4.986  2.1350 -1.6186 -1.1990
   24MOL   H165 7111   2.155   6.874   5.132  3.2290 -1.0081 -0.5804
   24MOL   H166 7112   2.031   6.745   5.139 -0.4189  0.7783  1.4830
   24MOL   C167 7113   2.609   6.830   4.871  0.7397 -0.3684  0.3377
   24MOL   C168 7114   2.723   6.813   4.771  0.0335 -0.1827 -0.1896
   24MOL   C169 7115   2.708   6.685   4.673  0.3774  0.5441 -0.3951
   24MOL   O170 7116   2.645   6.684   4.570 -0.0879 -0.5451 -0.4041
   24MOL   O171 7117   2.759   6.575   4.735  0.1334 -0.2797 -0.6758
   24MOL   C172 7118   2.736   6.453   4.676 -0.0837  0.2765  0.0931
   24MOL   C173 7119   2.610   6.390   4.747 -0.6840  0.4141  0.1283
   24MOL   H174 7120   2.621   6.917   4.936  1.3273 -0.4835  0.3840
   24MOL   H175 7121   2.614   6.764   4.957  2.2052  0.4678  0.9050
   24MOL   H176 7122   2.736   6.895   4.701  1.0048  1.4376  1.8487
   24MOL   H177 7123   2.732   6.455   4.567 -0.7089 -4.2422 -0.0769
   24MOL   H178 7124   2.827   6.398   4.700 -0.4182  1.2998  4.0252
   24MOL   H179 7125   2.629   6.386   4.854 -2.0820 -0.9027  0.3462
   24MOL   H180 7126   2.590   6.288   4.712  0.4484  0.4087 -0.5366
   24MOL   H181 7127   2.525   6.458   4.740  0.3824  1.7704  0.2402
   24MOL   C182 7128   2.856   6.811   4.845  0.6278  0.7931  0.3058
   24MOL   C183 7129   2.974   6.882   4.782 -0.3679  0.6286  0.6600
   24MOL   C184 7130   2.962   7.034   4.750 -0.1873  0.1485  0.0376
   24MOL   O185 7131   2.991   7.075   4.640  0.1091 -0.4043  0.0741
   24MOL   O186 7132   2.927   7.099   4.856 -0.3409 -0.3198 -0.0811
   24MOL   C187 7133   2.919   7.239   4.847 -0.6226 -0.5215  0.0140
   24MOL   C188 7134   2.924   7.287   4.992  0.2057  0.4731 -0.0333
   24MOL   H189 7135   2.839   6.860   4.941  0.4697 -1.9699  1.7104
   24MOL   H190 7136   2.887   6.708   4.861 -1.5685 -0.3043 -2.0549
   24MOL   H191 7137   3.052   6.885   4.858  0.3523  0.9441 -0.0745
   24MOL   H192 7138   3.001   7.289   4.795 -0.5966  0.3431  0.8803
   24MOL   H193 7139   2.825   7.263   4.797  1.3322  0.9975 -3.0293
   24MOL   H194 7140   3.010   7.246   5.045  0.4318  0.0585 -0.7110
   24MOL   H195 7141   2.831   7.259   5.040 -0.2999  2.1150 -0.0446
   24MOL   H196 7142   2.930   7.395   4.996  0.4609  0.3988  1.9442
   24MOL   C197 7143   3.033   6.818   4.654 -0.2273  0.2674  0.5739
   24MOL   C198 7144   3.070   6.665   4.659  0.4929  0.0691 -0.7501
   24MOL   C199 7145   3.155   6.635   4.786  0.6837  0.3892  0.1658
   24MOL   O200 7146   3.277   6.648   4.779  0.0176  0.1413  0.5729
   24MOL   O201 7147   3.094   6.582   4.891 -0.2115  0.2243  0.1299
   24MOL   C202 7148   3.159   6.568   5.013  0.2935  0.0587  0.6286
   24MOL   C203 7149   3.072   6.518   5.124  0.0024  0.1171  0.0448
   24MOL   H204 7150   2.973   6.832   4.564  0.3460  0.0035  0.1470
   24MOL   H205 7151   3.130   6.865   4.638  0.2029 -1.3866 -1.8391
   24MOL   H206 7152   2.985   6.597   4.668  0.6197  0.2478  2.3871
   24MOL   H207 7153   3.229   6.485   5.000 -1.7141 -1.3499 -1.6016
   24MOL   H208 7154   3.215   6.659   5.034 -1.2292  1.4509 -1.1334
   24MOL   H209 7155   2.979   6.575   5.129  1.1439  2.1693 -1.2080
   24MOL   H210 7156   3.112   6.532   5.225  0.0081 -1.3984  0.2547
   24MOL   H211 7157   3.044   6.415   5.103 -0.4104  0.3013 -0.3051
   24MOL   C212 7158   3.142   6.623   4.527 -0.0660 -0.1088  0.2814
   24MOL   C213 7159   3.098   6.485   4.473  0.6468  0.2452  0.6722
   24MOL   C214 7160   2.961   6.476   4.401 -0.0316  0.3911  0.9449
   24MOL   O215 7161   2.906   6.369   4.369  1.1240 -0.8378  0.4832
   24MOL   O216 7162   2.909   6.598   4.382 -0.6308  0.0905  1.5169
   24MOL   C217 7163   2.791   6.617   4.306 -0.2704 -0.0941 -0.1403
   24MOL   C218 7164   2.794   6.765   4.246  0.0263  0.2767  0.3424
   24MOL   H219 7165   3.121   6.694   4.448  0.2924 -1.5121 -1.1133
   24MOL   H220 7166   3.251   6.624   4.535 -0.1151 -1.6657  1.4693
   24MOL   H221 7167   3.158   6.472   4.384 -1.4149 -2.8920 -0.3385
   24MOL   H222 7168   2.806   6.547   4.224  1.5424  0.3314 -0.1801
   24MOL   H223 7169   2.702   6.588   4.362  0.4410  1.6286  1.9056
   24MOL   H224 7170   2.884   6.779   4.185  0.1129 -1.2509  0.0823
   24MOL   H225 7171   2.796   6.834   4.330 -0.8839 -0.5492  1.0597
   24MOL   H226 7172   2.705   6.781   4.185  1.7565 -0.4774 -2.5065
   24MOL   C227 7173   3.119   6.361   4.568 -0.0492 -0.8835 -0.3785
   24MOL   C228 7174   3.267   6.330   4.602 -0.2536  0.5202  0.2762
   24MOL   C229 7175   3.349   6.269   4.492 -0.8117  1.2647 -0.3771
   24MOL   O230 7176   3.404   6.158   4.503  0.4196  0.5262  0.1277
   24MOL   O231 7177   3.355   6.346   4.378  0.3180 -0.1023  0.4518
   24MOL   C232 7178   3.407   6.311   4.253  0.0930  0.9040  0.1027
   24MOL   C233 7179   3.309   6.233   4.165 -0.5013  0.2610 -0.3714
   24MOL   H234 7180   3.063   6.394   4.655 -1.7437  1.3652 -2.2580
   24MOL   H235 7181   3.071   6.270   4.533  0.9895 -0.9004 -1.8346
   24MOL   H236 7182   3.308   6.431   4.609 -0.8219  0.8605 -0.9897
   24MOL   H237 7183   3.433   6.405   4.204 -1.6735  2.4979  2.1093
   24MOL   H238 7184   3.502   6.260   4.271 -1.5908 -2.2921  0.1746
   24MOL   H239 7185   3.356   6.233   4.066  2.1861  1.1072  0.8630
   24MOL   H240 7186   3.210   6.276   4.148 -0.6400  0.0215 -0.1734
   24MOL   H241 7187   3.310   6.132   4.206 -1.7596  0.8622  1.2107
   24MOL   C242 7188   3.300   6.269   4.736 -0.0125  0.3205 -1.0681
   24MOL   C243 7189   3.226   6.142   4.774 -0.0543  0.4467  0.2923
   24MOL   C244 7190   3.079   6.154   4.811 -0.4282 -0.8468 -1.0657
   24MOL   O245 7191   3.032   6.258   4.856  0.2133  0.3509 -0.2433
   24MOL   O246 7192   3.014   6.045   4.789  0.0382 -0.2981 -0.2010
   24MOL   C247 7193   2.871   6.026   4.828  0.4838 -0.8372  0.6595
   24MOL   C248 7194   2.873   6.001   4.978  0.0201  0.1435  0.1041
   24MOL   H249 7195   3.405   6.244   4.746 -0.3071  0.3134  2.6445
   24MOL   H250 7196   3.280   6.339   4.817  1.1691 -0.5455 -0.0145
   24MOL   H251 7197   3.232   6.074   4.689 -2.7400 -1.1734  1.3135
   24MOL   H252 7198   2.827   6.126   4.820  2.7091  0.2200  1.2823
   24MOL   H253 7199   2.827   5.943   4.773  2.4908 -0.8016 -1.0327
   24MOL   H254 7200   2.771   5.979   5.012 -0.7459  1.3904 -1.3253
   24MOL   H255 7201   2.897   6.097   5.024 -2.8700  0.0293  1.9743
   24MOL   H256 7202   2.934   5.925   5.026 -0.9014 -0.4621  0.3481
   24MOL   C257 7203   3.284   6.066   4.889 -0.1329 -1.1168  0.3843
   24MOL   C258 7204   3.309   6.134   5.029  0.2266  0.1628  0.7341
   24MOL   C259 7205   3.435   6.225   5.026 -0.1181  0.3420 -0.1842
   24MOL   O260 7206   3.435   6.343   5.055 -0.4081 -0.3490  0.1673
   24MOL   O261 7207   3.551   6.158   4.989  0.3195 -0.3568 -0.2436
   24MOL   C262 7208   3.674   6.225   4.970  0.4487 -0.2192  1.0540
   24MOL   C263 7209   3.791   6.138   5.026 -0.1021  0.2527  0.4496
   24MOL   H264 7210   3.225   5.980   4.920  0.4821 -1.2468  1.2004
   24MOL   H265 7211   3.370   6.010   4.854  0.7505  0.2609  0.2948
   24MOL   H266 7212   3.233   6.210   5.047 -0.1162 -0.4914  2.0322
   24MOL   H267 7213   3.679   6.229   4.861  1.3805 -2.0092  0.9986
   24MOL   H268 7214   3.665   6.327   5.005  0.7768 -0.5275  2.0706
   24MOL   H269 7215   3.880   6.201   5.031 -0.0914  0.2066  0.8526
   24MOL   H270 7216   3.816   6.047   4.972 -3.7287 -1.7912  2.0527
   24MOL   H271 7217   3.783   6.097   5.127  0.7987  0.8401  0.7682
   24MOL   C272 7218   3.296   6.042   5.148  0.2204 -0.4992 -0.1091
   24MOL   C273 7219   3.410   5.940   5.188 -0.4272  0.7534  0.4608
   24MOL   C274 7220   3.413   5.820   5.081 -0.0261 -0.6621  0.6285
   24MOL   O275 7221   3.507   5.802   5.000  0.3088  0.0727 -0.8383
   24MOL   O276 7222   3.305   5.740   5.093 -0.6579 -0.0351 -0.2462
   24MOL   C277 7223   3.274   5.648   4.991 -0.2475  0.5167  0.3785
   24MOL   C278 7224   3.217   5.708   4.857  0.3034  0.1779  0.2595
   24MOL   H279 7225   3.279   6.100   5.239 -1.9508 -1.3574  0.0636
   24MOL   H280 7226   3.207   5.982   5.134  0.7697 -0.9072 -1.8979
   24MOL   H281 7227   3.506   5.993   5.180 -0.6621  0.9425 -1.3617
   24MOL   H282 7228   3.366   5.591   4.973  0.3019  1.1768  1.0706
   24MOL   H283 7229   3.202   5.577   5.031 -1.8668  0.6686 -2.1910
   24MOL   H284 7230   3.121   5.755   4.879 -0.3016 -1.0071  0.1740
   24MOL   H285 7231   3.199   5.631   4.781  1.8610  2.1376 -2.1902
   24MOL   H286 7232   3.272   5.787   4.806  0.2277 -1.0362 -1.7776
   24MOL   C287 7233   3.392   5.886   5.327 -0.0515  0.3986 -0.0378
   24MOL   C288 7234   3.424   5.981   5.432 -0.1028  0.1246  0.3337
   24MOL   C289 7235   3.427   5.910   5.564 -0.1524 -0.1331  0.6760
   24MOL   O290 7236   3.505   5.827   5.595 -0.5574  0.1313 -0.4270
   24MOL   O291 7237   3.330   5.950   5.638  0.3172  0.8077 -0.4040
   24MOL   C292 7238   3.322   5.917   5.771 -0.2970  0.2535 -0.7911
   24MOL   C293 7239   3.219   6.010   5.841  0.5569  0.2957  0.1340
   24MOL   H294 7240   3.297   5.834   5.339 -1.2413  2.8099  1.6822
   24MOL   H295 7241   3.467   5.809   5.345 -0.4781 -0.4889 -1.9601
   24MOL   H296 7242   3.522   6.029   5.424 -0.5329  1.3466  2.1233
   24MOL   H297 7243   3.309   5.809   5.771  0.4920  0.1514 -0.2875
   24MOL   H298 7244   3.416   5.942   5.821 -0.3406  0.3353 -0.7491
   24MOL   H299 7245   3.114   5.981   5.836 -0.0929  2.0476  2.6213
   24MOL   H300 7246   3.227   6.114   5.809  1.0660  0.3328  0.3772
   24MOL   H301 7247   3.229   6.010   5.949 -0.3260  2.5684  0.2395
   24MOL   H302 7248   3.345   6.055   5.437  0.4148  0.7512 -0.7303
   25MOL     C1 7249   4.483   3.026   6.758 -0.6616 -0.4507 -0.2410
   25MOL     C2 7250   4.429   2.887   6.752  0.1826 -0.3311 -0.0822
   25MOL     C3 7251   4.448   2.824   6.610  0.1566 -0.3968  0.0741
   25MOL     O4 7252   4.501   2.884   6.515  0.9677  0.0659 -0.2292
   25MOL     O5 7253   4.382   2.701   6.604 -0.6663 -0.3007  0.2885
   25MOL     C6 7254   4.356   2.643   6.486  0.3144  0.4345  0.1160
   25MOL     C7 7255   4.289   2.504   6.492  0.3821  0.7397  0.1690
   25MOL     H8 7256   4.541   3.054   6.845 -0.2586  0.7091 -0.8687
   25MOL     H9 7257   4.403   3.097   6.736  0.0310  0.7030  0.9043
   25MOL    H10 7258   4.489   2.819   6.813  0.0441 -0.6966 -0.3471
   25MOL    H11 7259   4.300   2.712   6.423 -1.7773 -1.7757 -0.5385
   25MOL    H12 7260   4.451   2.626   6.435 -0.0231 -0.3730 -0.2568
   25MOL    H13 7261   4.337   2.429   6.555  1.1632  0.7886 -0.3676
   25MOL    H14 7262   4.266   2.467   6.393 -2.5183 -1.9801  1.7481
   25MOL    H15 7263   4.193   2.512   6.545  0.2716  0.6643 -0.0220
   25MOL    H16 7264   4.558   3.045   6.680 -2.1944 -0.1853 -1.6869
   25MOL    C17 7265   4.285   2.871   6.808 -0.2581 -0.1871  0.0426
   25MOL    C18 7266   4.257   2.924   6.956  0.5050 -0.5667 -0.6375
   25MOL    C19 7267   4.351   2.866   7.056  0.3841 -0.0092  0.1179
   25MOL    O20 7268   4.385   2.750   7.045 -0.2585  0.7077  0.0957
   25MOL    O21 7269   4.401   2.952   7.151 -0.2367 -0.0258  0.4129
   25MOL    C22 7270   4.489   2.908   7.242  0.0411 -0.1902  0.3710
   25MOL    C23 7271   4.632   2.887   7.186 -0.0988  0.9457  0.3561
   25MOL    H24 7272   4.218   2.927   6.744  0.5071  0.5584 -0.1218
   25MOL    H25 7273   4.262   2.765   6.810 -0.6548 -0.0870  0.7315
   25MOL    H26 7274   4.276   3.031   6.955 -1.2291 -0.2493 -0.5213
   25MOL    H27 7275   4.493   2.988   7.317  1.4630  0.1674 -0.0666
   25MOL    H28 7276   4.454   2.820   7.296 -0.3305  0.0428  0.5136
   25MOL    H29 7277   4.701   2.835   7.253 -0.2801  2.5700  1.8713
   25MOL    H30 7278   4.673   2.982   7.150  0.1368  1.2929  1.5108
   25MOL    H31 7279   4.642   2.821   7.100 -0.3992 -1.7718  2.3276
   25MOL    C32 7280   4.114   2.916   7.013 -1.0133  0.1607 -0.2378
   25MOL    C33 7281   3.995   2.893   6.922 -0.2600  0.1869 -0.1859
   25MOL    C34 7282   3.963   3.022   6.841  0.1803  0.1881  1.0189
   25MOL    O35 7283   3.999   3.043   6.720  0.4818 -0.4128 -0.1294
   25MOL    O36 7284   3.899   3.118   6.912 -0.0889  0.2542  0.0243
   25MOL    C37 7285   3.854   3.242   6.854 -0.1958 -0.1487 -0.3718
   25MOL    C38 7286   3.774   3.327   6.961  0.5837 -0.4347 -0.4964
   25MOL    H39 7287   4.096   2.854   7.101  0.5615  1.6100  1.1453
   25MOL    H40 7288   4.096   3.009   7.067 -2.3210 -0.1273 -0.1469
   25MOL    H41 7289   4.019   2.818   6.846 -1.0628 -1.0828  0.7921
   25MOL    H42 7290   3.946   3.297   6.836  0.1351  0.0600  1.7791
   25MOL    H43 7291   3.807   3.230   6.757  0.4998  1.4979 -0.9312
   25MOL    H44 7292   3.840   3.373   7.034  0.2041 -0.1502 -0.3313
   25MOL    H45 7293   3.695   3.272   7.013  1.6462 -1.0743  0.4450
   25MOL    H46 7294   3.724   3.410   6.910  1.5423  1.3317  1.3756
   25MOL    C47 7295   3.874   2.841   7.002 -0.7429 -0.3269 -0.3781
   25MOL    C48 7296   3.872   2.687   7.035 -0.2996 -0.7133 -0.2474
   25MOL    C49 7297   3.876   2.587   6.918  0.2846 -0.3446 -0.2480
   25MOL    O50 7298   3.782   2.561   6.842  0.2719  0.1913  0.0040
   25MOL    O51 7299   4.000   2.518   6.914  0.1145  0.4406  0.8229
   25MOL    C52 7300   4.018   2.406   6.826  0.8108  0.4806 -0.3844
   25MOL    C53 7301   4.137   2.331   6.875 -0.4114 -0.8474  0.7456
   25MOL    H54 7302   3.859   2.901   7.092  2.5762 -0.5394  0.4000
   25MOL    H55 7303   3.785   2.863   6.944 -0.6272  0.0575 -0.4117
   25MOL    H56 7304   3.963   2.659   7.088  0.8691  2.7588 -0.2499
   25MOL    H57 7305   3.930   2.342   6.820  1.8126 -1.0197  0.6881
   25MOL    H58 7306   4.042   2.438   6.725  0.0746 -1.0236 -1.0630
   25MOL    H59 7307   4.112   2.288   6.972  0.3118 -0.4632  1.1067
   25MOL    H60 7308   4.230   2.385   6.890 -1.6262  1.4566  0.2127
   25MOL    H61 7309   4.177   2.252   6.812 -1.5536 -1.3316  0.6029
   25MOL    C62 7310   3.747   2.647   7.118  0.4796 -0.1323  0.1549
   25MOL    C63 7311   3.757   2.512   7.210  0.0966 -1.5680  0.4927
   25MOL    C64 7312   3.871   2.514   7.315 -0.0539 -0.2765 -0.0032
   25MOL    O65 7313   3.846   2.527   7.434  0.6191  0.1596 -0.1952
   25MOL    O66 7314   3.997   2.510   7.262  0.2274 -0.2273 -0.4731
   25MOL    C67 7315   4.114   2.512   7.344 -0.0386 -0.2350  0.4428
   25MOL    C68 7316   4.237   2.548   7.258 -0.3946  0.1539 -0.5124
   25MOL    H69 7317   3.724   2.734   7.179 -1.1978 -0.1792 -0.3909
   25MOL    H70 7318   3.655   2.641   7.059 -0.9239 -0.0077  2.2816
   25MOL    H71 7319   3.674   2.508   7.281  0.3623 -1.1764  0.8301
   25MOL    H72 7320   4.101   2.567   7.437 -0.1705 -0.6308  0.6599
   25MOL    H73 7321   4.138   2.416   7.389 -2.9877 -1.1794  0.1524
   25MOL    H74 7322   4.260   2.468   7.188 -0.4220 -0.2790 -0.0310
   25MOL    H75 7323   4.319   2.558   7.329  0.1238 -1.4387 -0.8712
   25MOL    H76 7324   4.226   2.641   7.203 -0.4545  1.7380  2.0836
   25MOL    C77 7325   3.745   2.378   7.127 -0.4670 -0.2688  0.2306
   25MOL    C78 7326   3.712   2.249   7.205  0.4481  0.9282 -0.1238
   25MOL    C79 7327   3.751   2.125   7.124  0.0123  0.0975  0.1523
   25MOL    O80 7328   3.667   2.047   7.081 -0.1664 -0.5638 -0.9850
   25MOL    O81 7329   3.880   2.122   7.101  0.2791  0.0771 -1.6948
   25MOL    C82 7330   3.927   2.014   7.019  0.4701 -0.5058 -0.0376
   25MOL    C83 7331   4.080   1.986   7.033 -0.4092 -0.6933 -0.5851
   25MOL    H84 7332   3.675   2.408   7.049 -0.7184  1.4470  1.1093
   25MOL    H85 7333   3.845   2.357   7.088 -0.3526 -0.6137  0.7056
   25MOL    H86 7334   3.778   2.240   7.291  0.8823 -0.8460 -0.6050
   25MOL    H87 7335   3.881   1.918   7.040 -0.8209  0.6262  2.5971
   25MOL    H88 7336   3.891   2.038   6.918 -1.9058 -2.4048  0.2993
   25MOL    H89 7337   4.102   1.965   7.138 -0.6296  0.8069 -0.2202
   25MOL    H90 7338   4.138   2.075   7.006  0.9077 -0.9958  1.1390
   25MOL    H91 7339   4.098   1.907   6.960  0.8644  3.0418 -4.5441
   25MOL    C92 7340   3.566   2.248   7.250  0.3109 -0.1823 -0.6687
   25MOL    C93 7341   3.555   2.248   7.399 -0.0628  0.0391  0.3574
   25MOL    C94 7342   3.600   2.111   7.443  0.2235 -0.2021 -0.0917
   25MOL    O95 7343   3.534   2.008   7.440  0.5118  0.0942  0.2782
   25MOL    O96 7344   3.714   2.111   7.502 -0.5637  0.0637 -0.4576
   25MOL    C97 7345   3.760   1.994   7.574  0.7469  0.4504 -0.3205
   25MOL    C98 7346   3.842   1.895   7.491 -0.4038 -0.8921 -0.8219
   25MOL    H99 7347   3.520   2.336   7.204 -2.8840 -1.2139  0.4670
   25MOL   H100 7348   3.503   2.166   7.216 -1.5439  1.2643 -0.7838
   25MOL   H101 7349   3.621   2.323   7.440 -0.1236  0.1809  0.1977
   25MOL   H102 7350   3.832   2.027   7.649 -1.5016 -1.0630  2.5984
   25MOL   H103 7351   3.683   1.949   7.636  2.3126 -2.1389 -0.1900
   25MOL   H104 7352   3.908   1.828   7.546  1.6727  1.9613  0.2754
   25MOL   H105 7353   3.906   1.955   7.427  0.4861  1.1305  1.8838
   25MOL   H106 7354   3.778   1.839   7.423 -0.5350  0.4731 -1.8420
   25MOL   C107 7355   3.412   2.278   7.449  0.0123  0.1828  0.7086
   25MOL   C108 7356   3.404   2.363   7.579 -0.1241 -0.1503 -0.1115
   25MOL   C109 7357   3.471   2.300   7.696 -1.0581  0.4301  0.1603
   25MOL   O110 7358   3.584   2.336   7.729 -0.1242  0.5096  0.3585
   25MOL   O111 7359   3.407   2.201   7.764  0.1331  0.0287 -0.2610
   25MOL   C112 7360   3.459   2.139   7.879 -0.2072  0.7259 -0.0208
   25MOL   C113 7361   3.367   2.181   0.090 -0.3904 -0.3336  0.4939
   25MOL   H114 7362   3.351   2.330   7.375 -1.1338 -0.0928  1.4269
   25MOL   H115 7363   3.354   2.187   7.463 -1.6518  0.8126 -1.7051
   25MOL   H116 7364   3.461   2.455   7.571 -0.9632  0.5424  1.6034
   25MOL   H117 7365   3.434   2.033   7.873  1.4423  0.2981  0.4158
   25MOL   H118 7366   3.566   2.154   7.893  0.2242 -0.1376 -2.2177
   25MOL   H119 7367   3.363   2.113   0.175  0.2301 -3.4795 -1.9121
   25MOL   H120 7368   3.260   2.183   0.069 -0.2947 -1.2647 -0.0870
   25MOL   H121 7369   3.395   2.276   0.135  1.5442 -0.4844 -0.3647
   25MOL   C122 7370   3.255   2.406   7.592  0.7164 -0.0442 -0.3877
   25MOL   C123 7371   3.215   2.475   7.728 -1.2072 -0.5761 -0.3796
   25MOL   C124 7372   3.070   2.484   7.761  0.2439  0.4947 -0.2383
   25MOL   O125 7373   3.034   2.474   7.875  0.8941 -0.1644  0.1434
   25MOL   O126 7374   2.992   2.501   7.654 -0.0566  0.4074 -0.0739
   25MOL   C127 7375   2.856   2.484   7.656 -0.6939 -0.1173 -0.2476
   25MOL   C128 7376   2.787   2.466   7.523 -0.6672  0.3429 -0.4019
   25MOL   H129 7377   3.225   2.472   7.511 -1.0990  0.0642  0.3616
   25MOL   H130 7378   3.204   2.311   7.580 -0.4348  0.5058  0.0734
   25MOL   H131 7379   3.255   2.412   7.808 -0.4431  2.6001  1.8416
   25MOL   H132 7380   2.837   2.400   7.722  1.1414 -1.6219 -1.5853
   25MOL   H133 7381   2.812   2.573   7.700 -0.0165 -0.4176  1.0745
   25MOL   H134 7382   2.690   2.432   7.560  0.0142  0.5019  1.6392
   25MOL   H135 7383   2.841   2.388   7.469 -0.5053  0.4522 -0.3963
   25MOL   H136 7384   2.785   2.559   7.466 -0.2908  0.9001  0.4776
   25MOL   C137 7385   3.283   2.618   7.751 -0.2476  0.0482  0.3272
   25MOL   C138 7386   3.255   2.740   7.656  0.7642 -0.1938 -0.4254
   25MOL   C139 7387   3.329   2.723   7.527  0.0250 -0.1853 -0.3227
   25MOL   O140 7388   3.272   2.695   7.423 -0.1404  0.5534 -1.1978
   25MOL   O141 7389   3.455   2.755   7.546  0.4204 -0.1184 -0.3276
   25MOL   C142 7390   3.544   2.753   7.429  0.1935 -0.1096 -0.4447
   25MOL   C143 7391   3.676   2.789   7.495  0.0865  0.4113  0.0456
   25MOL   H144 7392   3.252   2.645   7.853  0.1656  0.3785  0.3697
   25MOL   H145 7393   3.391   2.615   7.766  0.4640  4.6426 -2.7365
   25MOL   H146 7394   3.149   2.726   7.633  1.2325 -2.1588 -1.5886
   25MOL   H147 7395   3.548   2.660   7.371 -0.2531 -0.5847  0.2812
   25MOL   H148 7396   3.517   2.834   7.361 -2.5137 -0.8224 -0.2807
   25MOL   H149 7397   3.753   2.803   7.418  0.7214  0.8222  0.7407
   25MOL   H150 7398   3.714   2.719   7.569 -1.0962 -1.8919 -1.4852
   25MOL   H151 7399   3.669   2.882   7.550  0.3216 -0.7049  1.9919
   25MOL   C152 7400   3.270   2.879   7.716 -0.2303  0.2255  0.1646
   25MOL   C153 7401   3.168   2.914   7.831 -0.4922  0.2957  0.0938
   25MOL   C154 7402   3.028   2.913   7.761  0.4982 -0.0956  0.7054
   25MOL   O155 7403   2.932   2.837   7.796 -0.1772  0.0891  0.7692
   25MOL   O156 7404   3.013   2.990   7.656 -0.3583 -0.3931 -0.2294
   25MOL   C157 7405   2.893   2.999   7.580 -0.0770 -0.5598 -0.7774
   25MOL   C158 7406   2.871   2.872   7.488 -0.2277 -0.0827 -0.0095
   25MOL   H159 7407   3.373   2.886   7.752  0.1699  1.7513 -1.2019
   25MOL   H160 7408   3.261   2.960   7.644 -0.0337  0.6877  0.6561
   25MOL   H161 7409   3.168   2.834   7.905 -1.4714  0.9634  0.8290
   25MOL   H162 7410   2.805   3.001   7.645  2.5014 -1.4200  2.8993
   25MOL   H163 7411   2.888   3.080   7.508  1.9308 -1.4642 -1.9824
   25MOL   H164 7412   2.961   2.840   7.435 -0.2060  0.4345 -0.2919
   25MOL   H165 7413   2.801   2.900   7.408  1.3678  0.5878 -1.2045
   25MOL   H166 7414   2.826   2.790   7.543  0.2730 -1.1236 -1.1286
   25MOL   C167 7415   3.190   3.050   7.898 -0.0076 -0.0844  0.4138
   25MOL   C168 7416   3.311   3.057   0.085 -0.2484  0.2660 -0.6961
   25MOL   C169 7417   3.307   2.938   0.180 -0.0947  0.2942 -0.4102
   25MOL   O170 7418   3.403   2.865   0.205 -0.2376 -0.0765 -0.0654
   25MOL   O171 7419   3.181   2.932   0.246 -0.4327 -0.0035 -0.0838
   25MOL   C172 7420   3.160   2.824   0.343 -0.4396  0.2465  0.1443
   25MOL   C173 7421   3.105   2.701   0.271 -0.1644  0.6069  0.4721
   25MOL   H174 7422   3.206   3.116   7.812  1.1690  0.4460  1.0419
   25MOL   H175 7423   3.104   3.076   0.052  0.8452 -2.0855  2.4829
   25MOL   H176 7424   3.400   3.030   0.028  0.6909  0.3043  0.7300
   25MOL   H177 7425   3.253   2.809   0.398 -0.4801 -1.5138 -0.2126
   25MOL   H178 7426   3.106   2.857   0.431  1.4751 -1.3810  1.9679
   25MOL   H179 7427   3.180   2.682   0.194 -1.2401  0.1189 -0.4679
   25MOL   H180 7428   3.003   2.706   0.236 -0.1683 -1.4645  0.1602
   25MOL   H181 7429   3.113   2.615   0.338  0.8797 -0.6201 -1.2036
   25MOL   C182 7430   3.324   3.190   0.161 -0.1478 -0.1938  0.2815
   25MOL   C183 7431   3.384   3.305   0.087  0.3015  0.9408 -0.2693
   25MOL   C184 7432   3.531   3.287   0.042  0.5011 -0.0650 -0.8587
   25MOL   O185 7433   3.627   3.316   0.118  0.4449 -0.3164  0.1260
   25MOL   O186 7434   3.546   3.226   7.831 -0.2971  0.2388 -0.5398
   25MOL   C187 7435   3.676   3.207   7.775 -1.1044 -0.2023  0.2443
   25MOL   C188 7436   3.753   3.077   7.820  0.5861 -0.6803  0.8732
   25MOL   H189 7437   3.226   3.211   0.204  0.5625  0.6624  1.5263
   25MOL   H190 7438   3.371   3.194   0.259 -0.5873  0.2816  0.4760
   25MOL   H191 7439   3.325   3.325   7.906  0.6861 -0.2246 -0.7879
   25MOL   H192 7440   3.665   3.198   7.667  1.1124 -1.1694  0.0689
   25MOL   H193 7441   3.741   3.294   7.782 -1.9315  0.5980 -1.6622
   25MOL   H194 7442   3.799   3.089   0.010 -0.4771  0.2883  1.2562
   25MOL   H195 7443   3.831   3.049   7.749  0.6199  1.6180 -0.0081
   25MOL   H196 7444   3.693   2.986   7.818  0.8920 -0.9135  1.8699
   25MOL   C197 7445   3.376   3.432   0.173  0.4519  0.0538  0.1673
   25MOL   C198 7446   3.425   3.572   0.111  0.4452  0.3187  0.2969
   25MOL   C199 7447   3.433   3.679   0.219  0.3609 -0.0224 -0.8057
   25MOL   O200 7448   3.376   3.666   0.331 -0.5157 -0.0699 -0.7094
   25MOL   O201 7449   3.498   3.791   0.175 -0.3682  0.7920 -0.2156
   25MOL   C202 7450   3.524   3.901   0.265  0.0549 -0.3473  0.5709
   25MOL   C203 7451   3.645   3.985   0.242 -0.7199  0.0341 -0.3418
   25MOL   H204 7452   3.279   3.455   0.217  1.9265  2.4524  2.3332
   25MOL   H205 7453   3.441   3.405   0.256  1.0641 -0.8800 -0.5924
   25MOL   H206 7454   3.530   3.568   0.083  0.8642  1.2456  1.6442
   25MOL   H207 7455   3.433   3.960   0.258  0.4867  0.0709 -2.1802
   25MOL   H208 7456   3.539   3.859   0.364  2.3803 -2.0400 -0.4407
   25MOL   H209 7457   3.727   3.919   0.213 -0.8545 -0.3930  0.2383
   25MOL   H210 7458   3.674   4.038   0.332  1.5221 -0.8479 -0.5150
   25MOL   H211 7459   3.628   4.061   0.165  0.6147 -0.9722 -1.6693
   25MOL   C212 7460   3.337   3.617   7.903  0.4613 -0.1832 -0.0060
   25MOL   C213 7461   3.373   3.561   7.767 -1.2443 -0.1283 -0.1850
   25MOL   C214 7462   3.502   3.626   7.723  0.6490 -0.2348 -0.5114
   25MOL   O215 7463   3.601   3.559   7.702 -0.1269 -0.0518 -0.2031
   25MOL   O216 7464   3.504   3.760   7.712  0.1210  0.0244  0.7091
   25MOL   C217 7465   3.616   3.832   7.670  0.1364  0.0749 -0.6198
   25MOL   C218 7466   3.617   3.963   7.749  0.7142 -0.3257 -0.3297
   25MOL   H219 7467   3.231   3.602   0.016 -0.2034  2.1857 -1.5009
   25MOL   H220 7468   3.333   3.726   7.896 -0.4587 -0.3567 -2.5841
   25MOL   H221 7469   3.404   3.458   7.784 -2.5109 -0.7997 -1.8496
   25MOL   H222 7470   3.707   3.775   7.683 -0.7356 -1.8605 -2.6763
   25MOL   H223 7471   3.612   3.838   7.561  3.5854 -0.0172 -0.8188
   25MOL   H224 7472   3.612   3.944   7.857  0.6857  0.8195 -0.1218
   25MOL   H225 7473   3.526   4.017   7.724 -0.8981 -2.1760  1.3407
   25MOL   H226 7474   3.699   4.029   7.720  2.1138 -1.7306  0.3855
   25MOL   C227 7475   3.267   3.571   7.660  0.0597  0.4071  0.1233
   25MOL   C228 7476   3.298   3.484   7.531  0.3853 -0.1422 -0.8203
   25MOL   C229 7477   3.252   3.563   7.404 -0.4851 -0.0644  0.8394
   25MOL   O230 7478   3.335   3.612   7.325  0.2196 -0.5421 -0.1992
   25MOL   O231 7479   3.119   3.583   7.395  0.8037 -0.2570  0.0681
   25MOL   C232 7480   3.065   3.635   7.274  0.3613 -0.2338  0.7780
   25MOL   C233 7481   3.027   3.533   7.172 -0.2006 -0.4675  0.6251
   25MOL   H234 7482   3.170   3.544   7.701  0.0411 -1.3383 -0.9899
   25MOL   H235 7483   3.245   3.676   7.641  0.6425  0.5388  0.1611
   25MOL   H236 7484   3.406   3.474   7.523  0.1750 -3.7937  0.0560
   25MOL   H237 7485   2.973   3.689   7.298  1.0817  0.1750  2.6341
   25MOL   H238 7486   3.138   3.701   7.227  1.3557 -0.7416  1.5985
   25MOL   H239 7487   3.008   3.570   7.072 -0.2274  0.9273  1.1274
   25MOL   H240 7488   2.939   3.479   7.207  0.9157 -2.8824 -0.2154
   25MOL   H241 7489   3.102   3.459   7.147 -0.3011  0.1766 -1.6295
   25MOL   C242 7490   3.252   3.339   7.532 -0.9818 -0.5207  0.2814
   25MOL   C243 7491   3.301   3.260   7.413  0.4547  0.2072 -0.2616
   25MOL   C244 7492   3.210   3.144   7.381  0.5420 -1.2159 -0.8961
   25MOL   O245 7493   3.241   3.029   7.396  0.5921 -0.2531  0.5542
   25MOL   O246 7494   3.097   3.192   7.331 -0.1920  0.6946  0.6512
   25MOL   C247 7495   2.998   3.113   7.278  0.6356  0.0788  0.4448
   25MOL   C248 7496   3.007   3.143   7.126  0.4612  0.5260  0.4587
   25MOL   H249 7497   3.281   3.288   7.624 -1.7321  1.7247  1.7980
   25MOL   H250 7498   3.143   3.344   7.532 -0.9359  0.6459  0.7619
   25MOL   H251 7499   3.292   3.320   7.323  0.8678 -0.0243 -0.4560
   25MOL   H252 7500   3.012   3.009   7.310  1.8491  0.2653  0.5370
   25MOL   H253 7501   2.909   3.158   7.321  0.6439 -1.2090  1.8601
   25MOL   H254 7502   2.974   3.245   7.103 -1.9792 -1.0049 -3.2431
   25MOL   H255 7503   2.927   3.086   7.078  1.0524 -0.4652  0.6536
   25MOL   H256 7504   3.106   3.117   7.089  0.5364 -0.6509  1.4634
   25MOL   C257 7505   3.453   3.214   7.429 -0.3816 -0.9111  0.2540
   25MOL   C258 7506   3.535   3.227   7.299  0.1464 -1.0057  0.7120
   25MOL   C259 7507   3.467   3.151   7.181 -0.2715 -0.2212 -0.1861
   25MOL   O260 7508   3.381   3.205   7.113 -0.2189 -0.0477  0.1573
   25MOL   O261 7509   3.511   3.029   7.161 -0.7320 -0.0530 -0.1236
   25MOL   C262 7510   3.479   2.947   7.046  0.4624 -0.4798  0.4841
   25MOL   C263 7511   3.412   2.811   7.087 -0.4217 -0.4103 -0.2139
   25MOL   H264 7512   3.498   3.280   7.502 -1.4833 -0.1416  0.2493
   25MOL   H265 7513   3.468   3.108   7.451 -0.4393 -0.7810  0.9364
   25MOL   H266 7514   3.536   3.332   7.273  3.0448 -1.1362  0.1422
   25MOL   H267 7515   3.420   2.998   6.970 -1.3064 -1.7374  0.9735
   25MOL   H268 7516   3.582   2.936   7.011  0.9689  2.4240  0.9529
   25MOL   H269 7517   3.315   2.826   7.134 -1.3722 -2.1979 -1.5344
   25MOL   H270 7518   3.466   2.763   7.169  1.0239 -1.6063 -1.8192
   25MOL   H271 7519   3.396   2.740   7.005 -1.3656 -0.0920 -0.3056
   25MOL   C272 7520   3.681   3.177   7.323  0.0144 -0.1396 -0.7872
   25MOL   C273 7521   3.774   3.273   7.405  0.5156  0.4353 -0.3810
   25MOL   C274 7522   3.827   3.401   7.328  0.3737 -0.5001  0.6198
   25MOL   O275 7523   3.947   3.430   7.326 -0.3835  0.0010  0.2034
   25MOL   O276 7524   3.730   3.485   7.279  0.5148  0.1201 -0.6997
   25MOL   C277 7525   3.770   3.620   7.252 -0.1746 -0.6577  0.7025
   25MOL   C278 7526   3.661   3.714   7.217  0.8068 -0.2183 -0.2557
   25MOL   H279 7527   3.677   3.078   7.367  1.8816 -0.3441 -1.0490
   25MOL   H280 7528   3.718   3.149   7.225 -1.6324 -0.5297 -1.3210
   25MOL   H281 7529   3.712   3.315   7.483  0.3688 -1.8055  0.7447
   25MOL   H282 7530   3.808   3.641   7.351  0.3055  1.7867  0.0215
   25MOL   H283 7531   3.854   3.629   7.183 -0.8291  2.1610  0.2102
   25MOL   H284 7532   3.593   3.736   7.300 -0.8840 -2.8835 -0.8559
   25MOL   H285 7533   3.594   3.670   7.143  0.5385  2.5758 -1.7354
   25MOL   H286 7534   3.703   3.799   7.164  1.4993 -0.8125 -0.6788
   25MOL   C287 7535   3.895   3.208   7.482 -0.2402  0.4128 -0.0522
   25MOL   C288 7536   3.987   3.133   7.390  0.5205 -0.2300  0.5729
   25MOL   C289 7537   4.015   2.984   7.426  0.0994 -0.6774 -0.6172
   25MOL   O290 7538   4.002   2.894   7.350 -0.8588  0.0341  0.1355
   25MOL   O291 7539   4.055   2.971   7.551 -0.4925 -0.1356  0.2504
   25MOL   C292 7540   4.085   2.845   7.616  0.1587  0.3810  0.3437
   25MOL   C293 7541   4.215   2.777   7.567  0.2795  0.6573  1.3388
   25MOL   H294 7542   3.954   3.281   7.537  2.0273 -0.1508 -1.6854
   25MOL   H295 7543   3.849   3.137   7.550 -1.7314  0.1524 -1.3104
   25MOL   H296 7544   3.947   3.114   7.290 -1.2454 -1.8666  1.5741
   25MOL   H297 7545   4.085   2.863   7.723 -0.6885 -0.0653  0.4200
   25MOL   H298 7546   4.004   2.776   7.592 -0.0448  1.3182 -1.8304
   25MOL   H299 7547   4.226   2.763   7.459 -0.4996  1.5709  1.1339
   25MOL   H300 7548   4.231   2.676   7.604 -2.0163 -0.1929  0.1073
   25MOL   H301 7549   4.301   2.832   7.605  0.1109  1.2518  0.8775
   25MOL   H302 7550   4.083   3.186   7.386  0.6315 -0.5034 -0.5595
   26MOL     C1 7551   3.046   6.666   1.249 -0.3955 -0.4561 -0.4536
   26MOL     C2 7552   3.081   6.787   1.164  0.6658 -0.1461  0.3593
   26MOL     C3 7553   3.034   6.918   1.229  1.2004 -0.1765  0.0458
   26MOL     O4 7554   3.107   6.981   1.308  0.1116 -0.3794 -0.0716
   26MOL     O5 7555   2.904   6.942   1.209 -0.2779 -0.0633 -1.0207
   26MOL     C6 7556   2.831   7.038   1.284  0.1868 -0.4585 -0.7465
   26MOL     C7 7557   2.691   7.030   1.224 -0.1513  0.0377  0.8933
   26MOL     H8 7558   3.107   6.580   1.223  0.8543  0.7011 -1.4515
   26MOL     H9 7559   2.941   6.642   1.232 -0.3010 -2.5607  1.6268
   26MOL    H10 7560   3.189   6.793   1.177  1.1273 -0.3794 -2.9333
   26MOL    H11 7561   2.821   7.013   1.390 -0.0696  1.2057 -0.3635
   26MOL    H12 7562   2.875   7.136   1.267 -1.9749  0.5428 -0.7379
   26MOL    H13 7563   2.611   7.069   1.286  2.1139  2.5710  2.2892
   26MOL    H14 7564   2.666   6.930   1.187 -1.6469  0.3348  1.0891
   26MOL    H15 7565   2.695   7.102   1.142 -0.1570 -2.2434 -1.1713
   26MOL    H16 7566   3.051   6.692   1.355 -1.6251 -0.4959 -0.3776
   26MOL    C17 7567   3.046   6.762   1.021 -0.2543  0.1819  0.3330
   26MOL    C18 7568   3.129   6.859   0.926 -0.1867 -0.4589 -0.2541
   26MOL    C19 7569   3.040   6.965   0.856  0.1791 -0.1093  1.0527
   26MOL    O20 7570   3.011   6.964   0.735 -0.1832 -0.2949  0.0108
   26MOL    O21 7571   2.984   7.044   0.945  0.3105  0.2995 -0.2276
   26MOL    C22 7572   2.894   7.152   0.920 -0.5102 -0.2477 -0.5235
   26MOL    C23 7573   2.944   7.275   0.999  0.4257 -0.3668 -0.4828
   26MOL    H24 7574   3.039   6.656   0.997  0.0669  0.0711  0.7147
   26MOL    H25 7575   2.942   6.790   1.006 -0.0632  0.6563 -0.1434
   26MOL    H26 7576   3.197   6.911   0.994 -2.4454  1.7704  0.3590
   26MOL    H27 7577   2.880   7.178   0.815  0.6469 -0.8754 -0.8331
   26MOL    H28 7578   2.794   7.124   0.954  0.1860 -0.9039  1.0207
   26MOL    H29 7579   3.033   7.321   0.956 -0.6471  0.5684 -1.7355
   26MOL    H30 7580   2.955   7.255   1.106  1.0342  1.9276 -0.0809
   26MOL    H31 7581   2.871   7.356   1.000  2.8787  1.9243  2.0416
   26MOL    C32 7582   3.201   6.786   0.811  0.2684  0.2722  0.2589
   26MOL    C33 7583   3.304   6.682   0.876  0.0822 -0.2148 -0.2022
   26MOL    C34 7584   3.448   6.712   0.828  0.0418  0.1288 -0.1203
   26MOL    O35 7585   3.527   6.761   0.905 -1.2463  0.2897  0.0382
   26MOL    O36 7586   3.478   6.678   0.706 -0.1730  0.7155 -0.1903
   26MOL    C37 7587   3.614   6.686   0.670  0.4402 -0.3295  0.0061
   26MOL    C38 7588   3.635   6.556   0.594 -0.1816 -0.0871 -0.0171
   26MOL    H39 7589   3.125   6.739   0.749  1.6565 -0.7788 -0.6891
   26MOL    H40 7590   3.239   6.847   0.729 -1.5106  0.6060 -0.3321
   26MOL    H41 7591   3.301   6.705   0.983  0.9258  0.5543 -0.3469
   26MOL    H42 7592   3.627   6.781   0.617  0.4866 -0.5266 -0.3366
   26MOL    H43 7593   3.687   6.675   0.751 -0.3891 -2.7544  0.4397
   26MOL    H44 7594   3.588   6.463   0.627  0.7243 -0.3528  0.5433
   26MOL    H45 7595   3.740   6.527   0.594 -0.1322 -0.0197 -2.3310
   26MOL    H46 7596   3.610   6.568   0.488  0.3308  2.7883  0.1678
   26MOL    C47 7597   3.266   6.539   0.831  0.3291  0.5102 -0.6174
   26MOL    C48 7598   3.349   6.439   0.922  0.6031  0.3107  0.3229
   26MOL    C49 7599   3.371   6.310   0.853 -0.3030  0.0655  0.0826
   26MOL    O50 7600   3.295   6.261   0.764 -0.0499 -0.0626 -0.6651
   26MOL    O51 7601   3.479   6.248   0.906 -0.0860 -0.3282  0.2915
   26MOL    C52 7602   3.518   6.121   0.844 -0.1835 -1.0490  0.1307
   26MOL    C53 7603   3.452   5.999   0.911 -0.1685 -0.0700  0.0999
   26MOL    H54 7604   3.160   6.514   0.837  0.3050  0.6497 -0.4511
   26MOL    H55 7605   3.282   6.519   0.725 -0.4519 -1.2983 -0.4138
   26MOL    H56 7606   3.447   6.481   0.946  1.0975  1.6691 -3.7133
   26MOL    H57 7607   3.501   6.117   0.737 -0.6808  0.2931  0.1511
   26MOL    H58 7608   3.627   6.111   0.853 -0.1104 -1.6965 -1.3667
   26MOL    H59 7609   3.343   5.999   0.906 -0.0477 -0.5505 -2.9911
   26MOL    H60 7610   3.467   6.000   1.019 -0.5492 -0.7393  0.1654
   26MOL    H61 7611   3.479   5.902   0.870 -1.3420 -0.9295  1.2696
   26MOL    C62 7612   3.276   6.414   1.053 -0.7932  0.0756 -0.2246
   26MOL    C63 7613   3.362   6.364   1.169  0.2863 -0.2691  0.4796
   26MOL    C64 7614   3.271   6.289   1.266 -0.1394 -0.3991 -0.1174
   26MOL    O65 7615   3.250   6.167   1.254  0.1116 -0.0937 -0.0339
   26MOL    O66 7616   3.218   6.370   1.356  0.0016  0.6206  0.2181
   26MOL    C67 7617   3.129   6.307   1.454 -0.0631 -0.3028  0.1344
   26MOL    C68 7618   3.188   6.310   1.599 -0.3485 -0.5748  0.0369
   26MOL    H69 7619   3.242   6.515   1.072 -0.1160  0.7805 -2.5668
   26MOL    H70 7620   3.199   6.342   1.024 -1.9430  0.2557  2.3073
   26MOL    H71 7621   3.429   6.287   1.131  1.9535 -0.3157  3.3358
   26MOL    H72 7622   3.035   6.361   1.447  0.7527  0.9823 -1.1315
   26MOL    H73 7623   3.107   6.201   1.444 -1.2811 -0.1175  0.7087
   26MOL    H74 7624   3.121   6.257   1.666 -1.3505  2.3964  1.4885
   26MOL    H75 7625   3.206   6.410   1.639 -1.8227  0.9513 -2.9725
   26MOL    H76 7626   3.285   6.261   1.606  1.6837  2.6410 -3.4968
   26MOL    C77 7627   3.442   6.482   1.231  0.1042  0.3059  0.3441
   26MOL    C78 7628   3.567   6.451   1.310  0.1750  0.1216  0.5028
   26MOL    C79 7629   3.650   6.345   1.237 -0.5959  0.3784  0.2421
   26MOL    O80 7630   3.695   6.244   1.289  0.0924 -0.0920 -0.4017
   26MOL    O81 7631   3.685   6.385   1.116  0.9629  0.0034 -0.3682
   26MOL    C82 7632   3.776   6.310   1.028  0.0621 -0.1920 -0.2273
   26MOL    C83 7633   3.771   6.369   0.889 -0.0439 -0.2010  0.3769
   26MOL    H84 7634   3.466   6.555   1.154 -1.3327  1.2116  0.7404
   26MOL    H85 7635   3.378   6.541   1.297  1.4278  0.4566  1.5303
   26MOL    H86 7636   3.626   6.543   1.311 -0.5587  0.5832  1.5820
   26MOL    H87 7637   3.872   6.336   1.073 -0.0501  0.3822 -0.3294
   26MOL    H88 7638   3.756   6.202   1.030  0.3898 -0.2452  3.1321
   26MOL    H89 7639   3.856   6.338   0.830  0.8608  0.9542  1.0305
   26MOL    H90 7640   3.769   6.478   0.897  0.7784 -0.0150 -1.7926
   26MOL    H91 7641   3.681   6.334   0.838  0.8901 -2.9889  0.5646
   26MOL    C92 7642   3.541   6.427   1.459 -0.2417  0.4934  0.3626
   26MOL    C93 7643   3.660   6.440   1.553 -0.0868  0.0152 -0.2610
   26MOL    C94 7644   3.634   6.371   1.686  0.5798 -0.4755  0.1487
   26MOL    O95 7645   3.544   6.285   1.701 -0.1534  0.1471 -0.1341
   26MOL    O96 7646   3.727   6.414   1.782  0.0663 -0.0176  0.0369
   26MOL    C97 7647   3.711   6.394   1.922 -0.3733  0.1417 -0.2531
   26MOL    C98 7648   3.830   6.306   1.966 -0.5480 -0.0464  0.4870
   26MOL    H99 7649   3.456   6.489   1.484 -0.2428  1.3863 -1.7403
   26MOL   H100 7650   3.505   6.326   1.480 -0.2654  0.4456  0.1028
   26MOL   H101 7651   3.741   6.382   1.510  0.4870 -0.3573  1.3061
   26MOL   H102 7652   3.704   6.494   1.962  0.7350 -0.7802  2.3291
   26MOL   H103 7653   3.619   6.346   1.955 -0.8707  1.8285  0.8504
   26MOL   H104 7654   3.808   6.258   2.061  0.6705 -0.6227  0.4835
   26MOL   H105 7655   3.923   6.364   1.963 -0.4031 -0.2010  1.6631
   26MOL   H106 7656   3.844   6.225   1.895 -3.0362  0.9416 -1.1944
   26MOL   C107 7657   3.709   6.593   1.565  0.7625  0.2335 -0.6412
   26MOL   C108 7658   3.620   6.683   1.663 -0.1937 -0.0827 -0.0914
   26MOL   C109 7659   3.493   6.736   1.587 -0.0974  0.2211  0.3206
   26MOL   O110 7660   3.380   6.726   1.636 -0.1105  0.2775 -0.0926
   26MOL   O111 7661   3.523   6.795   1.468 -0.1291 -0.1797 -0.3451
   26MOL   C112 7662   3.415   6.850   1.387 -0.3337  0.2176 -0.0553
   26MOL   C113 7663   3.456   6.869   1.238  0.1688 -0.9766 -0.6108
   26MOL   H114 7664   3.814   6.597   1.592  0.6089 -1.1129  0.1979
   26MOL   H115 7665   3.715   6.637   1.466 -0.2779  2.9436  0.4653
   26MOL   H116 7666   3.578   6.624   1.745  3.2095  0.0424  1.8384
   26MOL   H117 7667   3.333   6.779   1.389 -1.0600  1.0466 -0.3173
   26MOL   H118 7668   3.381   6.943   1.433  0.5499  0.4082  0.2255
   26MOL   H119 7669   3.484   6.776   1.187  0.9800 -1.6993  1.1117
   26MOL   H120 7670   3.544   6.934   1.236 -0.4429 -0.1846 -4.0563
   26MOL   H121 7671   3.382   6.929   1.184  1.0049  0.9030  0.2747
   26MOL   C122 7672   3.705   6.797   1.727 -0.0058  0.1644  1.0169
   26MOL   C123 7673   3.751   6.779   1.882  0.3124 -0.0719  0.1591
   26MOL   C124 7674   3.622   6.791   1.965 -0.6467 -0.7225 -0.2084
   26MOL   O125 7675   3.590   6.894   2.013  0.0597  0.4388 -0.2486
   26MOL   O126 7676   3.562   6.677   1.976  0.2196  0.2190 -0.3743
   26MOL   C127 7677   3.428   6.669   2.034  0.6220  0.6851 -0.3253
   26MOL   C128 7678   3.374   6.531   2.057  0.9051 -0.8713  0.0908
   26MOL   H129 7679   3.790   6.813   1.661 -1.1317 -0.6647 -0.6826
   26MOL   H130 7680   3.653   6.892   1.719  0.3461  0.2977  0.2165
   26MOL   H131 7681   3.797   6.680   1.884  1.6153  0.4960 -0.9202
   26MOL   H132 7682   3.429   6.719   2.131  1.4349  1.3440 -0.6628
   26MOL   H133 7683   3.353   6.725   1.979 -0.1153  1.4565  1.4108
   26MOL   H134 7684   3.275   6.530   2.101  0.9384 -1.4585  0.1575
   26MOL   H135 7685   3.428   6.473   2.132  1.6645  1.1101  1.1113
   26MOL   H136 7686   3.376   6.482   1.959 -1.1987  0.3417 -0.5932
   26MOL   C137 7687   3.860   6.880   1.918  0.0636 -0.5596 -1.1294
   26MOL   C138 7688   3.975   6.832   2.007 -0.0439 -0.6777 -0.1743
   26MOL   C139 7689   3.927   6.786   2.145 -1.1354  0.1117 -0.1115
   26MOL   O140 7690   3.927   6.860   2.243 -0.0102 -0.0163  0.1764
   26MOL   O141 7691   3.871   6.666   2.144 -0.3344  0.0172  0.2866
   26MOL   C142 7692   3.861   6.594   2.263  0.0004 -0.5081  0.3221
   26MOL   C143 7693   3.742   6.642   2.347  0.4411  0.0499 -0.1969
   26MOL   H144 7694   3.904   6.920   1.826  0.6962  1.1811 -0.1066
   26MOL   H145 7695   3.813   6.963   1.972 -1.3187 -1.6042 -0.7166
   26MOL   H146 7696   4.008   6.744   1.952  1.5015 -0.1523 -0.1281
   26MOL   H147 7697   3.857   6.487   2.247 -0.6189 -0.2624 -1.3035
   26MOL   H148 7698   3.952   6.620   2.316 -0.4743 -0.4950  1.1381
   26MOL   H149 7699   3.652   6.613   2.292  1.3893 -1.2604 -1.1236
   26MOL   H150 7700   3.724   6.749   2.354  0.3309  0.0752 -0.7688
   26MOL   H151 7701   3.748   6.607   2.450  0.9983  2.3084  0.5457
   26MOL   C152 7702   4.081   6.945   2.019  0.2521 -0.3254 -0.4869
   26MOL   C153 7703   4.223   6.897   1.986  0.4250 -0.4319  0.5549
   26MOL   C154 7704   4.276   6.797   2.092 -0.4071  0.5076 -0.0011
   26MOL   O155 7705   4.353   6.709   2.061  0.0613 -0.2083 -0.3023
   26MOL   O156 7706   4.246   6.832   2.215 -0.1661 -0.0891 -0.9043
   26MOL   C157 7707   4.260   6.738   2.322  0.0745  0.2279  0.7384
   26MOL   C158 7708   4.232   6.817   2.457  0.4409 -1.1102 -0.2003
   26MOL   H159 7709   4.064   7.028   1.949  2.8371  1.1842  0.5864
   26MOL   H160 7710   4.081   6.996   2.116  2.2808 -0.9627 -0.1269
   26MOL   H161 7711   4.200   6.829   1.903 -0.7028  1.5893 -0.8306
   26MOL   H162 7712   4.190   6.656   2.305  0.3744 -0.1765  1.4429
   26MOL   H163 7713   4.358   6.690   2.314  0.5223  1.4616 -1.8083
   26MOL   H164 7714   4.286   6.911   2.461 -2.2275  0.5105 -1.1258
   26MOL   H165 7715   4.262   6.760   2.545 -0.8708 -0.2210  0.8324
   26MOL   H166 7716   4.129   6.844   2.476  0.6601 -0.6655  0.3694
   26MOL   C167 7717   4.326   7.011   1.952  0.1712 -0.9796  0.7604
   26MOL   C168 7718   4.456   6.959   1.886  0.4880 -0.0013  0.4315
   26MOL   C169 7719   4.574   7.060   1.910  0.4432  0.7961 -0.3352
   26MOL   O170 7720   4.600   7.152   1.832 -0.6580 -0.1095 -0.3391
   26MOL   O171 7721   4.645   7.044   2.020 -0.5073  0.3021 -0.0003
   26MOL   C172 7722   4.736   7.142   2.064 -0.5931  0.9468  0.4716
   26MOL   C173 7723   4.866   7.066   2.112  0.3964 -0.7673  0.3377
   26MOL   H174 7724   4.289   7.084   1.880 -0.6764  0.4141  2.5803
   26MOL   H175 7725   4.353   7.068   2.041 -0.1306  0.0364  0.2039
   26MOL   H176 7726   4.487   6.865   1.932  0.7346 -0.9472 -1.6335
   26MOL   H177 7727   4.768   7.199   1.977 -1.0833  0.6279  0.0849
   26MOL   H178 7728   4.702   7.200   2.150 -0.1596  1.0717  0.5624
   26MOL   H179 7729   4.914   7.126   2.190 -3.4605 -0.9368  2.9966
   26MOL   H180 7730   4.947   7.051   2.040 -1.0146 -1.8843 -1.0557
   26MOL   H181 7731   4.841   6.974   2.164  0.5415 -1.8597 -1.4794
   26MOL   C182 7732   4.438   6.917   1.739  0.2697  0.6367  0.2066
   26MOL   C183 7733   4.492   6.774   1.708  0.4255  0.2509  0.5268
   26MOL   C184 7734   4.639   6.744   1.731 -0.9509  0.3412 -0.5812
   26MOL   O185 7735   4.674   6.634   1.782 -0.3392 -0.0495  0.5036
   26MOL   O186 7736   4.727   6.836   1.685  0.2124 -0.2928 -0.3854
   26MOL   C187 7737   4.867   6.822   1.702 -0.4071  0.4377  0.0752
   26MOL   C188 7738   4.926   6.950   1.658 -0.0293 -0.0880  0.3359
   26MOL   H189 7739   4.333   6.922   1.711  0.0697 -0.8480  0.6797
   26MOL   H190 7740   4.482   6.983   1.663 -0.7361  1.0444 -0.0244
   26MOL   H191 7741   4.438   6.709   1.776  0.5821 -0.5900 -0.1440
   26MOL   H192 7742   4.891   6.803   1.806  0.9523  0.9056 -0.1385
   26MOL   H193 7743   4.890   6.739   1.636  2.7055  0.2472  1.3151
   26MOL   H194 7744   4.894   7.034   1.721  1.1888 -0.3289  1.2896
   26MOL   H195 7745   4.888   6.976   1.559  1.5806  0.1788 -0.2226
   26MOL   H196 7746   5.035   6.944   1.653 -0.0408 -2.2465  1.9797
   26MOL   C197 7747   4.462   6.746   1.563  0.7260 -0.2116  0.0732
   26MOL   C198 7748   4.307   6.734   1.517  0.5392 -0.1634 -0.0752
   26MOL   C199 7749   4.211   6.675   1.623 -0.6198  0.3295  0.1130
   26MOL   O200 7750   4.105   6.731   1.650 -0.3149 -0.1673 -0.3540
   26MOL   O201 7751   4.255   6.559   1.679 -0.5796 -0.3812  0.1223
   26MOL   C202 7752   4.167   6.465   1.742 -0.6745 -0.2424  0.5816
   26MOL   C203 7753   4.240   6.336   1.755  0.2261  0.3882 -0.2816
   26MOL   H204 7754   4.506   6.819   1.496 -0.8951 -0.2262 -1.0512
   26MOL   H205 7755   4.515   6.656   1.532  0.4096 -0.8511  1.3545
   26MOL   H206 7756   4.271   6.834   1.493  0.4038 -0.3953 -0.8244
   26MOL   H207 7757   4.130   6.487   1.843  2.7190  0.0863  1.8257
   26MOL   H208 7758   4.075   6.454   1.684 -1.4927 -1.7723  2.1174
   26MOL   H209 7759   4.329   6.333   1.818  0.4945  0.5733 -0.6487
   26MOL   H210 7760   4.257   6.296   1.655 -1.2912 -2.2059  0.4543
   26MOL   H211 7761   4.171   6.260   1.792  1.7501 -1.2933 -0.8270
   26MOL   C212 7762   4.293   6.652   1.378 -0.3866 -0.7938 -0.0032
   26MOL   C213 7763   4.326   6.737   1.249 -0.6587  0.0957 -0.3319
   26MOL   C214 7764   4.236   6.847   1.221  0.6172 -0.9584 -0.5091
   26MOL   O215 7765   4.113   6.839   1.243 -0.1387  0.2099 -0.0296
   26MOL   O216 7766   4.300   6.953   1.168  0.1873 -0.2194  0.5013
   26MOL   C217 7767   4.223   7.060   1.116  0.6291  0.2755  0.6249
   26MOL   C218 7768   4.222   7.056   0.963 -0.6532  0.0691  0.5404
   26MOL   H219 7769   4.338   6.555   1.396  0.4684 -0.4471 -0.2373
   26MOL   H220 7770   4.188   6.625   1.365 -0.3678  0.8655 -4.4787
   26MOL   H221 7771   4.424   6.780   1.272 -1.6630  3.0686 -1.3831
   26MOL   H222 7772   4.117   7.057   1.142  0.5947 -1.2487  0.3417
   26MOL   H223 7773   4.276   7.145   1.160  3.8942  0.6128 -3.5941
   26MOL   H224 7774   4.320   7.036   0.920 -1.5363  0.7646 -1.8548
   26MOL   H225 7775   4.192   7.157   0.934  0.3132  0.2214  0.0466
   26MOL   H226 7776   4.148   6.984   0.930 -0.6362  0.0849  0.4679
   26MOL   C227 7777   4.346   6.648   1.119 -0.3589  0.2635 -0.0577
   26MOL   C228 7778   4.226   6.550   1.082  1.1082  0.1486 -0.1889
   26MOL   C229 7779   4.228   6.421   1.161  0.8835  0.3825 -0.3219
   26MOL   O230 7780   4.336   6.368   1.197 -0.3756 -0.0451  0.0201
   26MOL   O231 7781   4.105   6.374   1.188 -0.2154  0.3172 -0.4967
   26MOL   C232 7782   4.081   6.267   1.283  0.8820  0.2013  0.5359
   26MOL   C233 7783   4.052   6.309   1.431 -0.7474 -0.0619 -0.2377
   26MOL   H234 7784   4.373   6.708   1.032  1.1808  2.8834  2.1269
   26MOL   H235 7785   4.435   6.586   1.114  1.2645  2.0648  4.2739
   26MOL   H236 7786   4.133   6.591   1.122  0.8232 -0.3523 -0.3365
   26MOL   H237 7787   3.992   6.215   1.249  0.4254 -0.3943  2.5639
   26MOL   H238 7788   4.167   6.201   1.272  1.7638  1.3868  0.1977
   26MOL   H239 7789   4.128   6.378   1.467 -0.5381 -0.1376 -0.5388
   26MOL   H240 7790   4.056   6.226   1.502 -0.0999 -0.9520 -1.3125
   26MOL   H241 7791   3.950   6.348   1.436 -0.3382  1.0633 -0.5042
   26MOL   C242 7792   4.218   6.507   0.932 -0.0942  0.2480  0.4699
   26MOL   C243 7793   4.180   6.619   0.838 -0.8318 -0.1816  0.2068
   26MOL   C244 7794   4.033   6.668   0.859 -0.0235  0.1796 -0.1651
   26MOL   O245 7795   3.951   6.638   0.776  0.1364  0.2801 -0.3969
   26MOL   O246 7796   4.001   6.748   0.973 -0.1343  0.1095  0.9975
   26MOL   C247 7797   3.868   6.762   1.013  0.0830  0.0362 -0.5533
   26MOL   C248 7798   3.824   6.679   1.124  0.2717 -0.7649 -0.5069
   26MOL   H249 7799   4.317   6.478   0.897  0.3288  2.7349 -0.5182
   26MOL   H250 7800   4.152   6.421   0.923  1.6589 -0.9932 -0.9186
   26MOL   H251 7801   4.232   6.710   0.865 -2.8600  0.6176  1.5675
   26MOL   H252 7802   3.858   6.865   1.049 -2.8137  0.2417 -1.8131
   26MOL   H253 7803   3.806   6.770   0.924  0.3369 -0.5635 -0.7888
   26MOL   H254 7804   3.716   6.678   1.140  0.2625 -0.2353 -0.5548
   26MOL   H255 7805   3.872   6.702   1.219 -0.4613 -0.4892 -0.1943
   26MOL   H256 7806   3.835   6.571   1.107  0.0568 -1.1245  1.4375
   26MOL   C257 7807   4.207   6.587   0.686  0.4070  0.1254  0.6782
   26MOL   C258 7808   4.148   6.464   0.613  0.0735  0.1752 -0.2696
   26MOL   C259 7809   4.196   6.333   0.677  0.0005  0.1205  0.3611
   26MOL   O260 7810   4.121   6.260   0.735 -0.1609 -0.4738 -0.3282
   26MOL   O261 7811   4.332   6.310   0.665  0.0503  0.2271  0.3785
   26MOL   C262 7812   4.385   6.185   0.715  0.0021  0.1607 -0.1518
   26MOL   C263 7813   4.437   6.212   0.851 -0.1103  0.3054  0.2399
   26MOL   H264 7814   4.186   6.680   0.633  1.8218  0.7950  1.2513
   26MOL   H265 7815   4.316   6.580   0.683  0.4053 -1.9633  3.2413
   26MOL   H266 7816   4.042   6.481   0.630 -0.2595  0.9590 -2.9234
   26MOL   H267 7817   4.312   6.104   0.706  0.1570 -0.1492  1.2075
   26MOL   H268 7818   4.465   6.145   0.652 -0.1379  0.1106 -0.2960
   26MOL   H269 7819   4.507   6.295   0.860 -0.3443  0.5060  0.2039
   26MOL   H270 7820   4.492   6.123   0.884 -0.9309  0.4533  2.0602
   26MOL   H271 7821   4.355   6.229   0.922  0.5494  4.4864  0.0996
   26MOL   C272 7822   4.163   6.461   0.463 -0.0109 -0.7452  0.5593
   26MOL   C273 7823   4.036   6.392   0.394  0.1044  0.3376 -0.4824
   26MOL   C274 7824   4.012   6.247   0.430  0.4752  0.2403  0.2137
   26MOL   O275 7825   4.094   6.157   0.399 -0.6205 -0.2400 -0.1312
   26MOL   O276 7826   3.890   6.220   0.488  0.3677  0.2178 -0.4070
   26MOL   C277 7827   3.850   6.088   0.520  0.3330  0.5493  0.0776
   26MOL   C278 7828   3.892   6.047   0.661  0.1516  0.3762  0.1749
   26MOL   H279 7829   4.168   6.562   0.422 -1.4267 -1.3016 -1.0323
   26MOL   H280 7830   4.259   6.418   0.435  0.0822 -0.7430  0.8747
   26MOL   H281 7831   3.952   6.436   0.448 -0.4233  0.4207 -1.3615
   26MOL   H282 7832   3.741   6.090   0.513  0.3376 -0.9272 -0.5550
   26MOL   H283 7833   3.898   6.029   0.442 -1.7712  0.5168 -1.2532
   26MOL   H284 7834   3.993   6.005   0.653  0.4634  1.0615  0.5207
   26MOL   H285 7835   3.831   5.969   0.706 -1.7620  1.6162 -0.2459
   26MOL   H286 7836   3.899   6.124   0.737 -3.0866  2.1113 -1.2197
   26MOL   C287 7837   4.026   6.404   0.239 -0.4604  0.2925  0.8162
   26MOL   C288 7838   3.890   6.459   0.194  0.5316  0.4017  0.1461
   26MOL   C289 7839   3.855   6.596   0.235  0.2003  0.3965  0.3371
   26MOL   O290 7840   3.949   6.663   0.288  0.1723 -0.1359  0.4604
   26MOL   O291 7841   3.728   6.645   0.210 -0.9790 -0.4989  0.0497
   26MOL   C292 7842   3.698   6.777   0.228 -0.5126  1.2511 -0.9017
   26MOL   C293 7843   3.548   6.800   0.218  0.6653  0.0065 -0.1483
   26MOL   H294 7844   4.105   6.475   0.210 -0.8501  0.7909  0.9710
   26MOL   H295 7845   4.049   6.315   0.180 -0.0787  0.9381 -0.0232
   26MOL   H296 7846   3.878   6.450   0.086 -1.7192  1.0443  0.3309
   26MOL   H297 7847   3.739   6.815   0.322 -0.3507  0.8184 -0.7974
   26MOL   H298 7848   3.753   6.836   0.155  3.8566 -0.2828  0.9849
   26MOL   H299 7849   3.505   6.771   0.122 -0.3906 -2.6196  1.0731
   26MOL   H300 7850   3.530   6.906   0.230  0.1883  0.1118 -1.6505
   26MOL   H301 7851   3.494   6.737   0.289  1.9961  0.7179  1.5269
   26MOL   H302 7852   3.808   6.395   0.227  0.2529  0.4904 -0.3767
   27MOL     C1 7853   2.521   2.505   0.667 -0.3857 -0.1473 -0.8511
   27MOL     C2 7854   2.639   2.426   0.740 -0.5285  0.8290  0.7873
   27MOL     C3 7855   2.655   2.286   0.679  1.2129  0.1221  0.5406
   27MOL     O4 7856   2.742   2.263   0.598  0.0514  0.2764  0.5791
   27MOL     O5 7857   2.546   2.201   0.714 -0.4797  0.1592  0.9024
   27MOL     C6 7858   2.533   2.071   0.650 -0.1738  0.2208  0.2312
   27MOL     C7 7859   2.441   1.998   0.746 -0.7048 -0.0501 -0.1694
   27MOL     H8 7860   2.535   2.612   0.685 -2.3837  0.2798 -1.7591
   27MOL     H9 7861   2.418   2.477   0.687 -0.8116  1.8886 -0.0389
   27MOL    H10 7862   2.730   2.472   0.703  0.7517 -2.0342  0.1792
   27MOL    H11 7863   2.487   2.092   0.554  0.6162  0.0777 -0.1826
   27MOL    H12 7864   2.635   2.032   0.639 -0.6845 -0.9807 -0.4282
   27MOL    H13 7865   2.404   1.907   0.700 -0.4596  0.8102 -2.1141
   27MOL    H14 7866   2.357   2.063   0.774  0.0446  0.3441  1.2443
   27MOL    H15 7867   2.489   1.976   0.842 -3.7984  1.0925  1.7204
   27MOL    H16 7868   2.543   2.486   0.562  1.8025 -3.7370  0.1582
   27MOL    C17 7869   2.627   2.415   0.893  1.0514 -0.5019  0.1435
   27MOL    C18 7870   2.586   2.551   0.967 -0.3883  0.0612 -0.2771
   27MOL    C19 7871   2.710   2.646   0.958 -0.5328  0.2342  0.5644
   27MOL    O20 7872   2.827   2.612   0.939 -0.0611 -0.4047 -0.6376
   27MOL    O21 7873   2.669   2.774   0.988 -0.2152  0.2466  0.1895
   27MOL    C22 7874   2.753   2.887   1.001  0.1020  0.5430 -0.0646
   27MOL    C23 7875   2.768   2.913   1.155  0.4158  0.3749 -0.5773
   27MOL    H24 7876   2.561   2.339   0.936  0.0316  0.3047  0.0243
   27MOL    H25 7877   2.731   2.393   0.915  1.8451  1.1595 -1.8333
   27MOL    H26 7878   2.503   2.591   0.908  0.4607  1.9391 -0.2413
   27MOL    H27 7879   2.843   2.872   0.943  0.5682  1.0584  0.5193
   27MOL    H28 7880   2.706   2.969   0.947  0.6721 -0.3506 -1.9318
   27MOL    H29 7881   2.665   2.914   1.192  0.0934  1.0488 -1.4752
   27MOL    H30 7882   2.819   3.005   1.181  0.6592 -0.4066  1.8375
   27MOL    H31 7883   2.818   2.828   1.201  0.5044  0.4179 -0.5951
   27MOL    C32 7884   2.523   2.547   1.107  0.1837 -0.2413  0.3539
   27MOL    C33 7885   2.606   2.484   1.216  0.5945 -0.5448 -0.2704
   27MOL    C34 7886   2.560   2.335   1.226 -0.5859  0.0272 -0.0914
   27MOL    O35 7887   2.453   2.288   1.205 -0.1073 -0.5837  0.1359
   27MOL    O36 7888   2.670   2.262   1.261 -0.5013 -0.2189 -0.5442
   27MOL    C37 7889   2.672   2.122   1.271 -0.1401  0.4814  0.1867
   27MOL    C38 7890   2.686   2.054   1.138  0.1634 -0.0886  0.0734
   27MOL    H39 7891   2.505   2.650   1.139  0.7004  0.3310 -1.1710
   27MOL    H40 7892   2.421   2.507   1.107 -0.3986  1.2087 -0.9689
   27MOL    H41 7893   2.710   2.489   1.185  0.1209  1.3468 -1.6799
   27MOL    H42 7894   2.762   2.105   1.331  0.1866  1.4323 -0.0187
   27MOL    H43 7895   2.595   2.077   1.333  0.0489  2.3679  1.8515
   27MOL    H44 7896   2.783   2.072   1.091  0.1376 -0.0908  0.0187
   27MOL    H45 7897   2.609   2.088   1.068 -1.1354 -0.7350  1.1764
   27MOL    H46 7898   2.685   1.947   1.153 -3.9747 -0.2550 -0.7559
   27MOL    C47 7899   2.588   2.554   1.354  0.2610  0.4009 -0.3885
   27MOL    C48 7900   2.685   2.513   1.462  0.0483 -0.3039 -0.0744
   27MOL    C49 7901   2.619   2.454   1.580  0.2153 -0.2303 -0.4952
   27MOL    O50 7902   2.632   2.505   1.693 -0.5840  0.4965 -0.0000
   27MOL    O51 7903   2.550   2.348   1.550 -0.1330 -0.5011  0.3487
   27MOL    C52 7904   2.466   2.278   1.644 -0.1928  0.2420  0.2613
   27MOL    C53 7905   2.384   2.176   1.559 -0.1871 -0.2292  0.5466
   27MOL    H54 7906   2.595   2.661   1.335  0.3150  0.4863  0.1038
   27MOL    H55 7907   2.485   2.535   1.384  0.9698 -1.2331  1.0609
   27MOL    H56 7908   2.733   2.425   1.420  0.5177  0.1804 -0.5571
   27MOL    H57 7909   2.533   2.229   1.716  1.4272  1.2157 -0.5579
   27MOL    H58 7910   2.398   2.348   1.692 -3.3262 -2.5668  0.0942
   27MOL    H59 7911   2.334   2.106   1.627 -1.0297 -0.9409 -0.7867
   27MOL    H60 7912   2.444   2.120   1.487  0.3610 -0.2452  1.0067
   27MOL    H61 7913   2.303   2.228   1.508 -0.4828 -0.4716  0.7659
   27MOL    C62 7914   2.794   2.623   1.484  0.3285  0.7152  0.4830
   27MOL    C63 7915   2.905   2.591   1.577  0.0794 -0.1099 -0.1567
   27MOL    C64 7916   3.000   2.712   1.602  0.4143  1.3936 -0.2062
   27MOL    O65 7917   3.021   2.784   1.509  0.1691 -0.3433  0.3442
   27MOL    O66 7918   3.039   2.722   1.728  0.2482  0.2158 -0.6970
   27MOL    C67 7919   3.136   2.810   1.772 -0.3311  0.4256 -0.5019
   27MOL    C68 7920   3.175   2.797   1.919  0.1544 -0.3375 -0.3781
   27MOL    H69 7921   2.835   2.651   1.386  0.9734  1.5623  0.9906
   27MOL    H70 7922   2.741   2.709   1.524 -3.8378 -1.6165  0.2261
   27MOL    H71 7923   2.857   2.583   1.675 -2.2012  2.0185 -1.0630
   27MOL    H72 7924   3.217   2.821   1.701  0.3525 -0.1755  0.1662
   27MOL    H73 7925   3.087   2.908   1.768 -1.1232  0.0420 -0.4167
   27MOL    H74 7926   3.259   2.863   1.938  0.5932 -1.1357  0.5371
   27MOL    H75 7927   3.215   2.696   1.935 -1.1282 -0.7312  0.4018
   27MOL    H76 7928   3.097   2.819   1.992 -0.2498 -1.3068 -0.5059
   27MOL    C77 7929   2.978   2.462   1.539 -0.2343  0.0524  0.0361
   27MOL    C78 7930   3.032   2.465   1.391 -0.0728  0.5430  0.7174
   27MOL    C79 7931   2.988   2.350   1.307 -0.4492  0.6725  0.7678
   27MOL    O80 7932   2.984   2.235   1.363 -0.4862 -0.2741 -0.2974
   27MOL    O81 7933   2.957   2.383   1.173 -0.1668  0.1919  0.1947
   27MOL    C82 7934   2.956   2.280   1.074 -0.3068 -0.2828  0.3436
   27MOL    C83 7935   3.038   2.332   0.958 -0.2606 -0.1117 -0.0436
   27MOL    H84 7936   3.061   2.447   1.609  0.8804  2.5956 -0.6458
   27MOL    H85 7937   2.911   2.379   1.556  0.3563 -0.6260 -0.8794
   27MOL    H86 7938   2.990   2.549   1.336 -0.1153  0.2572  0.3128
   27MOL    H87 7939   2.993   2.185   1.114  1.0796 -1.0279 -2.5643
   27MOL    H88 7940   2.856   2.266   1.032  0.1789  2.2894 -1.7893
   27MOL    H89 7941   2.985   2.406   0.897 -0.6911  0.0423  0.5065
   27MOL    H90 7942   3.071   2.259   0.885  0.7198 -0.9716  1.2459
   27MOL    H91 7943   3.131   2.375   0.995  1.9916 -1.9848 -3.3386
   27MOL    C92 7944   3.176   2.492   1.388  0.6755 -0.4544  0.0566
   27MOL    C93 7945   3.230   2.544   1.255 -0.2373 -0.7745  0.2189
   27MOL    C94 7946   3.360   2.481   1.205  0.0080  0.1685 -0.4571
   27MOL    O95 7947   3.364   2.400   1.109 -0.6355 -0.0292 -0.7648
   27MOL    O96 7948   3.460   2.520   1.280  0.4286  0.3955 -0.1820
   27MOL    C97 7949   3.589   2.465   1.248 -0.3630 -0.1689  0.0111
   27MOL    C98 7950   3.690   2.570   1.266  0.1541 -0.5006  0.5608
   27MOL    H99 7951   3.198   2.566   1.465 -0.7647  0.4038 -0.3417
   27MOL   H100 7952   3.220   2.401   1.428 -0.8353 -1.6267 -0.8679
   27MOL   H101 7953   3.155   2.510   1.183 -1.2940  0.2204  0.8269
   27MOL   H102 7954   3.604   2.382   1.318 -1.1037  1.2312  1.8496
   27MOL   H103 7955   3.601   2.417   1.151 -1.6461 -0.4349 -0.0252
   27MOL   H104 7956   3.675   2.661   1.208  1.4385 -0.4968  0.2308
   27MOL   H105 7957   3.789   2.533   1.242  0.6504  1.3777 -0.3890
   27MOL   H106 7958   3.687   2.605   1.370  0.2809  1.6810 -0.1388
   27MOL   C107 7959   3.225   2.702   1.237 -0.0176 -0.1992 -0.3524
   27MOL   C108 7960   3.246   2.762   1.087  0.7264  0.3996 -0.5358
   27MOL   C109 7961   3.243   2.917   1.102 -0.5429 -0.1735  0.7834
   27MOL   O110 7962   3.337   2.983   1.084  0.1442 -0.4886 -0.5605
   27MOL   O111 7963   3.125   2.964   1.120  0.4120  0.5546 -0.1418
   27MOL   C112 7964   3.098   3.105   1.113  0.0090  0.3712  0.2170
   27MOL   C113 7965   3.048   3.139   0.973 -0.1574  0.9678  0.2687
   27MOL   H114 7966   3.121   2.720   1.264 -0.2715 -1.2347 -0.6193
   27MOL   H115 7967   3.298   2.738   1.309 -0.5535  1.5964 -0.6997
   27MOL   H116 7968   3.350   2.733   1.077  0.2014 -1.3876 -0.9719
   27MOL   H117 7969   3.020   3.125   1.186  0.1600  0.3167  0.3957
   27MOL   H118 7970   3.181   3.170   1.143  0.1410  0.3623 -0.1292
   27MOL   H119 7971   3.129   3.136   0.901 -1.1132 -0.1540 -0.7748
   27MOL   H120 7972   3.024   3.244   0.959  0.0968  1.0730  0.6363
   27MOL   H121 7973   2.965   3.076   0.939  0.2324  0.1598  0.7930
   27MOL   C122 7974   3.160   2.703   0.972 -0.4245  0.6454 -0.6356
   27MOL   C123 7975   3.193   2.761   0.835 -2.1092 -0.1180 -0.0493
   27MOL   C124 7976   3.092   2.737   0.722 -0.1234  0.1321  0.5899
   27MOL   O125 7977   3.029   2.830   0.676  0.4491 -0.0823  0.6049
   27MOL   O126 7978   3.086   2.613   0.672 -0.8360  0.4377  0.2968
   27MOL   C127 7979   2.982   2.574   0.579  0.2567  0.3592  0.0424
   27MOL   C128 7980   3.010   2.434   0.541 -0.3955  0.5048  0.9115
   27MOL   H129 7981   3.181   2.597   0.972 -0.1108  0.7036 -1.2580
   27MOL   H130 7982   3.057   2.709   1.007  0.4494  0.3433  2.0508
   27MOL   H131 7983   3.193   2.869   0.842  0.5880 -0.1733  1.4779
   27MOL   H132 7984   2.880   2.586   0.615 -0.0405 -1.2636 -0.2197
   27MOL   H133 7985   2.982   2.646   0.497 -1.3307 -0.3023 -0.5640
   27MOL   H134 7986   2.960   2.395   0.452  2.0184  1.0962 -0.7448
   27MOL   H135 7987   2.977   2.367   0.620 -0.1126  0.9805  1.4386
   27MOL   H136 7988   3.117   2.422   0.524 -0.5906  1.9387 -1.7434
   27MOL   C137 7989   3.343   2.729   0.789 -0.0377 -0.3314 -0.5260
   27MOL   C138 7990   3.394   2.812   0.674  0.3613 -0.4240 -0.2832
   27MOL   C139 7991   3.483   2.733   0.577 -0.0859  0.7067 -0.8137
   27MOL   O140 7992   3.606   2.732   0.587 -0.1170  0.2692 -0.3473
   27MOL   O141 7993   3.415   2.665   0.487 -0.0562  0.5370 -0.6113
   27MOL   C142 7994   3.489   2.584   0.398  0.4999 -0.8461 -0.2244
   27MOL   C143 7995   3.405   2.467   0.350 -0.6879  0.6667 -0.0831
   27MOL   H144 7996   3.408   2.729   0.876  0.1140  2.0186 -0.6095
   27MOL   H145 7997   3.346   2.624   0.759  1.1473  0.5269 -3.6586
   27MOL   H146 7998   3.304   2.836   0.618  0.6308  0.4715 -0.3436
   27MOL   H147 7999   3.521   2.641   0.311  0.4354 -1.7859 -0.8673
   27MOL   H148 8000   3.578   2.557   0.454 -0.6003 -0.9622  1.5106
   27MOL   H149 8001   3.344   2.486   0.262  1.6529  0.1839 -1.8616
   27MOL   H150 8002   3.353   2.408   0.426  0.0929 -0.6744 -0.5759
   27MOL   H151 8003   3.484   2.404   0.310  0.3592  2.0410 -0.2156
   27MOL   C152 8004   3.454   2.940   0.739  0.2700 -0.4279 -0.2063
   27MOL   C153 8005   3.464   3.068   0.650 -0.2926  0.2139  0.3142
   27MOL   C154 8006   3.587   3.067   0.558  0.3630 -0.1236  0.8761
   27MOL   O155 8007   3.697   3.095   0.604 -0.3762  0.0582 -0.2585
   27MOL   O156 8008   3.551   3.024   0.434  0.4717  0.2225  0.6880
   27MOL   C157 8009   3.639   3.028   0.326 -0.3757 -0.2191 -0.0121
   27MOL   C158 8010   3.740   2.914   0.325  0.2628 -0.0388  0.3245
   27MOL   H159 8011   3.388   2.968   0.821  1.6377  0.6309  0.5613
   27MOL   H160 8012   3.554   2.920   0.779  0.1142 -0.8830 -0.0417
   27MOL   H161 8013   3.382   3.061   0.579 -0.6526  1.0097  0.6401
   27MOL   H162 8014   3.577   3.013   0.238  1.3310  2.3238 -1.7091
   27MOL   H163 8015   3.695   3.121   0.314 -1.2256 -0.1341 -4.2394
   27MOL   H164 8016   3.817   2.924   0.249  0.9620 -0.1000  1.0209
   27MOL   H165 8017   3.697   2.814   0.312  1.9856 -0.8304  0.5231
   27MOL   H166 8018   3.786   2.908   0.424  1.6553 -0.3363 -0.3308
   27MOL   C167 8019   3.436   3.205   0.730  0.1137  0.5547 -0.2715
   27MOL   C168 8020   3.369   3.325   0.668  0.3387 -0.0217 -0.4032
   27MOL   C169 8021   3.226   3.300   0.639  0.5445  0.0701  0.7434
   27MOL   O170 8022   3.127   3.339   0.706 -0.2188  0.0149 -0.5272
   27MOL   O171 8023   3.208   3.228   0.521 -0.2059  0.3618  0.0835
   27MOL   C172 8024   3.081   3.176   0.473 -0.6090 -0.6213 -0.2829
   27MOL   C173 8025   3.020   3.287   0.394 -0.4271  0.8003  0.2661
   27MOL   H174 8026   3.380   3.172   0.818 -0.0597  1.5171 -0.0223
   27MOL   H175 8027   3.533   3.238   0.768  1.7615  1.8117 -5.2676
   27MOL   H176 8028   3.365   3.405   0.741  0.6294  0.1312 -0.5558
   27MOL   H177 8029   3.112   3.098   0.404  1.0144 -1.3172  1.1893
   27MOL   H178 8030   3.020   3.138   0.555  1.8371  1.4086  2.6099
   27MOL   H179 8031   3.088   3.332   0.321 -1.3420 -1.7995 -2.3004
   27MOL   H180 8032   2.979   3.370   0.451  1.3020  1.4547  0.5861
   27MOL   H181 8033   2.930   3.251   0.345 -1.7245  0.4050  2.8709
   27MOL   C182 8034   3.440   3.391   0.548 -0.3018 -0.2004  0.4575
   27MOL   C183 8035   3.577   3.462   0.590  0.0552  0.0324  0.6757
   27MOL   C184 8036   3.568   3.573   0.700  0.0275 -0.3705  0.0082
   27MOL   O185 8037   3.575   3.536   0.816  0.3375  0.0596  0.0815
   27MOL   O186 8038   3.569   3.704   0.658 -0.3003  0.0823 -0.4354
   27MOL   C187 8039   3.611   3.820   0.734  0.2629  0.0486 -0.4630
   27MOL   C188 8040   3.762   3.839   0.715 -0.1994 -0.5503 -0.0287
   27MOL   H189 8041   3.465   3.310   0.481  0.7058  0.4559  0.0305
   27MOL   H190 8042   3.376   3.463   0.496  1.3130 -0.6591 -2.2411
   27MOL   H191 8043   3.637   3.383   0.636  0.6664  0.7228  1.0800
   27MOL   H192 8044   3.569   3.908   0.685  1.7640  0.6632 -0.6621
   27MOL   H193 8045   3.590   3.813   0.841  0.7461 -1.0462 -0.4297
   27MOL   H194 8046   3.791   3.829   0.610 -0.4924  0.3107 -0.2010
   27MOL   H195 8047   3.818   3.761   0.766  0.9386 -0.2804 -0.8580
   27MOL   H196 8048   3.801   3.938   0.737  0.5220 -1.1788  1.5583
   27MOL   C197 8049   3.666   3.503   0.469 -0.3775 -0.0358 -0.4043
   27MOL   C198 8050   3.817   3.518   0.493 -1.0343 -0.2681  0.3561
   27MOL   C199 8051   3.881   3.577   0.362 -0.3126  0.2664 -0.1452
   27MOL   O200 8052   3.921   3.698   0.355 -0.0100  0.3444  0.3606
   27MOL   O201 8053   3.885   3.487   0.258 -0.2009  0.5134  1.1595
   27MOL   C202 8054   3.928   3.530   0.130 -0.4737  0.4492  0.3594
   27MOL   C203 8055   3.815   3.585   0.048  0.1691  0.2926  0.4789
   27MOL   H204 8056   3.650   3.419   0.402  0.5883 -1.2610  0.8766
   27MOL   H205 8057   3.620   3.593   0.426 -2.0272 -1.0571 -0.8403
   27MOL   H206 8058   3.835   3.604   0.558  1.7025  2.1451 -3.3371
   27MOL   H207 8059   4.002   3.610   0.143  0.6110 -0.2046 -1.6552
   27MOL   H208 8060   3.991   3.450   0.091 -0.0163  1.1728 -0.4234
   27MOL   H209 8061   3.842   3.594   7.851  0.0794  2.3730  0.5989
   27MOL   H210 8062   3.786   3.684   0.083 -0.0201  0.7584 -0.9756
   27MOL   H211 8063   3.726   3.527   0.072  0.0857 -0.0295 -0.6088
   27MOL   C212 8064   3.888   3.387   0.537 -0.1435 -0.5805 -0.7915
   27MOL   C213 8065   4.040   3.385   0.565  0.3650 -0.1188 -0.4454
   27MOL   C214 8066   4.131   3.379   0.444 -0.3959 -0.8215  1.1049
   27MOL   O215 8067   4.217   3.468   0.424 -0.3925  0.7453  0.4083
   27MOL   O216 8068   4.110   3.274   0.366  0.0289 -0.0089  0.0692
   27MOL   C217 8069   4.189   3.249   0.247 -0.0744  0.2288  0.3003
   27MOL   C218 8070   4.152   3.127   0.177  0.0195  0.3125  0.1736
   27MOL   H219 8071   3.832   3.358   0.625  1.8990 -1.2094  0.3441
   27MOL   H220 8072   3.871   3.306   0.466  0.5496 -2.1261  0.7775
   27MOL   H221 8073   4.065   3.480   0.613  1.3904 -0.1253 -0.9628
   27MOL   H222 8074   4.157   3.333   0.185  1.9245  0.1960 -0.8084
   27MOL   H223 8075   4.296   3.249   0.263 -0.1883 -2.2930  1.2101
   27MOL   H224 8076   4.044   3.122   0.159  0.0984 -0.8938 -0.0194
   27MOL   H225 8077   4.169   3.043   0.245  0.2051  0.2028 -0.0089
   27MOL   H226 8078   4.209   3.131   0.085 -2.4913  0.8124 -1.4091
   27MOL   C227 8079   4.083   3.271   0.661 -0.0953  0.5053 -0.4183
   27MOL   C228 8080   4.197   3.286   0.755 -0.1953 -0.2159  0.3537
   27MOL   C229 8081   4.255   3.153   0.810  0.5976 -0.2704 -0.5431
   27MOL   O230 8082   4.228   3.109   0.921  0.2084 -0.1487  0.0427
   27MOL   O231 8083   4.324   3.084   0.716 -0.0178  0.0050 -0.9294
   27MOL   C232 8084   4.376   2.956   0.749 -0.6526 -0.0611  0.1866
   27MOL   C233 8085   4.515   2.952   0.805  0.4011 -0.0846 -0.0106
   27MOL   H234 8086   3.993   3.251   0.718  0.0602  0.9731 -0.0072
   27MOL   H235 8087   4.095   3.176   0.609 -1.2975  0.8505 -1.3626
   27MOL   H236 8088   4.276   3.324   0.691 -0.9796  0.9967  0.1004
   27MOL   H237 8089   4.304   2.910   0.816 -1.3945 -0.2408 -0.7212
   27MOL   H238 8090   4.366   2.906   0.653  0.6766  0.3099 -0.1527
   27MOL   H239 8091   4.552   2.853   0.831 -0.1195 -0.0514  0.8662
   27MOL   H240 8092   4.534   3.009   0.896  0.8089 -0.8921  0.4082
   27MOL   H241 8093   4.583   2.996   0.732  0.3636 -0.0187 -0.0063
   27MOL   C242 8094   4.170   3.392   0.860 -0.9361 -0.0493 -0.5678
   27MOL   C243 8095   4.298   3.459   0.908 -0.1501 -0.0550 -0.0962
   27MOL   C244 8096   4.404   3.371   0.979 -0.1224  0.2627 -0.4121
   27MOL   O245 8097   4.510   3.350   0.926 -0.3011 -0.0773  0.1854
   27MOL   O246 8098   4.368   3.334   1.107  0.5328 -0.1181  0.0354
   27MOL   C247 8099   4.445   3.237   1.174  0.9825  0.2397 -0.1180
   27MOL   C248 8100   4.560   3.309   1.242 -0.0185 -0.2209  0.2394
   27MOL   H249 8101   4.114   3.474   0.814  2.2153  1.4722 -1.8489
   27MOL   H250 8102   4.121   3.348   0.946 -1.4247  0.2175 -0.7075
   27MOL   H251 8103   4.351   3.496   0.820  1.4999 -0.9326  0.5026
   27MOL   H252 8104   4.375   3.193   1.244  1.2898  0.4428  0.3225
   27MOL   H253 8105   4.472   3.154   1.109 -2.3695  0.4092 -1.8274
   27MOL   H254 8106   4.523   3.360   1.331  1.6091  2.0410 -0.3225
   27MOL   H255 8107   4.605   3.370   1.163 -2.3539  2.4011  0.8678
   27MOL   H256 8108   4.636   3.239   1.278  0.1777 -0.9638 -1.5747
   27MOL   C257 8109   4.265   3.585   0.991  0.6506  0.4951  0.2549
   27MOL   C258 8110   4.372   3.666   1.062 -0.6105  0.0126  0.1911
   27MOL   C259 8111   4.304   3.785   1.136  0.2911 -0.4810 -0.2857
   27MOL   O260 8112   4.208   3.844   1.081 -0.4001  0.1762 -0.1179
   27MOL   O261 8113   4.361   3.827   1.246  0.8506  0.2709  0.3231
   27MOL   C262 8114   4.309   3.938   1.323  0.5124 -0.5451 -0.2692
   27MOL   C263 8115   4.402   3.954   1.449  0.1313  0.2611 -0.1428
   27MOL   H264 8116   4.210   3.650   0.923 -1.2856 -0.1004  1.2229
   27MOL   H265 8117   4.190   3.548   1.061  2.3372 -0.3499  1.6742
   27MOL   H266 8118   4.415   3.611   1.146 -1.3945 -0.1658  0.4816
   27MOL   H267 8119   4.316   4.033   1.270 -1.3549 -0.1495  0.1501
   27MOL   H268 8120   4.203   3.916   1.341  0.6917  1.4121  3.4868
   27MOL   H269 8121   4.377   4.047   1.499  0.6346 -1.9861  4.5919
   27MOL   H270 8122   4.504   3.953   1.412 -0.3369  5.0803 -1.9503
   27MOL   H271 8123   4.380   3.870   1.515 -1.5471  0.1879 -0.7784
   27MOL   C272 8124   4.500   3.711   0.982 -0.3975  0.2866  0.1728
   27MOL   C273 8125   4.632   3.758   1.061 -0.2527 -0.4463  0.4708
   27MOL   C274 8126   4.733   3.801   0.964 -0.1584  0.3346  0.1488
   27MOL   O275 8127   4.743   3.922   0.944  0.4132  0.0135 -0.2498
   27MOL   O276 8128   4.800   3.700   0.908  0.3068  0.3378  0.2522
   27MOL   C277 8129   4.897   3.728   0.806 -0.0594  0.2520 -0.1600
   27MOL   C278 8130   5.010   3.655   0.864  0.0442  0.3090 -0.1157
   27MOL   H279 8131   4.531   3.624   0.924  0.2887 -0.0060  0.9701
   27MOL   H280 8132   4.473   3.792   0.914  1.5384 -0.2193 -1.2446
   27MOL   H281 8133   4.596   3.848   1.111 -1.6944 -1.2149  0.8537
   27MOL   H282 8134   4.865   3.676   0.716  0.3469 -0.7172  0.2540
   27MOL   H283 8135   4.915   3.835   0.792  0.1892  0.7428  3.5661
   27MOL   H284 8136   4.982   3.552   0.889  2.4492 -1.5885 -4.6069
   27MOL   H285 8137   5.048   3.699   0.956  1.6146 -1.1801 -0.0357
   27MOL   H286 8138   5.097   3.649   0.799  0.4841  2.0340  0.2943
   27MOL   C287 8139   4.691   3.650   1.160  0.1228  0.0560  0.2905
   27MOL   C288 8140   4.808   3.693   1.244  0.3187 -0.2582  0.4201
   27MOL   C289 8141   4.828   3.631   1.385  0.4366 -0.6106 -0.5073
   27MOL   O290 8142   4.751   3.551   1.433 -0.0257  0.0114  0.4688
   27MOL   O291 8143   4.945   3.667   1.446  0.7547 -0.0921 -0.4888
   27MOL   C292 8144   4.985   3.608   1.571  0.8521  0.5873  0.0999
   27MOL   C293 8145   4.914   3.680   1.692  1.0429  0.9132 -0.1816
   27MOL   H294 8146   4.618   3.617   1.233 -0.9278 -0.3134 -0.9053
   27MOL   H295 8147   4.719   3.556   1.111 -1.1537 -1.0593  1.6619
   27MOL   H296 8148   4.896   3.685   1.180 -1.8057 -1.7780 -2.4191
   27MOL   H297 8149   4.976   3.499   1.571 -1.9120  0.7641  0.4925
   27MOL   H298 8150   5.093   3.619   1.581  0.7758  0.1011  1.5400
   27MOL   H299 8151   4.936   3.786   1.699 -0.5656  1.2534 -0.0593
   27MOL   H300 8152   4.941   3.623   1.781 -0.1705 -0.4685 -0.6737
   27MOL   H301 8153   4.806   3.668   1.696  0.9150  2.1028 -0.0747
   27MOL   H302 8154   4.800   3.799   1.265  2.2371 -0.0478  0.2204
   28MOL     C1 8155   3.064   3.721   5.017  0.1037 -0.1459  0.7984
   28MOL     C2 8156   2.962   3.612   4.999  0.0063  0.5899  0.2808
   28MOL     C3 8157   3.005   3.491   5.088  0.1049  0.0522  0.0624
   28MOL     O4 8158   2.927   3.452   5.172 -0.1225  0.1140  0.6171
   28MOL     O5 8159   3.124   3.436   5.063 -0.1497  0.9834  0.7328
   28MOL     C6 8160   3.180   3.338   5.141  0.1220  0.1741  0.2866
   28MOL     C7 8161   3.323   3.306   5.097 -0.3613 -0.4602 -0.4817
   28MOL     H8 8162   3.088   3.792   4.938  0.3557  0.7794  1.6795
   28MOL     H9 8163   3.152   3.696   5.076  0.3171 -0.7127  0.2353
   28MOL    H10 8164   2.863   3.639   5.036 -0.4278 -1.0540  0.3831
   28MOL    H11 8165   3.183   3.390   5.236  0.3006  1.2430 -0.2877
   28MOL    H12 8166   3.123   3.245   5.141  1.1281 -0.4535 -0.9549
   28MOL    H13 8167   3.371   3.403   5.087 -2.7651  0.6989 -1.1773
   28MOL    H14 8168   3.314   3.246   5.006 -4.1356 -0.9152  0.0870
   28MOL    H15 8169   3.366   3.244   5.176  0.9065  0.7114 -0.2366
   28MOL    H16 8170   3.008   3.784   5.088 -1.7217 -0.1612 -0.5853
   28MOL    C17 8171   2.947   3.581   4.845 -0.0711  0.4898 -0.2209
   28MOL    C18 8172   2.810   3.516   4.805 -0.1318  0.4977 -0.2952
   28MOL    C19 8173   2.831   3.382   4.740 -0.1154 -0.4013 -0.6578
   28MOL    O20 8174   2.829   3.364   4.621  0.3077 -0.1507  1.0081
   28MOL    O21 8175   2.837   3.288   4.835 -0.2886  0.0160 -0.1081
   28MOL    C22 8176   2.876   3.158   4.797  0.0198  0.0664  0.0965
   28MOL    C23 8177   3.030   3.139   4.789  0.4029 -0.7325 -0.3168
   28MOL    H24 8178   2.957   3.671   4.784 -0.1605 -0.1661 -1.2108
   28MOL    H25 8179   3.028   3.515   4.816 -1.8323 -1.5452 -0.6438
   28MOL    H26 8180   2.744   3.513   4.892  2.1965  0.4696  1.5091
   28MOL    H27 8181   2.822   3.091   4.864 -0.7287  1.2845  0.7299
   28MOL    H28 8182   2.827   3.141   4.701 -2.7639  0.9377  1.3144
   28MOL    H29 8183   3.066   3.053   4.734  0.4115 -2.1369  1.8483
   28MOL    H30 8184   3.065   3.120   4.890  0.9967 -1.3287 -0.6357
   28MOL    H31 8185   3.077   3.234   4.762 -0.6510 -0.3988 -1.0283
   28MOL    C32 8186   2.723   3.616   4.718  0.0558  0.4012  0.2584
   28MOL    C33 8187   2.583   3.573   4.678  0.0639  0.3740  0.0976
   28MOL    C34 8188   2.515   3.684   4.593 -0.8927  0.0555  0.6356
   28MOL    O35 8189   2.528   3.801   4.624 -0.2564  0.1461  0.1391
   28MOL    O36 8190   2.435   3.639   4.495 -0.2700  0.0481 -0.4373
   28MOL    C37 8191   2.362   3.733   4.421 -0.0068  0.1504  0.3149
   28MOL    C38 8192   2.262   3.657   4.339  0.2376  0.2804  0.4129
   28MOL    H39 8193   2.721   3.713   4.768 -0.9464  0.7686 -0.4733
   28MOL    H40 8194   2.776   3.616   4.622  0.6500 -0.1535  0.5832
   28MOL    H41 8195   2.595   3.493   4.605 -0.7333  0.3390  0.0018
   28MOL    H42 8196   2.322   3.810   4.487  1.0909 -0.7145  2.0501
   28MOL    H43 8197   2.432   3.775   4.348 -2.8468  0.7093 -2.1587
   28MOL    H44 8198   2.196   3.604   4.409 -0.2156  1.6576  1.0425
   28MOL    H45 8199   2.316   3.578   4.287 -0.3500  1.6144 -2.3046
   28MOL    H46 8200   2.211   3.725   4.270 -0.7218 -0.3036  0.5343
   28MOL    C47 8201   2.486   3.523   4.789  0.4588 -0.7424  0.9205
   28MOL    C48 8202   2.351   3.445   4.751  0.2621  0.7156 -0.3315
   28MOL    C49 8203   2.256   3.424   4.867 -0.3094  1.0151  0.1485
   28MOL    O50 8204   2.224   3.311   4.911  0.2793 -0.5195  0.0393
   28MOL    O51 8205   2.225   3.545   4.916  0.1308  0.3640 -0.2266
   28MOL    C52 8206   2.149   3.541   5.040  0.1960  0.3087  0.3050
   28MOL    C53 8207   2.002   3.519   5.009 -0.5571 -0.1298  0.0555
   28MOL    H54 8208   2.548   3.460   4.852  0.8099 -1.7196 -0.3832
   28MOL    H55 8209   2.472   3.609   4.856 -1.5403 -1.2911  1.2509
   28MOL    H56 8210   2.307   3.513   4.679  1.0158  1.9901  0.3943
   28MOL    H57 8211   2.189   3.459   5.100 -1.7799 -1.6691 -0.9988
   28MOL    H58 8212   2.144   3.633   5.097 -0.1077  1.4909 -1.5702
   28MOL    H59 8213   1.935   3.544   5.091 -2.4682 -0.6104 -1.3252
   28MOL    H60 8214   1.971   3.416   4.995  1.4726 -0.4423 -2.5782
   28MOL    H61 8215   1.967   3.579   4.925  2.0727  0.4575 -0.6865
   28MOL    C62 8216   2.399   3.312   4.678  0.5416  0.3415 -0.3852
   28MOL    C63 8217   2.281   3.238   4.611 -0.7029  0.0707  0.5442
   28MOL    C64 8218   2.327   3.094   4.579 -0.8586 -0.0809  0.2113
   28MOL    O65 8219   2.440   3.069   4.545 -0.3682 -0.2916  0.6184
   28MOL    O66 8220   2.226   3.008   4.584 -0.0028 -0.2697 -0.4000
   28MOL    C67 8221   2.250   2.869   4.573 -0.3099  0.1872  0.2239
   28MOL    C68 8222   2.123   2.793   4.559 -0.0602 -0.4399  0.2991
   28MOL    H69 8223   2.471   3.330   4.598 -0.0904  1.1398 -0.7921
   28MOL    H70 8224   2.448   3.244   4.747  1.2190 -0.5170 -1.6868
   28MOL    H71 8225   2.202   3.221   4.684  0.0556  0.5788  1.4937
   28MOL    H72 8226   2.305   2.845   4.482 -1.4999 -1.0850 -0.1747
   28MOL    H73 8227   2.308   2.838   4.660  1.2567  1.4779 -0.3501
   28MOL    H74 8228   2.069   2.804   4.652 -3.6366 -3.5996 -1.2582
   28MOL    H75 8229   2.144   2.689   4.531 -0.6149  0.0205 -1.8933
   28MOL    H76 8230   2.054   2.827   4.482  0.7787  1.4462  0.3752
   28MOL    C77 8231   2.219   3.313   4.485 -0.1951  0.2482  0.3144
   28MOL    C78 8232   2.063   3.299   4.472  0.0255 -0.2575 -0.0524
   28MOL    C79 8233   2.022   3.312   4.330  0.1243  0.4356 -0.0159
   28MOL    O80 8234   1.941   3.229   4.280  0.1625  0.9206  0.3400
   28MOL    O81 8235   2.081   3.415   4.261  0.7247 -0.5870  0.6635
   28MOL    C82 8236   2.088   3.400   4.120  0.2055 -0.6701 -0.3209
   28MOL    C83 8237   1.982   3.483   4.052  0.8924 -0.0339  0.0375
   28MOL    H84 8238   2.233   3.421   4.481  1.8422  0.0729  2.0405
   28MOL    H85 8239   2.271   3.285   4.393  0.8558  0.5612  0.8153
   28MOL    H86 8240   2.033   3.198   4.499  1.1252 -0.1981  1.3890
   28MOL    H87 8241   2.189   3.433   4.094  0.1850 -0.8395 -0.6315
   28MOL    H88 8242   2.096   3.295   4.092  0.3016 -0.6167 -0.4974
   28MOL    H89 8243   1.979   3.591   4.066  2.0519  0.0610 -0.4086
   28MOL    H90 8244   1.887   3.459   4.100  0.2686  0.6279 -0.8286
   28MOL    H91 8245   1.980   3.459   3.946 -1.1314  2.7574 -0.6177
   28MOL    C92 8246   1.991   3.403   4.567  0.1065  0.3609  0.2872
   28MOL    C93 8247   1.844   3.369   4.604  0.4088  0.9631  0.1552
   28MOL    C94 8248   1.743   3.363   4.485 -0.2849 -0.5769  0.3053
   28MOL    O95 8249   1.686   3.255   4.457  0.4821 -0.9142  0.4068
   28MOL    O96 8250   1.719   3.485   4.429 -0.6021  0.5972  0.6416
   28MOL    C97 8251   1.608   3.497   4.342  1.1891 -0.4936  0.6285
   28MOL    C98 8252   1.568   3.649   4.336 -0.0093 -0.0927  0.4456
   28MOL    H99 8253   2.040   3.415   4.664  1.3584  0.5342 -0.3553
   28MOL   H100 8254   1.998   3.496   4.511  1.3688  0.3631  0.4457
   28MOL   H101 8255   1.850   3.269   4.648  0.8267  1.3043  0.8807
   28MOL   H102 8256   1.638   3.462   4.244  0.2135 -1.1416  0.5573
   28MOL   H103 8257   1.521   3.439   4.372  1.4661 -2.2946 -1.8779
   28MOL   H104 8258   1.475   3.658   4.279  0.9190 -2.4695 -1.5238
   28MOL   H105 8259   1.639   3.712   4.284 -0.0987 -1.4145 -1.3176
   28MOL   H106 8260   1.541   3.671   4.439 -2.1343 -0.2022 -0.0571
   28MOL   C107 8261   1.790   3.449   4.726 -0.6628 -0.1396  0.9169
   28MOL   C108 8262   1.639   3.435   4.771  0.2389  0.1795 -0.2550
   28MOL   C109 8263   1.601   3.536   4.880 -0.1411  0.8781 -0.0513
   28MOL   O110 8264   1.532   3.496   4.972 -0.5445  0.0114  0.0699
   28MOL   O111 8265   1.639   3.658   4.859  0.3148 -0.3269  0.4782
   28MOL   C112 8266   1.580   3.762   4.942 -0.0704  0.3424 -0.0616
   28MOL   C113 8267   1.454   3.819   4.876 -0.2302  0.1585  0.5536
   28MOL   H114 8268   1.858   3.431   4.810  0.7809  2.9408  0.4815
   28MOL   H115 8269   1.809   3.554   4.703  0.1742 -0.4527  0.1553
   28MOL   H116 8270   1.584   3.474   4.685  0.1290  1.0084  0.1867
   28MOL   H117 8271   1.570   3.735   5.047  1.5208  0.9576  0.2631
   28MOL   H118 8272   1.663   3.833   4.946  1.1995 -0.9029 -2.7846
   28MOL   H119 8273   1.416   3.907   4.928  1.2411  1.4391 -0.4935
   28MOL   H120 8274   1.367   3.753   4.871  0.2527 -0.4690  0.3436
   28MOL   H121 8275   1.463   3.853   4.773 -1.0197 -0.7395  0.1757
   28MOL   C122 8276   1.580   3.289   4.778  0.6430  1.0033 -0.2598
   28MOL   C123 8277   1.575   3.211   4.919 -0.2952  0.0077 -0.1019
   28MOL   C124 8278   1.723   3.193   4.972  0.3529  0.3122  1.1829
   28MOL   O125 8279   1.764   3.246   5.075  0.0512 -0.1158  0.8803
   28MOL   O126 8280   1.797   3.113   4.909 -0.3586 -0.7016 -0.0734
   28MOL   C127 8281   1.935   3.116   4.926  0.2456 -0.5541 -0.6001
   28MOL   C128 8282   2.001   3.016   4.834 -0.4043  0.0853 -0.4986
   28MOL   H129 8283   1.476   3.292   4.743  0.3374  0.2700  0.5620
   28MOL   H130 8284   1.638   3.231   4.707 -1.4438 -0.9879 -0.3898
   28MOL   H131 8285   1.524   3.271   4.995  1.4886 -0.1113  1.2368
   28MOL   H132 8286   1.975   3.214   4.899  0.2800 -0.5106 -0.3871
   28MOL   H133 8287   1.958   3.084   5.027  1.1917  0.1033 -0.5971
   28MOL   H134 8288   2.103   3.038   4.805 -0.3318 -1.0002 -1.0786
   28MOL   H135 8289   1.944   3.002   4.742 -0.8061  1.7813 -0.5307
   28MOL   H136 8290   2.013   2.922   4.888  0.9890  0.8136  0.4882
   28MOL   C137 8291   1.492   3.077   4.906 -0.4164  0.0105  0.6749
   28MOL   C138 8292   1.413   3.022   5.025 -0.1555 -0.1988 -0.0610
   28MOL   C139 8293   1.291   3.108   5.042 -0.1897 -0.1938  0.2224
   28MOL   O140 8294   1.270   3.177   5.148 -0.7293 -0.2963 -0.2949
   28MOL   O141 8295   1.219   3.112   4.925 -0.2285 -0.3475  0.4760
   28MOL   C142 8296   1.091   3.165   4.929 -0.3528 -0.1965 -0.1917
   28MOL   C143 8297   0.990   3.062   4.859 -0.1601  0.6984 -0.6650
   28MOL   H144 8298   1.433   3.077   4.814  2.4735  0.2817 -1.2238
   28MOL   H145 8299   1.564   2.998   4.886 -0.4933  0.1927 -0.3832
   28MOL   H146 8300   1.373   2.927   4.991  1.1872 -0.5420 -0.7060
   28MOL   H147 8301   1.053   3.160   5.031 -1.5150 -1.0681 -0.6673
   28MOL   H148 8302   1.089   3.268   4.894 -1.3363  0.5619  2.0004
   28MOL   H149 8303   0.902   3.046   4.921  0.9777 -1.3234  0.4860
   28MOL   H150 8304   1.043   2.967   4.850  0.8857  0.9173  2.4382
   28MOL   H151 8305   0.960   3.085   4.757 -2.0751  0.2364 -0.2224
   28MOL   C152 8306   1.496   3.007   5.152  0.2085 -0.6829  0.4522
   28MOL   C153 8307   1.425   2.945   5.276 -0.7807  0.3109 -0.1722
   28MOL   C154 8308   1.508   2.975   5.401  0.1084  0.7718  1.0387
   28MOL   O155 8309   1.454   3.042   5.487  0.1379  0.0067 -0.5147
   28MOL   O156 8310   1.630   2.918   5.400  0.3490 -0.5207  0.0230
   28MOL   C157 8311   1.725   2.923   5.506 -0.0309  0.2334 -0.5205
   28MOL   C158 8312   1.836   3.008   5.453  0.5295 -1.1661 -0.6396
   28MOL   H159 8313   1.581   2.941   5.138  0.3627 -0.9213  2.3720
   28MOL   H160 8314   1.536   3.105   5.178 -0.4971 -0.4964  0.8575
   28MOL   H161 8315   1.330   2.997   5.281 -0.6233  0.9363 -2.9856
   28MOL   H162 8316   1.670   2.951   5.595  0.7441 -1.2364  0.4486
   28MOL   H163 8317   1.758   2.821   5.526  0.1936  0.1725 -1.1670
   28MOL   H164 8318   1.874   2.960   5.363  1.2934 -0.6763 -0.5833
   28MOL   H165 8319   1.917   3.031   5.523  0.4318 -1.0019 -0.5804
   28MOL   H166 8320   1.790   3.103   5.424  1.0487 -0.5754  0.4229
   28MOL   C167 8321   1.388   2.793   5.260  0.5261 -0.3568  0.7420
   28MOL   C168 8322   1.282   2.735   5.361 -0.4487 -0.0142  0.1737
   28MOL   C169 8323   1.295   2.585   5.355  0.7876 -0.3069  0.0311
   28MOL   O170 8324   1.284   2.521   5.461  0.8285 -0.7932  0.4570
   28MOL   O171 8325   1.323   2.536   5.236  1.0496 -0.1437  0.3933
   28MOL   C172 8326   1.330   2.389   5.241 -0.6548 -0.5395  0.5012
   28MOL   C173 8327   1.375   2.353   5.102 -0.6834 -0.3209  0.1883
   28MOL   H174 8328   1.344   2.774   5.162  0.0296 -0.1780  0.9282
   28MOL   H175 8329   1.479   2.733   5.264  1.8096  1.2274 -2.6177
   28MOL   H176 8330   1.315   2.772   5.459  2.8583  4.4308 -2.4596
   28MOL   H177 8331   1.393   2.350   5.321  0.2664 -0.0791  0.0027
   28MOL   H178 8332   1.229   2.353   5.262 -0.7088 -0.5958  0.1391
   28MOL   H179 8333   1.315   2.382   5.016  1.0137  1.9281 -0.3065
   28MOL   H180 8334   1.383   2.246   5.084 -0.5642 -0.1038 -1.1146
   28MOL   H181 8335   1.478   2.385   5.081 -0.7219  0.8489  1.6660
   28MOL   C182 8336   1.148   2.785   5.334 -0.2099  0.0893 -0.6398
   28MOL   C183 8337   1.049   2.763   5.453  0.9110  0.2379 -0.2323
   28MOL   C184 8338   0.899   2.790   5.417  0.1989 -0.7159 -0.4430
   28MOL   O185 8339   0.823   2.855   5.484  0.1606 -0.0958  0.3639
   28MOL   O186 8340   0.865   2.719   5.314  0.0157  0.5100  0.6364
   28MOL   C187 8341   0.730   2.695   5.293  0.5138  0.8746  0.5658
   28MOL   C188 8342   0.660   2.792   5.195 -0.4183 -0.4558  0.5266
   28MOL   H189 8343   1.162   2.892   5.323  1.1198  0.0331  0.3815
   28MOL   H190 8344   1.113   2.734   5.244  0.3092 -1.2327 -0.1033
   28MOL   H191 8345   1.051   2.656   5.474  0.4372  0.2873  0.0612
   28MOL   H192 8346   0.718   2.595   5.250 -2.1716  0.2104  2.7479
   28MOL   H193 8347   0.685   2.686   5.392 -2.8115 -0.0142 -0.9392
   28MOL   H194 8348   0.560   2.750   5.179 -0.7436  0.5760 -0.2467
   28MOL   H195 8349   0.722   2.794   5.106 -2.5500 -0.7609 -1.0208
   28MOL   H196 8350   0.663   2.895   5.230  0.6460 -0.3080 -0.0074
   28MOL   C197 8351   1.092   2.829   5.587  0.7514  0.0683 -0.0306
   28MOL   C198 8352   1.136   2.736   5.697  0.3853  0.4431 -0.9465
   28MOL   C199 8353   1.019   2.658   5.753  0.2749  0.4465 -0.3701
   28MOL   O200 8354   0.983   2.674   5.873 -0.1201  0.3286 -0.4753
   28MOL   O201 8355   0.960   2.568   5.671  0.3997  0.7103  0.3152
   28MOL   C202 8356   0.853   2.482   5.707 -0.6986 -0.4361 -0.5027
   28MOL   C203 8357   0.727   2.528   5.647 -0.8432  0.8135  0.4882
   28MOL   H204 8358   1.168   2.903   5.563 -1.9952  3.3521  0.8699
   28MOL   H205 8359   1.011   2.893   5.624  1.6766  2.4455 -2.0051
   28MOL   H206 8360   1.212   2.666   5.662  0.5998 -0.2280  0.8037
   28MOL   H207 8361   0.877   2.379   5.682 -1.8428 -1.0455  0.8005
   28MOL   H208 8362   0.827   2.481   5.813  0.0102  0.0359 -0.3260
   28MOL   H209 8363   0.733   2.530   5.538  1.3083 -1.8016  0.5116
   28MOL   H210 8364   0.725   2.636   5.658  0.6660  0.9804 -0.6644
   28MOL   H211 8365   0.638   2.487   5.694  0.5246 -1.4136  1.1930
   28MOL   C212 8366   1.211   2.825   5.807 -0.3174 -0.7812  0.8046
   28MOL   C213 8367   1.355   2.870   5.773 -0.4575 -0.5606  0.0459
   28MOL   C214 8368   1.445   2.740   5.744 -0.1250  0.2036  0.6157
   28MOL   O215 8369   1.487   2.725   5.630  0.1564  0.5945  0.4478
   28MOL   O216 8370   1.446   2.645   5.845 -0.4234 -0.1022 -0.3759
   28MOL   C217 8371   1.497   2.515   5.830 -0.2286 -0.2065  0.6556
   28MOL   C218 8372   1.372   2.426   5.818  0.5978 -0.1725 -0.5087
   28MOL   H219 8373   1.150   2.914   5.824  0.0436 -0.5089  0.6929
   28MOL   H220 8374   1.217   2.784   5.908 -0.4678 -2.7870  0.0203
   28MOL   H221 8375   1.370   2.927   5.682  0.0221 -1.4406 -0.4303
   28MOL   H222 8376   1.570   2.498   5.750 -0.4727  1.2167  0.1166
   28MOL   H223 8377   1.554   2.499   5.921 -0.1146  0.4543  0.6971
   28MOL   H224 8378   1.306   2.453   5.901  0.0574 -2.8562 -0.0284
   28MOL   H225 8379   1.394   2.320   5.815  1.3267 -0.0946  1.2943
   28MOL   H226 8380   1.318   2.435   5.723 -0.3886 -3.1665 -0.2905
   28MOL   C227 8381   1.411   2.950   5.895  0.0364 -1.0527  0.3252
   28MOL   C228 8382   1.372   3.102   5.892 -0.1397  0.0649 -0.6527
   28MOL   C229 8383   1.432   3.184   5.773 -0.4020  0.4174  0.0705
   28MOL   O230 8384   1.542   3.161   5.732  0.6351 -0.1215  0.2405
   28MOL   O231 8385   1.356   3.296   5.745  0.1589 -0.6869 -0.0625
   28MOL   C232 8386   1.392   3.373   5.628 -0.1246 -0.1373 -0.3872
   28MOL   C233 8387   1.285   3.476   5.589 -0.0829 -0.1911 -0.1920
   28MOL   H234 8388   1.382   2.907   5.991  1.2518  0.8326  1.5507
   28MOL   H235 8389   1.520   2.948   5.893  0.1689  3.1851 -1.0506
   28MOL   H236 8390   1.264   3.118   5.892 -0.0839  0.6423  1.8718
   28MOL   H237 8391   1.475   3.437   5.660 -0.1075  0.2439 -1.1723
   28MOL   H238 8392   1.436   3.318   5.544  1.8199  0.2001  0.3762
   28MOL   H239 8393   1.314   3.526   5.497  2.6281 -1.3420  0.0046
   28MOL   H240 8394   1.275   3.544   5.673  1.1881 -1.2806  0.8643
   28MOL   H241 8395   1.186   3.437   5.565 -0.5137 -0.4184  1.8295
   28MOL   C242 8396   1.414   3.179   6.028 -0.0863  0.7661 -0.0115
   28MOL   C243 8397   1.363   3.127   6.161  0.2143 -0.0460  0.3316
   28MOL   C244 8398   1.214   3.098   6.173  0.1969 -0.0918 -0.0790
   28MOL   O245 8399   1.132   3.185   6.208  0.5919 -0.2562 -0.1052
   28MOL   O246 8400   1.189   2.963   6.148 -0.4547  0.6585 -0.2329
   28MOL   C247 8401   1.057   2.917   6.146 -0.2714  0.2470  0.7689
   28MOL   C248 8402   1.006   2.868   6.287  0.8909 -0.5216 -0.1212
   28MOL   H249 8403   1.521   3.197   6.012 -0.2393  1.0359 -0.7524
   28MOL   H250 8404   1.388   3.285   6.028 -1.5335  0.4152 -0.8193
   28MOL   H251 8405   1.410   3.030   6.177 -2.6072 -1.3953  0.7304
   28MOL   H252 8406   0.986   2.991   6.107  0.1080  0.6091  0.7616
   28MOL   H253 8407   1.058   2.843   6.066 -1.1988 -0.3343  1.2807
   28MOL   H254 8408   1.055   2.778   6.324 -2.6868 -2.8181 -0.6712
   28MOL   H255 8409   0.900   2.841   6.294  0.7354 -0.1071 -0.8853
   28MOL   H256 8410   1.022   2.940   6.367  1.3925 -0.6738 -0.0851
   28MOL   C257 8411   1.409   3.223   6.276  0.0665 -0.4852  0.0727
   28MOL   C258 8412   1.402   3.167   6.421 -0.4845  0.0115 -0.2273
   28MOL   C259 8413   1.383   3.288   6.515  0.4178 -0.5475  0.3926
   28MOL   O260 8414   1.450   3.395   6.497 -0.0580 -0.8502 -0.0263
   28MOL   O261 8415   1.310   3.264   6.624  0.2891 -0.2765 -0.2016
   28MOL   C262 8416   1.292   3.379   6.713 -0.3578  0.4624  0.4268
   28MOL   C263 8417   1.150   3.392   6.757 -0.4349  0.7956 -0.3340
   28MOL   H264 8418   1.508   3.259   6.250  0.5173 -2.0384 -0.3889
   28MOL   H265 8419   1.362   3.321   6.269  0.9530 -0.2817 -3.7140
   28MOL   H266 8420   1.313   3.104   6.431 -0.3540  0.0426  1.2350
   28MOL   H267 8421   1.356   3.358   6.799  1.8070  3.2019 -0.4532
   28MOL   H268 8422   1.322   3.474   6.670  1.1313 -0.8568 -1.5393
   28MOL   H269 8423   1.129   3.330   6.843 -3.8729  2.0101 -0.2154
   28MOL   H270 8424   1.082   3.357   6.679 -1.3170  0.1960  0.6986
   28MOL   H271 8425   1.126   3.494   6.786 -1.4786  0.8212 -1.2296
   28MOL   C272 8426   1.527   3.093   6.466 -0.6849 -0.2776 -0.0064
   28MOL   C273 8427   1.563   2.970   6.399  0.8924  0.6937  0.3884
   28MOL   C274 8428   1.460   2.856   6.420  0.3481 -0.3320  0.1776
   28MOL   O275 8429   1.383   2.854   6.519  0.0722 -0.0008 -0.1821
   28MOL   O276 8430   1.465   2.760   6.333  0.1651  0.1496 -0.2780
   28MOL   C277 8431   1.355   2.667   6.320 -0.5180  0.1832  0.1041
   28MOL   C278 8432   1.368   2.583   6.189  0.7888  0.5669  0.6110
   28MOL   H279 8433   1.603   3.172   6.463  1.9734 -2.5597  3.0014
   28MOL   H280 8434   1.519   3.081   6.574  1.8409  0.6943  0.3313
   28MOL   H281 8435   1.572   2.992   6.293  0.8175  0.3464  0.3096
   28MOL   H282 8436   1.333   2.599   6.402  1.4213 -0.5396  0.0560
   28MOL   H283 8437   1.266   2.729   6.309  0.3275  1.7993  1.9892
   28MOL   H284 8438   1.387   2.644   6.101  1.9007 -1.9865 -0.9799
   28MOL   H285 8439   1.273   2.535   6.164  0.8471  1.2513 -0.9580
   28MOL   H286 8440   1.446   2.507   6.185 -0.9076 -1.1595 -1.6663
   28MOL   C287 8441   1.706   2.919   6.434  0.2311 -0.4249  0.5060
   28MOL   C288 8442   1.719   2.865   6.579  0.5976 -0.3899  0.0998
   28MOL   C289 8443   1.733   2.977   6.684  0.2774 -0.3477 -0.9421
   28MOL   O290 8444   1.799   3.079   6.660 -0.0256 -0.0720 -0.2465
   28MOL   O291 8445   1.645   2.959   6.788 -0.0722 -0.2040 -0.0607
   28MOL   C292 8446   1.641   3.052   6.894  0.4632 -0.5350 -0.3031
   28MOL   C293 8447   1.524   3.155   6.870 -0.2043  0.8159 -0.1048
   28MOL   H294 8448   1.749   2.858   6.355  2.3359 -0.3976  1.5929
   28MOL   H295 8449   1.766   3.010   6.424  0.9628 -0.7257  1.9923
   28MOL   H296 8450   1.631   2.803   6.597  0.8608 -0.5452  0.8540
   28MOL   H297 8451   1.622   3.002   6.989 -1.1605  1.2905  0.3609
   28MOL   H298 8452   1.739   3.097   6.911  0.4099 -1.2388  2.1728
   28MOL   H299 8453   1.519   3.236   6.943  0.4860  1.2871 -0.5767
   28MOL   H300 8454   1.427   3.106   6.865  0.1505  0.0971 -0.0129
   28MOL   H301 8455   1.545   3.205   6.776  0.7792 -3.1145 -2.0726
   28MOL   H302 8456   1.797   2.788   6.583 -0.1891 -1.1841  0.2211
   29MOL     C1 8457   4.006   3.091   4.704 -0.0733 -0.5846  0.1666
   29MOL     C2 8458   3.930   2.974   4.651  0.1916  0.9768 -0.1026
   29MOL     C3 8459   4.006   2.841   4.677  0.5839 -0.4377  0.5959
   29MOL     O4 8460   4.041   2.768   4.584 -0.1017  0.4552  0.0868
   29MOL     O5 8461   4.037   2.821   4.808  0.8035  0.1091 -0.2457
   29MOL     C6 8462   4.106   2.701   4.846 -0.1479 -0.6122  0.1184
   29MOL     C7 8463   4.041   2.633   4.968  0.2627 -0.8989  0.5181
   29MOL     H8 8464   3.938   3.173   4.727  0.4116 -0.1222 -0.0368
   29MOL     H9 8465   4.064   3.120   4.617 -1.0396  1.4867  0.1812
   29MOL    H10 8466   3.861   2.964   4.734 -0.0432  2.2474 -0.1367
   29MOL    H11 8467   4.102   2.630   4.762 -0.0884  0.6703 -0.9834
   29MOL    H12 8468   4.213   2.720   4.847 -0.2519  0.1927 -1.5210
   29MOL    H13 8469   3.938   2.613   4.937  0.1795  0.4005 -0.0372
   29MOL    H14 8470   4.035   2.697   5.056  0.0508 -0.0191 -0.1429
   29MOL    H15 8471   4.096   2.547   5.008  0.8314  0.9160  3.8255
   29MOL    H16 8472   4.067   3.066   4.790  2.6517 -1.7465 -2.0532
   29MOL    C17 8473   3.835   2.982   4.529 -0.2669  0.5701 -0.1028
   29MOL    C18 8474   3.904   2.991   4.388 -0.5193  0.3197  0.4405
   29MOL    C19 8475   3.951   3.135   4.355  0.2419  0.5263  0.0129
   29MOL    O20 8476   4.071   3.153   4.339  0.3132  0.2998 -0.5047
   29MOL    O21 8477   3.856   3.224   4.350  0.3116 -0.7169  0.6061
   29MOL    C22 8478   3.874   3.362   4.320 -0.5671  0.0601 -0.1251
   29MOL    C23 8479   3.922   3.428   4.445 -0.3325  0.0659 -0.3626
   29MOL    H24 8480   3.760   2.904   4.521  0.5247 -0.1869 -0.2073
   29MOL    H25 8481   3.776   3.073   4.540 -3.0319 -1.4518  2.0393
   29MOL    H26 8482   3.998   2.936   4.388 -0.6495  0.0944 -0.4879
   29MOL    H27 8483   3.942   3.386   4.238 -0.3912  0.0439  0.0161
   29MOL    H28 8484   3.772   3.394   4.297 -1.0183 -0.0558  1.6683
   29MOL    H29 8485   3.872   3.405   4.539 -1.2025 -2.8104 -1.4829
   29MOL    H30 8486   3.914   3.535   4.425  0.0871  0.2816  0.5858
   29MOL    H31 8487   4.028   3.408   4.455 -0.4365 -0.3838 -0.1754
   29MOL    C32 8488   3.831   2.931   4.270 -0.0505 -0.2434 -0.5813
   29MOL    C33 8489   3.848   2.777   4.264 -0.3708  0.3378 -0.0204
   29MOL    C34 8490   3.966   2.726   4.173 -0.1417  0.0479  0.7310
   29MOL    O35 8491   4.059   2.799   4.142  0.2860 -0.1033  0.7178
   29MOL    O36 8492   3.958   2.597   4.160  0.4085 -0.3470  0.3750
   29MOL    C37 8493   4.046   2.526   4.076  0.4594  0.1471 -0.0544
   29MOL    C38 8494   4.008   2.382   4.051 -0.9795  0.9438  0.1135
   29MOL    H39 8495   3.724   2.954   4.274 -0.6536 -3.1257  0.9800
   29MOL    H40 8496   3.866   2.979   4.179 -2.4782  2.3302 -0.2443
   29MOL    H41 8497   3.869   2.733   4.362 -1.0513 -2.3459 -1.0295
   29MOL    H42 8498   4.042   2.574   3.978 -0.9298  0.8828  0.3534
   29MOL    H43 8499   4.146   2.545   4.116 -0.7219  2.6801  1.8999
   29MOL    H44 8500   4.077   2.325   3.987 -0.8776  1.0499  0.1290
   29MOL    H45 8501   3.914   2.388   3.997 -0.5966  1.2478 -0.5423
   29MOL    H46 8502   3.993   2.323   4.141 -1.0881 -1.2733 -1.3093
   29MOL    C47 8503   3.706   2.713   4.225 -0.4867  0.6124 -0.3135
   29MOL    C48 8504   3.623   2.750   4.100 -0.4115 -0.4990 -0.6058
   29MOL    C49 8505   3.479   2.705   4.124  0.3361 -0.0515 -0.4445
   29MOL    O50 8506   3.396   2.791   4.132 -0.4165 -0.1773  0.1060
   29MOL    O51 8507   3.460   2.571   4.130  0.4771  0.1179  0.1107
   29MOL    C52 8508   3.331   2.516   4.131  0.0414 -0.5663  0.4173
   29MOL    C53 8509   3.309   2.451   4.267  0.0958 -0.1072  0.3474
   29MOL    H54 8510   3.699   2.604   4.227 -0.3803  0.6205  1.8001
   29MOL    H55 8511   3.643   2.728   4.313 -0.6249 -0.3309 -0.2418
   29MOL    H56 8512   3.620   2.859   4.089 -0.5439 -0.7186 -3.1509
   29MOL    H57 8513   3.254   2.591   4.116  3.4402  3.1295  0.4636
   29MOL    H58 8514   3.327   2.455   4.040 -0.2639  0.1177 -0.0282
   29MOL    H59 8515   3.396   2.385   4.276  3.0178  3.1425 -2.5249
   29MOL    H60 8516   3.208   2.409   4.266  0.9998 -2.3227 -0.4081
   29MOL    H61 8517   3.313   2.527   4.345  0.3416  0.3900 -0.1495
   29MOL    C62 8518   3.698   2.698   3.970 -0.0008 -0.3606 -0.0994
   29MOL    C63 8519   3.613   2.703   3.842  0.1044 -0.3479 -0.4707
   29MOL    C64 8520   3.678   2.607   3.742 -0.2225 -0.4718 -0.3185
   29MOL    O65 8521   3.640   2.489   3.732 -0.5809  0.2534  0.2995
   29MOL    O66 8522   3.769   2.666   3.661  0.0863  0.0664  0.4063
   29MOL    C67 8523   3.829   2.591   3.546 -0.1974  0.3371  0.6216
   29MOL    C68 8524   3.875   2.683   3.431  0.0339 -0.0588  0.1419
   29MOL    H69 8525   3.777   2.771   3.954 -0.3254 -0.1826 -0.9192
   29MOL    H70 8526   3.743   2.601   3.988  1.7010  0.4161 -0.0976
   29MOL    H71 8527   3.519   2.652   3.867 -2.3578  2.6330 -3.2385
   29MOL    H72 8528   3.914   2.533   3.581 -0.7230 -0.8292  0.0284
   29MOL    H73 8529   3.749   2.526   3.510 -0.2999  1.3949 -1.1398
   29MOL    H74 8530   3.955   2.754   3.455  1.0563 -0.5282 -1.7895
   29MOL    H75 8531   3.790   2.732   3.384  0.2838 -2.7168 -3.2710
   29MOL    H76 8532   3.907   2.610   3.358 -1.8617 -0.6215 -0.1435
   29MOL    C77 8533   3.578   2.850   3.794  0.0062 -0.3747 -0.1814
   29MOL    C78 8534   3.493   2.860   3.662 -0.3536 -0.3251 -0.6384
   29MOL    C79 8535   3.535   2.976   3.560  0.5115  0.1966 -0.1049
   29MOL    O80 8536   3.520   3.095   3.590  0.5187  0.1518 -0.2275
   29MOL    O81 8537   3.583   2.924   3.447 -0.5346 -0.3049  0.0819
   29MOL    C82 8538   3.644   3.004   3.350 -0.2115 -0.0165 -0.6271
   29MOL    C83 8539   3.611   2.958   3.209  0.2724 -0.0793 -0.4820
   29MOL    H84 8540   3.522   2.894   3.876  2.2737  1.4148  0.4757
   29MOL    H85 8541   3.678   2.895   3.784  0.4584 -1.6452 -1.4969
   29MOL    H86 8542   3.522   2.776   3.600  1.5280 -0.4716  0.4132
   29MOL    H87 8543   3.603   3.105   3.352 -2.0381 -0.7587  0.6984
   29MOL    H88 8544   3.751   3.003   3.373 -1.1199 -2.1952  4.1250
   29MOL    H89 8545   3.664   3.004   3.126  0.1419 -0.5237 -0.8188
   29MOL    H90 8546   3.508   2.973   3.177  0.2050  1.4111  0.3777
   29MOL    H91 8547   3.631   2.850   3.208 -0.0722 -0.1605  0.5796
   29MOL    C92 8548   3.337   2.864   3.683 -0.7398 -0.5625 -0.1338
   29MOL    C93 8549   3.255   2.743   3.731 -0.0716  0.2176  0.1506
   29MOL    C94 8550   3.270   2.621   3.639 -0.0863 -0.0895 -0.1549
   29MOL    O95 8551   3.292   2.509   3.689  0.4192 -0.6686  0.3697
   29MOL    O96 8552   3.258   2.647   3.508 -0.5490  0.0587  0.2077
   29MOL    C97 8553   3.296   2.551   3.414 -0.0498 -0.1956 -0.8734
   29MOL    C98 8554   3.430   2.605   3.356 -0.0707 -0.1011 -0.1268
   29MOL    H99 8555   3.324   2.947   3.751 -1.1250 -0.8185  0.1070
   29MOL   H100 8556   3.294   2.909   3.594  0.4667 -0.3014 -0.5951
   29MOL   H101 8557   3.301   2.699   3.820 -1.3137 -0.7171  0.3528
   29MOL   H102 8558   3.300   2.450   3.454 -2.4421 -0.3817 -1.0554
   29MOL   H103 8559   3.231   2.547   3.327 -1.2082 -2.6065  0.0669
   29MOL   H104 8560   3.460   2.543   3.271  0.8784 -0.1023  0.2067
   29MOL   H105 8561   3.506   2.613   3.433  0.7310  0.9938 -1.0153
   29MOL   H106 8562   3.406   2.706   3.324  1.3160  0.8661  1.8198
   29MOL   C107 8563   3.113   2.782   3.763  0.6653 -1.0137  0.4217
   29MOL   C108 8564   3.030   2.865   3.655  0.6097 -0.4684 -0.2164
   29MOL   C109 8565   3.042   3.015   3.676  0.0917  0.0838 -0.0431
   29MOL   O110 8566   3.074   3.092   3.586 -0.1637 -0.4171  0.2658
   29MOL   O111 8567   3.014   3.048   3.799  0.5461  0.0807  0.1430
   29MOL   C112 8568   3.041   3.177   3.851 -0.8859 -0.6145 -0.5402
   29MOL   C113 8569   3.147   3.151   3.960  0.2233  0.6447 -0.8105
   29MOL   H114 8570   3.069   2.689   3.797  1.4181 -2.0954 -1.4722
   29MOL   H115 8571   3.126   2.844   3.852  2.2633 -0.4701 -0.1763
   29MOL   H116 8572   3.071   2.835   3.559  2.3862  0.2151  0.3100
   29MOL   H117 8573   3.084   3.235   3.769 -1.1515 -1.8072 -1.5381
   29MOL   H118 8574   2.956   3.239   3.880  0.8193  1.3810  0.3396
   29MOL   H119 8575   3.222   3.095   3.904 -2.3759 -0.6544 -3.1624
   29MOL   H120 8576   3.087   3.095   4.032 -1.7636  0.3721 -2.6429
   29MOL   H121 8577   3.197   3.233   4.012 -2.0139  0.6976  1.3608
   29MOL   C122 8578   2.880   2.838   3.669 -0.5606  0.7020 -0.2829
   29MOL   C123 8579   2.844   2.702   3.613 -0.1411  0.3389  0.2504
   29MOL   C124 8580   2.886   2.692   3.461  0.1494  0.2335  0.2322
   29MOL   O125 8581   2.979   2.621   3.430 -0.0679 -0.4457  0.0619
   29MOL   O126 8582   2.809   2.776   3.381 -0.0058  0.5192  0.3584
   29MOL   C127 8583   2.843   2.807   3.249  0.2357 -0.0101  0.3633
   29MOL   C128 8584   2.727   2.877   3.175 -0.4933  0.0787 -0.8521
   29MOL   H129 8585   2.853   2.842   3.774 -0.6954 -1.4368 -0.2180
   29MOL   H130 8586   2.821   2.924   3.635 -1.1060  1.8879  3.4498
   29MOL   H131 8587   2.894   2.617   3.661  1.2339  1.8750  1.6056
   29MOL   H132 8588   2.928   2.876   3.251 -1.7621  2.5491  0.4499
   29MOL   H133 8589   2.866   2.714   3.198 -0.9166 -0.1267  0.0482
   29MOL   H134 8590   2.635   2.818   3.170 -0.5536  0.2909 -2.3979
   29MOL   H135 8591   2.752   2.917   3.077 -2.4607 -0.9941 -1.8287
   29MOL   H136 8592   2.708   2.967   3.234 -1.7651  0.1756 -1.3886
   29MOL   C137 8593   2.693   2.667   3.623  0.6424 -0.1161 -0.3998
   29MOL   C138 8594   2.653   2.607   3.760  0.2186  0.7961  0.1869
   29MOL   C139 8595   2.714   2.467   3.786 -0.3582  0.4970  0.0490
   29MOL   O140 8596   2.816   2.453   3.857 -0.1582  0.1604  0.2245
   29MOL   O141 8597   2.637   2.368   3.737  0.0459  0.8224 -0.0353
   29MOL   C142 8598   2.691   2.240   3.717 -0.0932 -0.3487  0.6110
   29MOL   C143 8599   2.593   2.130   3.748 -0.0400 -0.5302 -0.3140
   29MOL   H144 8600   2.634   2.755   3.598 -1.5609 -1.2474  0.6759
   29MOL   H145 8601   2.664   2.592   3.550  0.1261 -0.2452 -0.0613
   29MOL   H146 8602   2.689   2.674   3.838 -0.7773  1.7543 -0.1730
   29MOL   H147 8603   2.724   2.224   3.614 -1.2538 -1.4947  0.4045
   29MOL   H148 8604   2.781   2.224   3.777 -0.4698 -2.3716  0.6900
   29MOL   H149 8605   2.512   2.122   3.676  0.6310  4.0969 -1.7289
   29MOL   H150 8606   2.537   2.151   3.839  1.7755  3.3130  0.0208
   29MOL   H151 8607   2.652   2.039   3.762 -1.1873 -1.4184 -1.1496
   29MOL   C152 8608   2.495   2.609   3.778 -0.1091  0.2867  0.5839
   29MOL   C153 8609   2.433   2.750   3.794  0.6675  0.8523  0.4755
   29MOL   C154 8610   2.466   2.832   3.924  0.3066  0.9330  0.0351
   29MOL   O155 8611   2.411   2.932   3.957  0.2568 -0.1534 -0.1838
   29MOL   O156 8612   2.562   2.777   3.999 -0.0522 -0.3002  0.1690
   29MOL   C157 8613   2.622   2.837   4.113 -0.4900 -0.0747  0.1238
   29MOL   C158 8614   2.707   2.964   4.082 -0.5979 -0.2937 -0.0795
   29MOL   H159 8615   2.452   2.555   3.693 -1.0143  0.0069  1.2151
   29MOL   H160 8616   2.471   2.555   3.869 -1.3690  0.2515  0.2417
   29MOL   H161 8617   2.472   2.806   3.709  0.8614 -0.2919 -0.1892
   29MOL   H162 8618   2.544   2.870   4.182 -0.2694  3.2209 -1.1065
   29MOL   H163 8619   2.682   2.762   4.164  0.8077 -0.9340 -2.5663
   29MOL   H164 8620   2.764   2.992   4.170 -1.1445 -0.6759  0.4026
   29MOL   H165 8621   2.638   3.047   4.062 -1.6390 -1.5163 -1.6943
   29MOL   H166 8622   2.777   2.960   3.999 -0.6010  0.3035 -0.1113
   29MOL   C167 8623   2.279   2.747   3.781 -0.1123 -0.3135  0.1740
   29MOL   C168 8624   2.232   2.704   3.635 -0.1132  0.6796 -0.1651
   29MOL   C169 8625   2.231   2.811   3.537 -0.0839 -0.6382 -0.4418
   29MOL   O170 8626   2.130   2.877   3.509  0.2471 -0.1441 -0.2879
   29MOL   O171 8627   2.357   2.827   3.489 -0.4067  0.1844  0.4750
   29MOL   C172 8628   2.380   2.939   3.404 -0.8846 -0.1522 -0.1026
   29MOL   C173 8629   2.517   3.003   3.426  0.8555 -0.0423  0.9729
   29MOL   H174 8630   2.233   2.675   3.849  0.2266 -0.4783  0.2313
   29MOL   H175 8631   2.243   2.849   3.792  1.4762  0.4645 -1.5294
   29MOL   H176 8632   2.301   2.634   3.588  0.6980  1.3633 -0.0028
   29MOL   H177 8633   2.365   2.899   3.304  0.2560  2.4353 -1.3460
   29MOL   H178 8634   2.309   3.019   3.422  2.1743  2.6050  0.1602
   29MOL   H179 8635   2.523   3.059   3.519  1.1207  0.2994  0.7544
   29MOL   H180 8636   2.550   3.072   3.347  0.2264  0.3206  1.0211
   29MOL   H181 8637   2.589   2.922   3.420  1.1799  0.3453 -0.8000
   29MOL   C182 8638   2.101   2.612   3.650 -0.2398  0.5698 -0.3656
   29MOL   C183 8639   2.113   2.458   3.675 -0.7519 -0.5217  0.0993
   29MOL   C184 8640   2.168   2.383   3.555 -0.7893  0.1807 -0.0364
   29MOL   O185 8641   2.276   2.316   3.565  0.4020 -0.3008 -0.1253
   29MOL   O186 8642   2.085   2.383   3.450  0.4023  0.2509 -0.4907
   29MOL   C187 8643   2.115   2.308   3.334  0.6859 -0.2166  0.4953
   29MOL   C188 8644   2.125   2.403   3.211  0.1564 -0.3806 -0.0112
   29MOL   H189 8645   2.053   2.650   3.740 -0.2312 -0.7924  0.2289
   29MOL   H190 8646   2.022   2.632   3.578 -0.3761  2.1011  0.1929
   29MOL   H191 8647   2.189   2.450   3.753  0.7475 -1.3399 -1.4108
   29MOL   H192 8648   2.209   2.257   3.354  0.0704 -1.0222  1.3634
   29MOL   H193 8649   2.029   2.242   3.322 -0.9706  2.0831 -0.7524
   29MOL   H194 8650   2.179   2.492   3.244 -1.6578  0.2586  1.3044
   29MOL   H195 8651   2.021   2.433   3.196  0.8508  2.9328  1.3786
   29MOL   H196 8652   2.161   2.351   3.122  1.1999  1.9266 -0.9831
   29MOL   C197 8653   1.979   2.406   3.723 -0.3132  0.3888 -0.2497
   29MOL   C198 8654   1.995   2.288   3.822 -0.3056  0.8481 -0.1167
   29MOL   C199 8655   1.875   2.191   3.784 -0.2275  0.5778 -0.5373
   29MOL   O200 8656   1.894   2.085   3.727 -0.0816 -1.1097  1.0231
   29MOL   O201 8657   1.753   2.242   3.819 -0.2574  0.5911 -0.0718
   29MOL   C202 8658   1.640   2.163   3.804 -0.8075  0.4416 -0.2756
   29MOL   C203 8659   1.518   2.245   3.834 -0.0305 -0.0862 -0.3987
   29MOL   H204 8660   1.912   2.475   3.773  0.2851  0.7812  0.0180
   29MOL   H205 8661   1.912   2.376   3.643  0.2688  0.3085 -0.7101
   29MOL   H206 8662   2.087   2.234   3.801  0.4402  2.2963 -0.6296
   29MOL   H207 8663   1.639   2.111   3.708 -1.6298 -0.8753  0.4204
   29MOL   H208 8664   1.660   2.083   3.876 -2.7183  2.9834  3.2053
   29MOL   H209 8665   1.531   2.325   3.907 -0.2313 -2.0541  1.8401
   29MOL   H210 8666   1.438   2.176   3.863  1.6882 -2.1168 -0.4033
   29MOL   H211 8667   1.472   2.297   3.750 -1.3109  1.4974  1.2463
   29MOL   C212 8668   1.997   2.328   3.967 -0.6277  0.0724  0.0458
   29MOL   C213 8669   2.135   2.375   4.025 -0.2297  0.4184  0.3729
   29MOL   C214 8670   2.241   2.265   4.012 -0.0794  0.5737  0.3736
   29MOL   O215 8671   2.353   2.290   3.968  0.9436  0.8741  0.2038
   29MOL   O216 8672   2.192   2.144   4.048 -0.0040 -0.9879  0.2968
   29MOL   C217 8673   2.280   2.037   4.054  0.2162  0.2668 -0.0400
   29MOL   C218 8674   2.185   1.919   4.015 -0.2796  1.1169  0.4799
   29MOL   H219 8675   1.927   2.407   3.996 -0.1275  0.4419  0.2599
   29MOL   H220 8676   1.961   2.254   4.039  2.2322 -1.5516 -0.1344
   29MOL   H221 8677   2.167   2.457   3.962 -2.0855  0.3640 -0.6724
   29MOL   H222 8678   2.362   2.056   3.985 -0.9662  1.2074 -1.2137
   29MOL   H223 8679   2.318   2.025   4.155 -1.5687  1.7283  0.8274
   29MOL   H224 8680   2.142   1.934   3.916  0.7385  1.8269  0.1308
   29MOL   H225 8681   2.100   1.908   4.082 -0.6244 -0.6398 -0.2218
   29MOL   H226 8682   2.233   1.822   4.025 -1.2343  0.5853 -0.0716
   29MOL   C227 8683   2.127   2.431   4.168  0.7654  0.8496 -0.1562
   29MOL   C228 8684   2.207   2.563   4.205  0.3418  0.4616  0.4378
   29MOL   C229 8685   2.129   2.690   4.155  0.4725 -0.0524 -0.1226
   29MOL   O230 8686   2.047   2.688   4.065 -0.1591  0.1348  0.1580
   29MOL   O231 8687   2.168   2.808   4.217 -0.5501 -0.2690  0.1223
   29MOL   C232 8688   2.135   2.934   4.158  0.0741 -0.5966  0.0522
   29MOL   C233 8689   2.227   3.040   4.214  0.0220 -0.1124 -0.8422
   29MOL   H234 8690   2.023   2.438   4.199  0.0948  0.8631 -2.3477
   29MOL   H235 8691   2.174   2.353   4.229 -3.9609 -0.7027  1.6626
   29MOL   H236 8692   2.204   2.553   4.313  2.1853 -1.8845  0.3123
   29MOL   H237 8693   2.155   2.934   4.050  1.6492 -0.4716  0.3318
   29MOL   H238 8694   2.031   2.955   4.182 -0.0692 -0.3483 -0.7557
   29MOL   H239 8695   2.333   3.015   4.218 -0.0739 -0.3511  0.5717
   29MOL   H240 8696   2.203   3.082   4.312 -1.0425 -0.2784 -1.0215
   29MOL   H241 8697   2.216   3.126   4.148  1.6055 -0.2282 -1.2794
   29MOL   C242 8698   2.358   2.570   4.160  0.5801 -0.2244 -0.0623
   29MOL   C243 8699   2.457   2.486   4.239 -0.9369  0.6741  0.2942
   29MOL   C244 8700   2.463   2.537   4.383 -0.0427 -0.0424 -0.0314
   29MOL   O245 8701   2.401   2.486   4.476 -0.0905  0.0027 -0.1160
   29MOL   O246 8702   2.541   2.642   4.388 -0.7059 -0.0339 -0.0289
   29MOL   C247 8703   2.581   2.696   4.515  0.8965  0.4432 -0.0320
   29MOL   C248 8704   2.659   2.820   4.480  0.6689 -0.3461 -0.3203
   29MOL   H249 8705   2.353   2.545   4.054  1.2485  3.9887 -1.1675
   29MOL   H250 8706   2.390   2.674   4.170 -0.4833  0.2589 -1.4144
   29MOL   H251 8707   2.407   2.390   4.250  1.3402 -0.6174 -0.3750
   29MOL   H252 8708   2.492   2.725   4.572  0.7427 -1.0861  0.5402
   29MOL   H253 8709   2.636   2.638   4.589  2.2577 -0.3723 -1.6495
   29MOL   H254 8710   2.704   2.871   4.565 -0.7265 -0.9808  0.8333
   29MOL   H255 8711   2.585   2.891   4.443  0.6775  0.2050  0.6946
   29MOL   H256 8712   2.734   2.803   4.403  0.2730  3.4683 -1.6732
   29MOL   C257 8713   2.588   2.463   4.162 -0.2207  0.4229 -0.4504
   29MOL   C258 8714   2.689   2.396   4.255 -0.3124  0.1920 -0.0678
   29MOL   C259 8715   2.806   2.493   4.300  0.4606 -0.1554 -0.2473
   29MOL   O260 8716   2.834   2.492   4.422 -0.4270  0.1424 -0.2861
   29MOL   O261 8717   2.855   2.565   4.199 -0.5981 -0.0200 -0.7037
   29MOL   C262 8718   2.945   2.665   4.240 -0.6531 -0.0752 -0.3741
   29MOL   C263 8719   3.016   2.717   4.114 -0.2695  0.2331  0.3107
   29MOL   H264 8720   2.549   2.403   4.080  0.1908 -0.1476 -0.2310
   29MOL   H265 8721   2.630   2.556   4.123  0.1502 -0.3211 -1.8562
   29MOL   H266 8722   2.646   2.366   4.350  0.7293  0.2199  0.4208
   29MOL   H267 8723   2.903   2.744   4.302 -0.1937  0.1017 -0.2903
   29MOL   H268 8724   3.023   2.613   4.295 -1.1569 -1.4937 -0.9670
   29MOL   H269 8725   3.026   2.634   4.044 -1.8018  0.1824  0.1469
   29MOL   H270 8726   3.109   2.760   4.151 -0.7051 -1.5382  3.6855
   29MOL   H271 8727   2.960   2.796   4.063 -3.4563 -1.9875  0.2139
   29MOL   C272 8728   2.759   2.269   4.184 -0.1218  0.1004 -0.2389
   29MOL   C273 8729   2.662   2.144   4.183  0.3290  0.7063 -0.1444
   29MOL   C274 8730   2.615   2.099   4.324  0.4661 -0.5847  0.4949
   29MOL   O275 8731   2.691   2.097   4.422  0.6648 -0.3650  0.0561
   29MOL   O276 8732   2.491   2.065   4.325 -0.3009  0.2595  0.3100
   29MOL   C277 8733   2.420   2.037   4.447  0.0641  0.1883  0.5304
   29MOL   C278 8734   2.371   2.166   4.516  0.9950  0.1010  0.3547
   29MOL   H279 8735   2.778   2.296   4.080 -0.5956  1.2919 -0.0301
   29MOL   H280 8736   2.854   2.239   4.227 -0.4309 -0.0078  0.3814
   29MOL   H281 8737   2.574   2.179   4.129 -0.5441  1.4306  1.6900
   29MOL   H282 8738   2.338   1.971   4.417  0.2967  0.1912 -0.1083
   29MOL   H283 8739   2.483   1.987   4.521 -0.6338 -1.3773  0.0965
   29MOL   H284 8740   2.308   2.215   4.442  0.5669 -3.5831 -1.8701
   29MOL   H285 8741   2.452   2.228   4.554 -0.3615  1.2000  1.4914
   29MOL   H286 8742   2.309   2.142   4.601 -1.2677  1.6378 -0.8258
   29MOL   C287 8743   2.731   2.025   4.113  0.3459  0.9390  0.4366
   29MOL   C288 8744   2.647   1.897   4.066 -0.5176 -0.4773 -0.5500
   29MOL   C289 8745   2.627   1.789   4.171  0.8602 -0.6278  0.6146
   29MOL   O290 8746   2.534   1.711   4.163 -0.6471 -0.1383  0.2702
   29MOL   O291 8747   2.717   1.785   4.269 -0.2151 -0.4409  0.1272
   29MOL   C292 8748   2.700   1.693   4.376  0.0514  0.0902  0.1132
   29MOL   C293 8749   2.798   1.570   4.359 -0.4640 -0.1979  0.0998
   29MOL   H294 8750   2.789   2.050   4.024  1.7470 -0.6888  0.8794
   29MOL   H295 8751   2.815   1.985   4.170  0.4042  0.8449  0.2847
   29MOL   H296 8752   2.547   1.935   4.045  0.1724  1.7714  0.1715
   29MOL   H297 8753   2.707   1.743   4.473 -3.0193 -2.2106  1.6243
   29MOL   H298 8754   2.599   1.651   4.372  0.8300 -1.8204 -0.2506
   29MOL   H299 8755   2.783   1.503   4.444 -3.8008  1.9186  1.2554
   29MOL   H300 8756   2.901   1.605   4.349  0.1041 -1.5006  1.2713
   29MOL   H301 8757   2.773   1.528   4.262 -0.6106 -0.4605  0.2530
   29MOL   H302 8758   2.705   1.846   3.989  0.2893  3.2766 -2.5110
   30MOL     C1 8759   0.254   4.882   3.631  0.2157 -0.5303  0.1079
   30MOL     C2 8760   0.197   4.797   3.521  0.4534 -0.2352  0.6822
   30MOL     C3 8761   0.057   4.833   3.473 -0.6620  0.0107 -0.3650
   30MOL     O4 8762   7.896   4.916   3.531  0.7765 -0.2700  0.7460
   30MOL     O5 8763   0.026   4.772   3.355  0.2222  0.0587 -0.0490
   30MOL     C6 8764   7.802   4.778   3.310  0.3578 -0.4290  0.8039
   30MOL     C7 8765   7.792   4.901   3.232 -0.9265  0.3530  0.3120
   30MOL     H8 8766   0.216   4.984   3.621 -0.3709 -0.6009  1.4086
   30MOL     H9 8767   0.359   4.907   3.615 -0.2435 -0.2438 -2.7311
   30MOL    H10 8768   0.267   4.819   3.440  0.4260  0.1499  0.7630
   30MOL    H11 8769   7.793   4.688   3.248  0.1824  0.8859 -1.1483
   30MOL    H12 8770   7.718   4.758   3.376 -0.0840  0.8002  0.6359
   30MOL    H13 8771   7.864   4.892   3.150 -0.1933 -0.2861  1.0179
   30MOL    H14 8772   7.816   4.986   3.295 -2.9665 -0.1934  1.9000
   30MOL    H15 8773   7.695   4.910   3.183 -0.5680  1.2685 -0.2476
   30MOL    H16 8774   0.236   4.850   3.734 -1.4031 -1.0573 -0.3267
   30MOL    C17 8775   0.201   4.647   3.556  0.0391  0.3732 -0.1389
   30MOL    C18 8776   0.112   4.601   3.672  0.1169  0.4598 -0.4627
   30MOL    C19 8777   0.196   4.559   3.797 -0.0052 -0.7774  0.1957
   30MOL    O20 8778   0.285   4.477   3.791  0.4357  0.3053  0.4492
   30MOL    O21 8779   0.165   4.623   3.903 -0.0159 -0.8332 -0.1299
   30MOL    C22 8780   0.231   4.578   4.024 -0.6138  0.2353  0.4228
   30MOL    C23 8781   0.146   4.485   4.107  1.2250 -0.4791 -0.0893
   30MOL    H24 8782   0.159   4.604   3.465  0.1582  1.1734 -0.5676
   30MOL    H25 8783   0.307   4.630   3.575 -0.0861 -0.2772  0.0196
   30MOL    H26 8784   0.043   4.680   3.703 -0.5103 -0.3735  0.2506
   30MOL    H27 8785   0.332   4.544   3.998 -0.6834  1.2096 -1.1917
   30MOL    H28 8786   0.253   4.674   4.069 -0.9729  1.2123 -1.4333
   30MOL    H29 8787   0.105   4.401   4.050 -0.3781  0.1241  0.1579
   30MOL    H30 8788   0.067   4.550   4.144  0.6986 -0.7598 -0.7104
   30MOL    H31 8789   0.197   4.436   4.190  0.9098 -1.1724 -0.2950
   30MOL    C32 8790   0.028   4.482   3.619 -0.1715  0.0934 -0.2801
   30MOL    C33 8791   7.853   4.391   3.718 -0.6012  0.1529 -0.0010
   30MOL    C34 8792   7.781   4.271   3.640 -0.0876 -1.3214  0.1091
   30MOL    O35 8793   7.740   4.276   3.525  0.6070 -0.1920 -0.0190
   30MOL    O36 8794   7.762   4.175   3.727  0.3448 -0.2642 -0.5688
   30MOL    C37 8795   7.718   4.047   3.687  0.7768 -1.0851  0.9496
   30MOL    C38 8796   7.690   3.975   3.817  0.1036 -0.5396 -0.5045
   30MOL    H39 8797   7.865   4.536   3.558 -2.2732 -0.4391  1.6247
   30MOL    H40 8798   0.082   4.420   3.548 -1.0897 -2.3665  1.1145
   30MOL    H41 8799   0.022   4.334   3.769  0.9853  1.2366 -1.1479
   30MOL    H42 8800   7.625   4.064   3.633  2.4162  0.7553 -1.4057
   30MOL    H43 8801   7.802   4.009   3.629  0.2696 -0.0667 -0.5095
   30MOL    H44 8802   7.661   4.042   3.898  1.9011  0.0915 -0.3445
   30MOL    H45 8803   7.791   3.946   3.846 -0.1708 -0.3081  0.6954
   30MOL    H46 8804   7.626   3.891   3.793  0.3437 -0.5786 -1.0273
   30MOL    C47 8805   7.762   4.465   3.826  0.2841 -0.1735 -0.1200
   30MOL    C48 8806   7.631   4.534   3.784 -0.0190  0.6842 -0.3249
   30MOL    C49 8807   7.643   4.673   3.726 -0.2215 -0.7519  0.0429
   30MOL    O50 8808   7.604   4.688   3.608  0.0346 -0.3550 -0.4077
   30MOL    O51 8809   7.697   4.758   3.807 -0.4567  0.1066  0.1118
   30MOL    C52 8810   7.706   4.895   3.779  0.1211 -0.2705  0.1921
   30MOL    C53 8811   7.830   4.964   3.840 -0.2045  0.5794  0.0150
   30MOL    H54 8812   7.741   4.387   3.900  2.8570 -0.5044  0.3153
   30MOL    H55 8813   7.827   4.530   3.884  1.5158  0.0893 -1.7688
   30MOL    H56 8814   7.581   4.472   3.711 -2.4755  0.6156  1.3531
   30MOL    H57 8815   7.695   4.911   3.672  1.3574 -1.5468 -0.1440
   30MOL    H58 8816   7.617   4.945   3.818  0.2989 -0.5201  0.9221
   30MOL    H59 8817   0.016   4.957   3.786  0.4791 -0.1364  1.2686
   30MOL    H60 8818   7.847   4.937   3.944 -2.0109  0.2990  0.2543
   30MOL    H61 8819   7.810   5.067   3.866  2.3313  0.5837  2.0505
   30MOL    C62 8820   7.536   4.540   3.907  0.1673 -0.1643  0.5022
   30MOL    C63 8821   7.479   4.405   3.950  0.5502  0.2944 -0.0863
   30MOL    C64 8822   7.385   4.346   3.841  0.3601  0.9730  0.2685
   30MOL    O65 8823   7.429   4.254   3.773 -0.1441 -0.9428  0.2470
   30MOL    O66 8824   7.259   4.401   3.837  0.1231 -0.0958  0.0777
   30MOL    C67 8825   7.164   4.369   3.731 -0.5777 -0.1130 -0.6258
   30MOL    C68 8826   7.103   4.229   3.750 -0.4646  0.3313  0.3171
   30MOL    H69 8827   7.584   4.588   3.993  1.1669 -1.7151  0.8341
   30MOL    H70 8828   7.462   4.613   3.874 -1.1348 -2.0013 -0.7217
   30MOL    H71 8829   7.555   4.329   3.971  0.6769 -0.0529 -1.7710
   30MOL    H72 8830   7.088   4.446   3.724 -0.0643  0.3638 -1.0681
   30MOL    H73 8831   7.215   4.373   3.634  0.6198 -0.5275 -0.0243
   30MOL    H74 8832   7.048   4.209   3.842 -0.6216 -0.9195 -0.0383
   30MOL    H75 8833   7.185   4.158   3.753 -1.2327 -0.5681  0.0147
   30MOL    H76 8834   7.032   4.213   3.668  0.4034 -1.0626 -0.1700
   30MOL    C77 8835   7.416   4.418   4.090  0.3740  0.4133 -0.4510
   30MOL    C78 8836   7.360   4.295   4.166  0.1953  0.7114 -0.1931
   30MOL    C79 8837   7.241   4.343   4.267  0.2820 -0.0307  0.1712
   30MOL    O80 8838   7.124   4.348   4.220  0.2450 -0.1115  0.1631
   30MOL    O81 8839   7.283   4.385   4.387 -0.3592 -0.6505  0.0631
   30MOL    C82 8840   7.197   4.468   4.467  0.7890  0.2058  0.6325
   30MOL    C83 8841   7.281   4.491   4.605 -0.6648  0.8448 -0.0842
   30MOL    H84 8842   7.484   4.466   4.160  2.3002 -1.3971 -1.0021
   30MOL    H85 8843   7.332   4.486   4.078  0.6716  0.8515 -0.0696
   30MOL    H86 8844   7.329   4.222   4.091 -1.1176 -0.6403  1.6444
   30MOL    H87 8845   7.190   4.568   4.424  2.1192 -1.1725 -2.9326
   30MOL    H88 8846   7.099   4.427   4.492  1.5878 -1.3171  1.2613
   30MOL    H89 8847   7.312   4.395   4.644  0.5380  0.6937 -1.3808
   30MOL    H90 8848   7.208   4.536   4.673 -1.3265  1.2362 -1.0372
   30MOL    H91 8849   7.375   4.543   4.588  0.2175 -0.6329  0.2748
   30MOL    C92 8850   7.473   4.227   4.246 -0.2428  0.1043  0.0558
   30MOL    C93 8851   7.428   4.104   4.324  0.6793  0.6498  0.6642
   30MOL    C94 8852   7.490   4.088   4.460  0.0954  0.0936  0.4942
   30MOL    O95 8853   7.607   4.126   4.488 -0.2551  0.3729  0.2362
   30MOL    O96 8854   7.404   4.056   4.544 -0.2633 -0.4250 -0.2204
   30MOL    C97 8855   7.433   4.087   4.679  0.6342 -0.6079  0.1408
   30MOL    C98 8856   7.315   4.043   4.763 -0.2852  0.2115  0.0325
   30MOL    H99 8857   7.562   4.209   4.185 -1.0238  0.8374 -1.3253
   30MOL   H100 8858   7.513   4.298   4.318 -0.3662 -0.9546  1.1789
   30MOL   H101 8859   7.320   4.111   4.337  0.7835  0.6175  1.5573
   30MOL   H102 8860   7.518   4.038   4.725  0.3515 -0.6659  0.6076
   30MOL   H103 8861   7.432   4.196   4.688 -1.4436 -0.5467 -0.4714
   30MOL   H104 8862   7.278   3.942   4.743 -1.5084  0.9947 -1.7952
   30MOL   H105 8863   7.228   4.108   4.764  1.0157  1.9716  2.5124
   30MOL   H106 8864   7.340   4.046   4.869  0.9923  2.4186 -0.3086
   30MOL   C107 8865   7.448   3.972   4.252  0.5306 -0.3755  0.0063
   30MOL   C108 8866   7.354   3.942   4.129  0.0172  0.3036 -0.1863
   30MOL   C109 8867   7.205   3.938   4.160  0.2072  0.5543  0.0600
   30MOL   O110 8868   7.116   4.012   4.112  0.1551  0.6025 -0.2784
   30MOL   O111 8869   7.183   3.846   4.261 -0.0810  0.6003  0.0292
   30MOL   C112 8870   7.053   3.814   4.299 -0.7943  0.0736 -0.0492
   30MOL   C113 8871   7.031   3.731   4.428 -0.6809  0.4634 -0.0049
   30MOL   H114 8872   7.549   3.967   4.212 -0.0291 -0.8707 -1.3626
   30MOL   H115 8873   7.439   3.889   4.323 -2.0453 -0.6725 -0.6404
   30MOL   H116 8874   7.375   4.012   4.048  0.4869  0.7624  0.3297
   30MOL   H117 8875   6.989   3.902   4.302 -0.1143  0.6642 -2.0789
   30MOL   H118 8876   7.005   3.757   4.219 -2.0621 -0.3119  0.9574
   30MOL   H119 8877   7.045   3.791   4.518  0.7483  0.1941 -0.0326
   30MOL   H120 8878   7.099   3.647   4.446 -0.5408  0.6748  0.4752
   30MOL   H121 8879   6.932   3.688   4.441 -0.3200  0.6703  3.9958
   30MOL   C122 8880   7.388   3.805   4.056 -0.0846 -0.0298  0.9432
   30MOL   C123 8881   7.301   3.759   3.935 -0.1662  0.6315  0.5640
   30MOL   C124 8882   7.334   3.606   3.912 -0.1975 -0.3135 -0.8829
   30MOL   O125 8883   7.257   3.510   3.926  0.1015 -0.0539  0.0989
   30MOL   O126 8884   7.469   3.579   3.883  0.5421 -0.1506  0.1419
   30MOL   C127 8885   7.517   3.447   3.865 -0.7043  0.2747 -0.2438
   30MOL   C128 8886   7.515   3.392   3.721 -0.2537  0.2945  0.4355
   30MOL   H129 8887   7.493   3.819   4.031 -0.8967 -1.4781 -3.8469
   30MOL   H130 8888   7.376   3.732   4.136 -2.3791  0.3501  0.9847
   30MOL   H131 8889   7.193   3.762   3.950 -0.9114 -0.5861 -3.9160
   30MOL   H132 8890   7.619   3.448   3.902 -1.2039 -1.8093  1.3120
   30MOL   H133 8891   7.457   3.378   3.925 -1.5921  0.7043 -0.6174
   30MOL   H134 8892   7.587   3.450   3.663  2.1568 -1.6824  1.3387
   30MOL   H135 8893   7.417   3.384   3.675  0.2222 -0.4634 -0.4698
   30MOL   H136 8894   7.559   3.293   3.710  2.8527  1.2313  3.3688
   30MOL   C137 8895   7.317   3.842   3.813 -0.7317 -0.1409  0.2799
   30MOL   C138 8896   7.247   3.787   3.682  0.1873 -0.8613 -0.8185
   30MOL   C139 8897   7.311   3.862   3.564  0.2574 -0.8189 -0.7752
   30MOL   O140 8898   7.389   3.807   3.486  0.1898  0.0440  0.1334
   30MOL   O141 8899   7.274   3.991   3.547 -0.1618  0.2301  0.0397
   30MOL   C142 8900   7.327   4.077   3.452 -0.3925  0.0309 -0.2567
   30MOL   C143 8901   7.251   4.053   3.325  0.1266  0.1079 -0.3754
   30MOL   H144 8902   7.274   3.941   3.827 -0.4188  0.2081 -1.1601
   30MOL   H145 8903   7.425   3.848   3.799 -0.7617  0.8381  0.4483
   30MOL   H146 8904   7.282   3.684   3.684  0.7034 -0.7062 -1.7364
   30MOL   H147 8905   7.324   4.182   3.481  0.7111  0.4562 -1.6040
   30MOL   H148 8906   7.428   4.044   3.428 -1.5589 -4.0980  0.0535
   30MOL   H149 8907   7.322   4.084   3.249  1.9762 -1.0559  0.8205
   30MOL   H150 8908   7.166   4.119   3.310  0.7560  0.9451 -0.3034
   30MOL   H151 8909   7.230   3.949   3.301 -1.8619  0.1075  1.2079
   30MOL   C152 8910   7.093   3.784   3.680  0.5401 -0.2254 -0.2015
   30MOL   C153 8911   7.050   3.676   3.576 -0.4261  0.8334 -0.3429
   30MOL   C154 8912   6.952   3.717   3.466  0.2945 -0.3048 -0.2124
   30MOL   O155 8913   6.878   3.806   3.497  0.4526  0.9771  0.0445
   30MOL   O156 8914   6.969   3.664   3.342  0.7582 -0.0082  0.4989
   30MOL   C157 8915   6.896   3.715   3.227 -0.0901 -0.3542 -0.2777
   30MOL   C158 8916   6.985   3.806   3.146  0.0934 -0.7859  1.0135
   30MOL   H159 8917   7.063   3.757   3.781  2.3683 -0.1012  0.3747
   30MOL   H160 8918   7.049   3.880   3.654  0.5090 -0.0297  0.5740
   30MOL   H161 8919   7.136   3.657   3.512  0.2903 -0.0818  0.8695
   30MOL   H162 8920   6.865   3.626   3.173  0.3147  0.5530 -2.0246
   30MOL   H163 8921   6.812   3.773   3.265  0.1718  0.0665 -0.3355
   30MOL   H164 8922   7.080   3.756   3.124  0.3490 -0.8534  2.2610
   30MOL   H165 8923   7.001   3.899   3.200 -1.1412 -0.2025  0.3797
   30MOL   H166 8924   6.937   3.828   3.051  1.6272 -0.6458  0.2528
   30MOL   C167 8925   7.004   3.541   3.637 -0.0429 -0.0468  0.1079
   30MOL   C168 8926   6.979   3.424   3.543  0.2388 -0.0915 -0.4390
   30MOL   C169 8927   6.873   3.327   3.601 -0.1518 -0.9163 -0.1857
   30MOL   O170 8928   6.756   3.326   3.559 -0.8533 -0.0821 -0.3119
   30MOL   O171 8929   6.911   3.263   3.716 -0.3859 -0.8883 -0.4892
   30MOL   C172 8930   6.812   3.205   3.804  0.4050 -0.4027  0.3602
   30MOL   C173 8931   6.795   3.058   3.764  0.3647  0.3281 -0.1941
   30MOL   H174 8932   7.072   3.506   3.715 -0.8521 -0.2986  0.7100
   30MOL   H175 8933   6.919   3.554   3.705  0.2026 -2.8618  1.0112
   30MOL   H176 8934   6.929   3.466   3.455  0.0135 -0.0171 -0.2771
   30MOL   H177 8935   6.847   3.210   3.907 -0.8610  1.4855  0.7116
   30MOL   H178 8936   6.726   3.272   3.802  1.4722  0.9842 -0.8979
   30MOL   H179 8937   6.882   3.013   3.715 -0.5155 -0.8534 -0.6938
   30MOL   H180 8938   6.718   3.056   3.686  0.0114  1.6784  0.1007
   30MOL   H181 8939   6.765   2.987   3.840  1.6418  0.4027  0.3980
   30MOL   C182 8940   7.113   3.367   3.506 -0.3003  0.0615  0.6415
   30MOL   C183 8941   7.123   3.254   3.402  0.1231 -0.4916 -0.7350
   30MOL   C184 8942   7.087   3.302   3.265 -0.0766  0.5464  0.3641
   30MOL   O185 8943   6.988   3.262   3.201  0.0596  0.3537 -0.1666
   30MOL   O186 8944   7.185   3.382   3.210  0.2052  0.2562  0.8493
   30MOL   C187 8945   7.158   3.457   3.096  0.4771  0.4653  0.8501
   30MOL   C188 8946   7.293   3.512   3.057 -0.6348  0.3616  0.6834
   30MOL   H189 8947   7.183   3.445   3.477 -1.3666  1.1624  0.9349
   30MOL   H190 8948   7.167   3.330   3.593  0.5423 -0.8135 -0.2413
   30MOL   H191 8949   7.230   3.238   3.389  0.4385 -1.7446  2.8461
   30MOL   H192 8950   7.111   3.389   3.024 -0.8250  0.7760  1.4032
   30MOL   H193 8951   7.090   3.535   3.128  1.1355  1.1560  0.5800
   30MOL   H194 8952   7.366   3.433   3.044  0.2036  0.8687  2.1846
   30MOL   H195 8953   7.326   3.573   3.141  1.6807 -1.8239  1.4107
   30MOL   H196 8954   7.255   3.563   2.968  1.8325 -0.8389 -1.1226
   30MOL   C197 8955   7.067   3.111   3.442 -0.0523 -0.1908  0.2788
   30MOL   C198 8956   7.167   3.013   3.499  0.3186  0.4755 -0.8920
   30MOL   C199 8957   7.227   3.066   3.632 -0.4843 -0.1524 -0.3674
   30MOL   O200 8958   7.340   3.116   3.636 -0.0684  0.0587  0.5435
   30MOL   O201 8959   7.139   3.065   3.735  0.0111  0.3091  0.7997
   30MOL   C202 8960   7.173   3.104   3.869 -0.0190 -0.6562  0.8109
   30MOL   C203 8961   7.181   2.982   3.961 -0.0144 -0.1255  0.0127
   30MOL   H204 8962   6.976   3.123   3.501  0.7981  2.0170  1.1888
   30MOL   H205 8963   7.034   3.058   3.353 -0.0133 -2.4005  1.5296
   30MOL   H206 8964   7.127   2.919   3.536  2.0099 -0.0422 -0.3096
   30MOL   H207 8965   7.262   3.168   3.871 -0.4306 -0.0089 -0.6888
   30MOL   H208 8966   7.093   3.162   3.915 -0.0569 -0.3075  0.3123
   30MOL   H209 8967   7.247   2.900   3.933 -2.5014 -3.0629  2.4588
   30MOL   H210 8968   7.087   2.927   3.955  1.0602 -1.8786 -0.9939
   30MOL   H211 8969   7.201   3.007   4.065  0.2501  0.5647 -0.1993
   30MOL   C212 8970   7.285   2.964   3.411  0.3613 -0.5660 -0.4102
   30MOL   C213 8971   7.247   2.862   3.302 -0.3107  0.1814  0.1274
   30MOL   C214 8972   7.201   2.727   3.354 -1.0395 -0.1629  0.0821
   30MOL   O215 8973   7.087   2.707   3.380 -0.0779 -0.6945 -0.6919
   30MOL   O216 8974   7.300   2.641   3.378 -0.4121  0.7928  0.2480
   30MOL   C217 8975   7.273   2.527   3.447 -0.0232 -0.8010  0.0444
   30MOL   C218 8976   7.409   2.456   3.473  0.4128  0.3146  0.5842
   30MOL   H219 8977   7.338   3.050   3.370 -0.9055  0.3995 -0.0376
   30MOL   H220 8978   7.362   2.913   3.470  0.2594 -0.5358 -0.2494
   30MOL   H221 8979   7.156   2.899   3.254  0.0414  0.2639 -0.4927
   30MOL   H222 8980   7.235   2.558   3.544  1.0981  3.7317 -0.8725
   30MOL   H223 8981   7.197   2.464   3.400 -1.4268  0.2816  0.8227
   30MOL   H224 8982   7.483   2.448   3.393  0.8709 -0.1009  1.0543
   30MOL   H225 8983   7.404   2.354   3.510  0.0336  0.7244  1.6880
   30MOL   H226 8984   7.475   2.508   3.541  1.0505 -1.2439  1.1727
   30MOL   C227 8985   7.353   2.857   3.187  0.1529 -0.8920 -0.0343
   30MOL   C228 8986   7.303   2.880   3.045 -0.1904  0.3878  0.6002
   30MOL   C229 8987   7.279   3.023   3.011  0.0148 -0.4984 -0.6780
   30MOL   O230 8988   7.285   3.110   3.093 -0.3461  0.3035  0.0655
   30MOL   O231 8989   7.266   3.038   2.878 -0.0633 -0.1113  0.3154
   30MOL   C232 8990   7.216   3.162   2.828 -0.2198 -0.0049 -0.1214
   30MOL   C233 8991   7.070   3.179   2.845 -0.2077 -0.1884  0.5724
   30MOL   H234 8992   7.430   2.934   3.203  1.0965 -1.2706 -2.6307
   30MOL   H235 8993   7.403   2.760   3.181 -0.4095 -1.2578  0.9887
   30MOL   H236 8994   7.384   2.854   2.976 -0.8528 -0.2106  0.0356
   30MOL   H237 8995   7.264   3.245   2.879 -0.1539  0.0847 -0.3315
   30MOL   H238 8996   7.248   3.170   2.724 -1.2596 -1.0964 -0.5435
   30MOL   H239 8997   7.018   3.087   2.819 -2.9082  1.3908  0.2539
   30MOL   H240 8998   7.033   3.267   2.792  0.6630 -0.5942 -0.7266
   30MOL   H241 8999   7.051   3.200   2.950 -1.0872 -0.7660  0.5259
   30MOL   C242 9000   7.181   2.795   2.995 -0.3102 -0.2567  0.0595
   30MOL   C243 9001   7.202   2.639   3.016  0.5650 -0.7396 -0.3987
   30MOL   C244 9002   7.323   2.572   2.952  0.2347  0.0763 -0.1740
   30MOL   O245 9003   7.409   2.505   3.014 -0.7769  1.0193 -0.2418
   30MOL   O246 9004   7.324   2.600   2.818  0.6192  0.5277  0.5390
   30MOL   C247 9005   7.421   2.538   2.737  0.4420  0.2099  0.7680
   30MOL   C248 9006   7.343   2.423   2.678  0.2251 -0.0401 -0.3872
   30MOL   H249 9007   7.092   2.822   3.051 -0.2678 -1.9380  0.9660
   30MOL   H250 9008   7.165   2.806   2.887  0.4277 -2.4157 -0.3045
   30MOL   H251 9009   7.221   2.619   3.122  0.3259 -0.3367 -0.2759
   30MOL   H252 9010   7.445   2.601   2.652  1.6377 -0.1848  0.8073
   30MOL   H253 9011   7.519   2.515   2.778  0.9559 -1.0398 -1.1433
   30MOL   H254 9012   7.397   2.374   2.598 -1.9658  2.1845 -3.3470
   30MOL   H255 9013   7.257   2.468   2.628 -0.9985 -0.3736  1.3659
   30MOL   H256 9014   7.303   2.358   2.756  2.9164 -0.1473  0.9316
   30MOL   C257 9015   7.063   2.573   2.985 -0.5077 -0.5773 -0.5753
   30MOL   C258 9016   7.050   2.423   2.992 -0.2830 -0.1939 -0.2294
   30MOL   C259 9017   6.914   2.387   2.928  0.2074  0.0618 -0.4496
   30MOL   O260 9018   6.912   2.317   2.829 -0.1953 -0.1985  0.1140
   30MOL   O261 9019   6.803   2.438   2.994  0.2171  0.6642 -0.5647
   30MOL   C262 9020   6.672   2.434   2.945  0.1297  0.3384  0.4335
   30MOL   C263 9021   6.621   2.570   2.907 -0.1083  0.0839  0.6397
   30MOL   H264 9022   6.976   2.611   3.040 -0.1948  1.0656 -1.1869
   30MOL   H265 9023   7.036   2.600   2.883  0.4931 -2.0618 -1.2457
   30MOL   H266 9024   7.120   2.372   2.926 -0.8759  0.5504 -1.4657
   30MOL   H267 9025   6.642   2.359   2.871 -1.8253  1.6835 -0.1773
   30MOL   H268 9026   6.611   2.387   3.022 -1.9812 -1.4717 -2.2550
   30MOL   H269 9027   6.687   2.626   2.840 -0.4120  0.1255  0.3793
   30MOL   H270 9028   6.613   2.630   2.998 -1.4090  1.1826 -0.1881
   30MOL   H271 9029   6.524   2.569   2.859  0.5112 -0.7656 -0.6259
   30MOL   C272 9030   7.074   2.361   3.134 -0.5502 -0.2294  0.5884
   30MOL   C273 9031   7.115   2.207   3.139 -0.2364  0.3339 -0.1025
   30MOL   C274 9032   6.995   2.108   3.133  1.1020  0.1954 -0.0043
   30MOL   O275 9033   6.989   2.028   3.044  0.1003 -0.1896 -0.9511
   30MOL   O276 9034   6.914   2.112   3.239 -1.1239 -0.0069 -0.5233
   30MOL   C277 9035   6.793   2.036   3.262 -0.5600  0.4672  0.0112
   30MOL   C278 9036   6.682   2.123   3.206 -0.0573 -0.5931 -0.0151
   30MOL   H279 9037   7.160   2.415   3.175 -0.9296  0.9151 -0.1165
   30MOL   H280 9038   7.006   2.396   3.212 -0.2965  2.4820 -0.3568
   30MOL   H281 9039   7.173   2.180   3.051  0.5298 -0.3222  0.5933
   30MOL   H282 9040   6.813   1.943   3.209  0.6763 -0.8653  2.6991
   30MOL   H283 9041   6.789   2.014   3.369  0.8726  0.6389  0.1106
   30MOL   H284 9042   6.723   2.174   3.119  0.0448  0.8402  0.8561
   30MOL   H285 9043   6.660   2.189   3.290  0.4054  0.5679 -0.8036
   30MOL   H286 9044   6.594   2.065   3.178 -1.2988  1.2618 -0.0219
   30MOL   C287 9045   7.214   2.189   3.257 -0.0205 -0.5297 -0.2146
   30MOL   C288 9046   7.274   2.051   3.271  0.3841 -0.4068 -0.6640
   30MOL   C289 9047   7.201   1.964   3.370  0.1381 -0.3673 -0.2276
   30MOL   O290 9048   7.172   2.006   3.486 -0.4565 -0.5045 -0.1275
   30MOL   O291 9049   7.180   1.836   3.319  0.7536 -0.3102 -0.4594
   30MOL   C292 9050   7.111   1.744   3.400 -0.9068 -0.2515 -1.0074
   30MOL   C293 9051   6.999   1.689   3.317  0.0205  0.0468  0.4373
   30MOL   H294 9052   7.301   2.240   3.215  1.0430 -2.5454 -0.5313
   30MOL   H295 9053   7.173   2.230   3.349 -0.3966 -2.7331  0.6303
   30MOL   H296 9054   7.272   1.987   3.183 -0.1629 -1.7113  0.2895
   30MOL   H297 9055   7.172   1.656   3.421 -0.3333  0.4460  0.3181
   30MOL   H298 9056   7.073   1.773   3.499  1.0638 -1.7594  0.2145
   30MOL   H299 9057   6.929   1.631   3.378  1.5365 -3.5038 -1.1019
   30MOL   H300 9058   7.043   1.631   3.236  0.9037  0.5759  0.5275
   30MOL   H301 9059   6.945   1.775   3.277 -2.7272 -1.1762  1.4150
   30MOL   H302 9060   7.378   2.072   3.298  0.6372 -1.1128 -1.0590
   31MOL     C1 9061   3.694   4.566   7.362  0.2734  0.1900 -0.2646
   31MOL     C2 9062   3.616   4.450   7.298 -0.0589 -0.5919  0.0791
   31MOL     C3 9063   3.474   4.433   7.353  0.4288  0.3689  0.3605
   31MOL     O4 9064   3.377   4.418   7.280  0.1482  0.2519  0.0860
   31MOL     O5 9065   3.456   4.425   7.488 -0.5072  0.6816 -0.1843
   31MOL     C6 9066   3.327   4.413   7.539  0.4226 -0.0178 -0.5465
   31MOL     C7 9067   3.324   4.388   7.689 -0.3211  0.5653 -0.8478
   31MOL     H8 9068   3.635   4.657   7.376  0.8149  0.3984  0.7304
   31MOL     H9 9069   3.778   4.590   7.297 -0.1613 -0.0688 -0.9223
   31MOL    H10 9070   3.612   4.471   7.191 -0.6480 -0.2052  0.1794
   31MOL    H11 9071   3.284   4.511   7.522 -0.2710 -0.1789  0.2296
   31MOL    H12 9072   3.272   4.330   7.493 -0.2444  0.1054  0.0092
   31MOL    H13 9073   3.334   4.281   7.705 -0.3550  0.8656  1.3261
   31MOL    H14 9074   3.228   4.422   7.729 -0.6283  0.2846 -1.3384
   31MOL    H15 9075   3.410   4.433   7.738  0.8264 -2.5910  0.1664
   31MOL    H16 9076   3.734   4.531   7.457  0.3954 -1.5659 -0.9472
   31MOL    C17 9077   3.697   4.314   7.323 -0.2149  0.5090 -0.3729
   31MOL    C18 9078   3.640   4.191   7.244  0.3539 -0.2828  0.6655
   31MOL    C19 9079   3.557   4.098   7.325  0.1928  0.2633 -0.0538
   31MOL    O20 9080   3.557   4.107   7.447  0.6442  0.5631  0.2579
   31MOL    O21 9081   3.483   4.014   7.256 -0.4015 -0.2526  0.2543
   31MOL    C22 9082   3.381   3.933   7.317 -0.3328  0.4819  0.3284
   31MOL    C23 9083   3.256   4.011   7.352  0.5377  0.0654  0.1271
   31MOL    H24 9084   3.804   4.329   7.310 -0.2412 -0.0577 -1.2788
   31MOL    H25 9085   3.704   4.284   7.428 -0.9025  0.5401 -0.3136
   31MOL    H26 9086   3.576   4.225   7.163 -0.5832 -0.3482  1.3723
   31MOL    H27 9087   3.350   3.857   7.245 -0.6176  1.3166 -0.4440
   31MOL    H28 9088   3.418   3.886   7.408 -1.6106 -1.5927 -0.1862
   31MOL    H29 9089   3.271   4.109   7.397  2.2330 -0.3949  0.6151
   31MOL    H30 9090   3.193   3.953   7.419  2.0464 -1.5611  0.1657
   31MOL    H31 9091   3.201   4.022   7.258  2.2504 -0.6424 -0.9840
   31MOL    C32 9092   3.752   4.105   7.164 -0.0420  0.1432 -0.4982
   31MOL    C33 9093   3.805   4.164   7.032  0.0696  0.6428  0.4844
   31MOL    C34 9094   3.876   4.299   7.041  0.5059  0.8340  0.1950
   31MOL    O35 9095   3.838   4.399   6.978 -0.1636  0.0365 -0.1152
   31MOL    O36 9096   3.978   4.294   7.126 -0.1266 -0.1737  0.8116
   31MOL    C37 9097   4.037   4.415   7.154  0.4200  0.3220 -0.1738
   31MOL    C38 9098   4.127   4.405   7.274  0.5796  0.6487 -0.1400
   31MOL    H39 9099   3.828   4.091   7.241 -1.7937  1.0644  1.4574
   31MOL    H40 9100   3.713   4.006   7.140  1.0472 -0.3277 -0.3445
   31MOL    H41 9101   3.888   4.105   6.992 -0.8054 -1.3365  1.5347
   31MOL    H42 9102   4.088   4.471   7.075  0.5288  0.4940  0.0186
   31MOL    H43 9103   3.955   4.478   7.190  0.4638 -0.0069  0.4940
   31MOL    H44 9104   4.230   4.386   7.244  0.1403 -3.0302  0.3670
   31MOL    H45 9105   4.094   4.326   7.342 -3.1156  0.5617 -1.8972
   31MOL    H46 9106   4.132   4.499   7.329 -1.4635 -0.0093  1.2421
   31MOL    C47 9107   3.696   4.158   6.923 -0.1564 -0.4187 -0.3133
   31MOL    C48 9108   3.744   4.105   6.789 -0.5741  0.1287 -0.4515
   31MOL    C49 9109   3.833   4.207   6.706 -0.4516  0.2907 -0.2249
   31MOL    O50 9110   3.937   4.174   6.653 -0.0042 -0.6008 -0.3400
   31MOL    O51 9111   3.768   4.328   6.696  0.4580  0.1937 -0.5121
   31MOL    C52 9112   3.835   4.439   6.645  0.4280  0.0257  0.2878
   31MOL    C53 9113   3.748   4.566   6.638  0.4261  0.2080 -0.4943
   31MOL    H54 9114   3.613   4.097   6.959 -0.8668 -0.0108 -1.2439
   31MOL    H55 9115   3.642   4.251   6.908  3.2336  1.3826 -1.8276
   31MOL    H56 9116   3.822   4.031   6.806 -1.4880 -0.2080  2.4060
   31MOL    H57 9117   3.919   4.455   6.712  0.5130  1.4524 -0.1511
   31MOL    H58 9118   3.874   4.418   6.546 -1.3020 -0.3387 -0.3306
   31MOL    H59 9119   3.700   4.595   6.732 -0.8003 -1.4899 -0.5701
   31MOL    H60 9120   3.661   4.553   6.572  1.6546 -0.2871 -2.0459
   31MOL    H61 9121   3.806   4.653   6.607  3.9987 -1.0555  2.2830
   31MOL    C62 9122   3.631   4.046   6.704  0.3515 -0.6003 -0.3635
   31MOL    C63 9123   3.569   3.916   6.763  0.1685  0.1110  0.7753
   31MOL    C64 9124   3.671   3.808   6.767 -0.1429 -0.1725  0.1076
   31MOL    O65 9125   3.700   3.763   6.876  0.7637 -0.0960  0.7288
   31MOL    O66 9126   3.720   3.769   6.652  0.4226  0.1628  0.1467
   31MOL    C67 9127   3.822   3.658   6.646 -0.1577  0.1933  0.1938
   31MOL    C68 9128   3.967   3.705   6.635  0.9199 -0.7554 -0.1322
   31MOL    H69 9129   3.556   4.126   6.710  0.0099 -0.9889  0.7990
   31MOL    H70 9130   3.656   4.034   6.599  0.6659 -0.6961 -0.2780
   31MOL    H71 9131   3.541   3.925   6.868 -3.7789 -4.3907  0.2922
   31MOL    H72 9132   3.816   3.616   6.747  0.6738 -0.2050  0.0811
   31MOL    H73 9133   3.789   3.580   6.579  3.3371 -2.6001  1.5936
   31MOL    H74 9134   3.979   3.773   6.550 -0.3117  2.9396  2.5363
   31MOL    H75 9135   4.049   3.633   6.640  2.2097  0.7459  0.5090
   31MOL    H76 9136   3.972   3.778   6.716  2.6222  1.2030 -1.9450
   31MOL    C77 9137   3.437   3.877   6.693 -0.3794  0.5698  0.0113
   31MOL    C78 9138   3.324   3.840   6.799  0.3138  0.1976 -0.1257
   31MOL    C79 9139   3.352   3.723   6.891 -0.1042 -0.4557 -0.4161
   31MOL    O80 9140   3.338   3.734   7.017 -0.0700  0.4257  0.2645
   31MOL    O81 9141   3.388   3.611   6.827 -0.3850  0.1191 -0.1016
   31MOL    C82 9142   3.432   3.496   6.902 -0.3759 -0.0783  0.1485
   31MOL    C83 9143   3.405   3.368   6.831 -0.6150 -0.6058  1.0275
   31MOL    H84 9144   3.406   3.964   6.635 -2.7761 -0.3172 -0.1131
   31MOL    H85 9145   3.449   3.799   6.618 -0.6848 -1.1925  1.7522
   31MOL    H86 9146   3.310   3.919   6.873 -0.2575 -1.1629  1.2355
   31MOL    H87 9147   3.540   3.502   6.918 -0.2154 -0.9875 -0.5910
   31MOL    H88 9148   3.390   3.492   7.003  2.1736  0.2036  1.2732
   31MOL    H89 9149   3.432   3.380   6.727 -1.0704  2.0888  1.1901
   31MOL    H90 9150   3.298   3.348   6.835 -0.7503 -0.2788 -0.6585
   31MOL    H91 9151   3.456   3.284   6.879  1.0169 -0.9642 -1.2316
   31MOL    C92 9152   3.189   3.836   6.717  0.3429  0.3410 -0.9731
   31MOL    C93 9153   3.054   3.835   6.793  0.9943  0.4709  0.6639
   31MOL    C94 9154   3.057   3.924   6.920 -0.3274  0.1467 -0.4206
   31MOL    O95 9155   3.044   3.882   7.042  0.4376 -0.2048 -0.0081
   31MOL    O96 9156   3.088   4.041   6.886  0.0935 -0.2080  0.2011
   31MOL    C97 9157   3.118   4.138   6.974  0.0209 -0.2598 -0.0965
   31MOL    C98 9158   3.243   4.216   6.937  0.5085  0.0183 -0.2931
   31MOL    H99 9159   3.179   3.918   6.646  1.4942  0.4648 -1.0101
   31MOL   H100 9160   3.194   3.751   6.649  2.8907 -1.3357  1.2131
   31MOL   H101 9161   2.983   3.886   6.728 -0.7243 -3.5971 -0.8349
   31MOL   H102 9162   3.034   4.206   6.988  1.5971  2.1667 -2.0043
   31MOL   H103 9163   3.148   4.087   7.066 -1.1909 -0.9733 -0.0762
   31MOL   H104 9164   3.328   4.149   6.923  0.0018 -1.0109  1.4445
   31MOL   H105 9165   3.268   4.286   7.017 -0.3868  0.0149 -0.0064
   31MOL   H106 9166   3.227   4.273   6.846 -0.6379  1.8914  1.0375
   31MOL   C107 9167   3.011   3.689   6.823 -0.1544  0.3503 -0.4381
   31MOL   C108 9168   2.980   3.597   6.700 -0.6596  0.2813  0.3548
   31MOL   C109 9169   2.865   3.655   6.616  0.5155  0.5068 -0.7082
   31MOL   O110 9170   2.771   3.719   6.664  0.1702 -0.1533 -0.1003
   31MOL   O111 9171   2.865   3.620   6.485 -0.3359  0.0033  0.8908
   31MOL   C112 9172   2.768   3.674   6.394  1.0652 -0.5945  0.0788
   31MOL   C113 9173   2.772   3.596   6.268 -0.0427  0.5883  0.8889
   31MOL   H114 9174   3.084   3.637   6.884  0.0519  0.7194 -0.3715
   31MOL   H115 9175   2.921   3.690   6.886  0.0153  0.6544 -0.2019
   31MOL   H116 9176   3.065   3.594   6.633  0.0251 -2.4410  1.2794
   31MOL   H117 9177   2.665   3.670   6.430  0.9011 -1.1167 -0.4373
   31MOL   H118 9178   2.797   3.777   6.372  1.4873 -0.5745  0.7242
   31MOL   H119 9179   2.785   3.488   6.271 -0.5315  0.5424  1.4771
   31MOL   H120 9180   2.852   3.636   6.206  0.6156 -0.8889  0.7688
   31MOL   H121 9181   2.679   3.615   6.214 -0.3230  0.1308  1.2066
   31MOL   C122 9182   2.954   3.447   6.736  0.3834 -0.2473 -0.2931
   31MOL   C123 9183   2.997   3.355   6.619  0.6445  1.1672  0.3198
   31MOL   C124 9184   2.943   3.215   6.629  0.6565 -0.2566  0.0155
   31MOL   O125 9185   2.924   3.160   6.741 -0.0811  0.2766 -0.0971
   31MOL   O126 9186   2.912   3.163   6.510 -0.4297 -0.0817 -0.2784
   31MOL   C127 9187   2.856   3.036   6.501 -0.2181  0.2988  0.0815
   31MOL   C128 9188   2.801   3.010   6.364 -0.6349 -1.0197  0.4918
   31MOL   H129 9189   3.009   3.409   6.822  0.1606  1.7327  0.7503
   31MOL   H130 9190   2.850   3.420   6.759  0.4114 -1.3318 -1.3544
   31MOL   H131 9191   2.964   3.406   6.528  2.2234 -1.0447 -1.5393
   31MOL   H132 9192   2.938   2.964   6.513  0.6340  1.0521 -1.1337
   31MOL   H133 9193   2.777   3.021   6.575 -0.0083  0.8398  0.4194
   31MOL   H134 9194   2.879   3.001   6.289 -1.4759 -1.8036 -0.2882
   31MOL   H135 9195   2.736   3.093   6.337  4.0334  2.6286 -0.3463
   31MOL   H136 9196   2.743   2.918   6.364  0.4774 -1.7754  2.7813
   31MOL   C137 9197   3.147   3.362   6.603 -0.4007  0.1223 -0.2108
   31MOL   C138 9198   3.199   3.404   6.462  0.1614  0.8875 -0.0341
   31MOL   C139 9199   3.168   3.290   6.362 -0.6681  0.0724  0.1197
   31MOL   O140 9200   3.070   3.303   6.289 -0.7799 -0.1024 -0.6392
   31MOL   O141 9201   3.263   3.194   6.364 -0.6184  0.3766  0.6338
   31MOL   C142 9202   3.251   3.068   6.299 -0.0382  0.1744  0.1321
   31MOL   C143 9203   3.383   2.995   6.306  0.0762 -1.0467 -0.5651
   31MOL   H144 9204   3.191   3.428   6.678 -1.9832 -0.9714  1.7311
   31MOL   H145 9205   3.186   3.263   6.628  0.0972  0.6783  1.3012
   31MOL   H146 9206   3.132   3.486   6.434 -0.7040  0.6820  1.4026
   31MOL   H147 9207   3.170   3.007   6.339  0.6966  0.2991  1.8590
   31MOL   H148 9208   3.229   3.078   6.193  0.6952  0.7284  0.0306
   31MOL   H149 9209   3.390   2.962   6.409 -0.3100  2.1229  0.5237
   31MOL   H150 9210   3.467   3.058   6.278 -0.0693 -1.0712 -1.0690
   31MOL   H151 9211   3.393   2.909   6.240  2.0430 -1.8167  0.6860
   31MOL   C152 9212   3.347   3.456   6.469 -0.0398 -0.1716 -0.5414
   31MOL   C153 9213   3.396   3.562   6.364  0.2851 -0.5661 -0.5424
   31MOL   C154 9214   3.363   3.512   6.223  0.1927  0.9641 -0.8310
   31MOL   O155 9215   3.407   3.406   6.179  0.5223 -0.0024 -0.0013
   31MOL   O156 9216   3.301   3.604   6.159  0.5165  0.2682  0.1751
   31MOL   C157 9217   3.253   3.575   6.027  0.3079 -0.5425  0.9140
   31MOL   C158 9218   3.176   3.689   5.975  0.6118 -0.9891  0.3649
   31MOL   H159 9219   3.364   3.514   6.560  3.8795 -2.6033  0.3683
   31MOL   H160 9220   3.421   3.378   6.454 -0.4727 -0.8202  0.5736
   31MOL   H161 9221   3.349   3.659   6.383  0.6465 -0.0425 -2.2183
   31MOL   H162 9222   3.344   3.561   5.969 -0.7202 -1.2957 -0.5505
   31MOL   H163 9223   3.199   3.481   6.029  1.3981 -1.2483 -1.4971
   31MOL   H164 9224   3.129   3.672   5.879  1.2172 -1.3866  0.1354
   31MOL   H165 9225   3.248   3.770   5.959  0.9151 -1.5618 -1.2252
   31MOL   H166 9226   3.108   3.721   6.054  0.5769  0.2614 -0.1596
   31MOL   C167 9227   3.540   3.590   6.386  0.1938  0.1470 -0.5933
   31MOL   C168 9228   3.616   3.684   6.282 -0.4625  0.5059 -0.2335
   31MOL   C169 9229   3.735   3.612   6.209  0.5663  0.1950 -0.8087
   31MOL   O170 9230   3.728   3.599   6.090  0.5023  0.1286 -0.2533
   31MOL   O171 9231   3.827   3.564   6.291  0.1198 -0.0036  0.3628
   31MOL   C172 9232   3.948   3.519   6.239  0.3386 -0.0910 -0.5591
   31MOL   C173 9233   4.033   3.458   6.349 -0.3597 -0.3973  0.0316
   31MOL   H174 9234   3.542   3.628   6.488 -0.2308  0.9495 -0.8804
   31MOL   H175 9235   3.587   3.492   6.381 -2.4894 -1.3131  1.4512
   31MOL   H176 9236   3.547   3.710   6.202 -0.0690  0.0032 -0.7454
   31MOL   H177 9237   3.934   3.440   6.165 -0.5809  0.1227 -0.6214
   31MOL   H178 9238   4.007   3.603   6.204  0.8307  0.4485  1.4859
   31MOL   H179 9239   3.986   3.374   6.401  1.6357 -0.3751  1.9243
   31MOL   H180 9240   4.054   3.525   6.432  0.3997 -1.9998  1.1578
   31MOL   H181 9241   4.130   3.419   6.318 -0.3928 -0.9349  0.6087
   31MOL   C182 9242   3.660   3.824   6.339  0.5543  1.0410  1.1951
   31MOL   C183 9243   3.649   3.937   6.235  0.2058  0.7785  0.5924
   31MOL   C184 9244   3.744   3.920   6.125  0.2585 -0.1358 -0.0082
   31MOL   O185 9245   3.865   3.923   6.142  0.0260  0.2803 -0.3784
   31MOL   O186 9246   3.688   3.936   6.005  0.0276 -0.0380 -0.5312
   31MOL   C187 9247   3.761   3.941   5.891 -0.6324  0.2848  0.3989
   31MOL   C188 9248   3.664   3.960   5.766 -0.0119 -0.2005 -0.0281
   31MOL   H189 9249   3.585   3.851   6.414 -0.6862 -0.9345  0.6985
   31MOL   H190 9250   3.763   3.826   6.373  1.3251  0.4499 -1.0164
   31MOL   H191 9251   3.549   3.923   6.193  1.0646 -3.4543 -0.2858
   31MOL   H192 9252   3.825   4.027   5.906  0.3403 -0.5340  1.0703
   31MOL   H193 9253   3.818   3.848   5.883 -3.5790 -1.5639  0.1814
   31MOL   H194 9254   3.649   3.863   5.719  3.0794 -0.8514  0.1890
   31MOL   H195 9255   3.704   4.015   5.681 -0.1309 -0.2113 -0.0904
   31MOL   H196 9256   3.563   3.984   5.797 -0.4307 -0.8408 -0.8721
   31MOL   C197 9257   3.670   4.071   6.315 -0.2163 -0.3093 -0.2634
   31MOL   C198 9258   3.657   4.202   6.219 -0.2864  0.6477 -0.4653
   31MOL   C199 9259   3.667   4.329   6.297  0.6428  0.5203 -0.2692
   31MOL   O200 9260   3.637   4.342   6.414 -0.1090  0.0206  0.3022
   31MOL   O201 9261   3.698   4.426   6.212  0.0877 -0.5176 -0.8541
   31MOL   C202 9262   3.701   4.560   6.258 -0.1208 -0.2240  0.4938
   31MOL   C203 9263   3.600   4.654   6.197 -0.0043 -0.1354 -0.2376
   31MOL   H204 9264   3.605   4.078   6.402  0.1246 -1.9759  0.1490
   31MOL   H205 9265   3.763   4.084   6.370  0.6728 -1.3590 -1.4916
   31MOL   H206 9266   3.742   4.200   6.151  0.4898  0.8556  0.4972
   31MOL   H207 9267   3.671   4.569   6.363 -3.1810 -1.5387 -0.2095
   31MOL   H208 9268   3.804   4.591   6.240  0.0369 -1.4738 -0.9032
   31MOL   H209 9269   3.608   4.754   6.240 -1.0000 -0.5189  0.8581
   31MOL   H210 9270   3.497   4.620   6.204 -0.2414  1.0179  2.2182
   31MOL   H211 9271   3.605   4.650   6.088 -0.3614 -1.8441 -0.2097
   31MOL   C212 9272   3.536   4.207   6.123  0.8252  0.3656  0.0667
   31MOL   C213 9273   3.394   4.233   6.193  0.2145  0.0490 -0.2320
   31MOL   C214 9274   3.338   4.137   6.298  0.4908  0.8104  0.0734
   31MOL   O215 9275   3.348   4.154   6.419  0.0375 -0.0747 -0.6220
   31MOL   O216 9276   3.293   4.023   6.251 -0.1199  0.1414  0.4256
   31MOL   C217 9277   3.221   3.937   6.337  0.3170 -0.7459  0.1797
   31MOL   C218 9278   3.082   3.991   6.349 -0.3887  0.0885  0.1114
   31MOL   H219 9279   3.556   4.288   6.053  0.0518  1.9336  1.6033
   31MOL   H220 9280   3.530   4.121   6.057  1.8812  0.6393 -0.4036
   31MOL   H221 9281   3.409   4.325   6.250 -0.9049  1.3347 -1.9624
   31MOL   H222 9282   3.214   3.835   6.300 -1.7755 -0.3114 -0.6671
   31MOL   H223 9283   3.277   3.921   6.430 -0.2635  1.4180  0.9343
   31MOL   H224 9284   3.076   4.089   6.396 -1.7563 -0.5817  1.4162
   31MOL   H225 9285   3.027   3.932   6.423 -0.9175 -0.8751 -1.0267
   31MOL   H226 9286   3.018   3.988   6.261 -2.6089 -0.3555  1.6912
   31MOL   C227 9287   3.284   4.275   6.091  0.4521 -0.1878 -0.1418
   31MOL   C228 9288   3.149   4.338   6.147 -0.1396 -0.2212 -0.5088
   31MOL   C229 9289   3.038   4.327   6.046 -0.0059  0.0384  0.6201
   31MOL   O230 9290   2.937   4.261   6.071  0.3919 -0.1663  0.2993
   31MOL   O231 9291   3.057   4.404   5.939  0.1397  0.0767  0.1030
   31MOL   C232 9292   2.958   4.418   5.841  0.4097  0.3110  0.1865
   31MOL   C233 9293   2.988   4.521   5.741  0.1700  0.4281 -0.4495
   31MOL   H234 9294   3.335   4.340   6.020 -0.3437  0.1098 -0.4490
   31MOL   H235 9295   3.258   4.188   6.031  1.5607  0.7232 -1.9640
   31MOL   H236 9296   3.111   4.275   6.227 -2.9101  0.9481 -0.8476
   31MOL   H237 9297   2.946   4.321   5.793 -0.1170 -0.4703  1.8406
   31MOL   H238 9298   2.862   4.441   5.889 -0.6558  0.7396 -2.1028
   31MOL   H239 9299   3.068   4.489   5.674  1.2496 -0.1622  1.0925
   31MOL   H240 9300   3.017   4.612   5.795  1.5316 -0.0702 -0.3250
   31MOL   H241 9301   2.907   4.554   5.675 -1.2786  2.0927  2.0445
   31MOL   C242 9302   3.156   4.482   6.194  0.0075  0.6477  0.9366
   31MOL   C243 9303   3.032   4.526   6.282  0.0767 -0.7828 -0.6161
   31MOL   C244 9304   3.005   4.680   6.281 -0.1585 -0.1172  0.4039
   31MOL   O245 9305   3.090   4.760   6.313  0.5392 -0.3727 -0.7178
   31MOL   O246 9306   2.872   4.717   6.237 -0.4442 -0.1169 -0.4358
   31MOL   C247 9307   2.834   4.853   6.239 -0.2409 -0.3300 -0.1805
   31MOL   C248 9308   2.694   4.864   6.307 -0.3787  0.0825  0.2838
   31MOL   H249 9309   3.257   4.501   6.229  0.6071  1.1871 -0.9990
   31MOL   H250 9310   3.159   4.550   6.108 -0.8807  1.3603  1.4613
   31MOL   H251 9311   2.937   4.487   6.247 -0.4608  2.6415 -3.2268
   31MOL   H252 9312   2.886   4.921   6.308 -1.2577 -1.0950  1.3728
   31MOL   H253 9313   2.840   4.903   6.143 -0.1402 -0.4846 -0.2550
   31MOL   H254 9314   2.694   4.878   6.415  0.4627 -1.8821  0.5633
   31MOL   H255 9315   2.639   4.772   6.288 -1.9050  0.8593  0.9269
   31MOL   H256 9316   2.645   4.943   6.250  2.5435  1.4925 -0.4164
   31MOL   C257 9317   3.046   4.478   6.430  0.3995  0.0571 -0.2751
   31MOL   C258 9318   2.912   4.471   6.514  0.2983  0.3571 -0.0240
   31MOL   C259 9319   2.875   4.601   6.583  0.4162 -0.1663  0.5317
   31MOL   O260 9320   2.759   4.637   6.569  0.1572  0.1245 -0.0179
   31MOL   O261 9321   2.970   4.657   6.661  0.0836  0.2734 -0.5564
   31MOL   C262 9322   2.942   4.778   6.725  0.4590 -0.3809  0.4086
   31MOL   C263 9323   3.010   4.759   6.864  0.2378  0.0794  0.5231
   31MOL   H264 9324   3.089   4.380   6.407 -1.5982 -0.6625 -1.0576
   31MOL   H265 9325   3.121   4.539   6.479  0.9615  1.0000 -2.2711
   31MOL   H266 9326   2.836   4.453   6.439  0.2852  1.8969 -0.4039
   31MOL   H267 9327   2.994   4.855   6.668  0.2580 -0.4635  0.1124
   31MOL   H268 9328   2.836   4.802   6.734  0.1364 -2.4103  2.5794
   31MOL   H269 9329   3.118   4.744   6.862  0.4750  1.6635  0.3273
   31MOL   H270 9330   2.979   4.660   6.897 -0.6131 -0.8441 -2.9370
   31MOL   H271 9331   2.990   4.840   6.935  0.5718  0.8739 -0.2720
   31MOL   C272 9332   2.913   4.348   6.609  1.2375 -0.1906  0.4928
   31MOL   C273 9333   2.775   4.301   6.649 -0.8695  0.5576  0.4810
   31MOL   C274 9334   2.723   4.381   6.770 -0.1368 -0.5303 -0.1554
   31MOL   O275 9335   2.791   4.416   6.868 -0.4985 -0.1680 -0.6667
   31MOL   O276 9336   2.603   4.431   6.743 -0.3457  0.6453  0.3997
   31MOL   C277 9337   2.557   4.537   6.821  0.5376 -0.6826 -0.0968
   31MOL   C278 9338   2.440   4.608   6.750  0.3209  0.2702  0.0235
   31MOL   H279 9339   2.963   4.267   6.556  0.2493 -0.5529  0.1079
   31MOL   H280 9340   2.981   4.371   6.691 -0.0877  0.2629  1.4743
   31MOL   H281 9341   2.703   4.318   6.569  1.7011 -1.0602 -2.2358
   31MOL   H282 9342   2.536   4.492   6.919 -0.4534 -1.2692 -0.5731
   31MOL   H283 9343   2.639   4.607   6.832  1.6090 -2.3136  3.0376
   31MOL   H284 9344   2.365   4.533   6.726  1.1067  0.3291 -2.7835
   31MOL   H285 9345   2.468   4.655   6.656 -0.6374 -1.3000 -1.0501
   31MOL   H286 9346   2.384   4.678   6.812 -0.8518  0.3939 -1.1531
   31MOL   C287 9347   2.771   4.154   6.661  0.0347 -0.2600  0.3649
   31MOL   C288 9348   2.775   4.065   6.530  0.4699 -0.1314 -0.6772
   31MOL   C289 9349   2.646   4.072   6.442 -0.2958  0.3637 -0.4554
   31MOL   O290 9350   2.541   4.120   6.478  0.0448 -0.1320  0.1951
   31MOL   O291 9351   2.666   4.015   6.314 -0.0268  0.9370 -0.9286
   31MOL   C292 9352   2.565   3.993   6.222 -0.5159 -0.5150 -0.0591
   31MOL   C293 9353   2.643   3.928   6.104  0.0961 -0.1818 -0.0596
   31MOL   H294 9354   2.848   4.121   6.732  0.3312 -1.2648 -0.4053
   31MOL   H295 9355   2.683   4.119   6.715  1.4679 -1.4479  1.9978
   31MOL   H296 9356   2.856   4.107   6.470  0.6243  1.9715  0.9508
   31MOL   H297 9357   2.495   3.931   6.278  0.7528 -1.4561  0.5268
   31MOL   H298 9358   2.517   4.084   6.187 -2.9491 -1.1971  1.4270
   31MOL   H299 9359   2.587   3.937   6.011 -0.5716  2.1869  0.5374
   31MOL   H300 9360   2.650   3.821   6.128  1.3935  0.2125  1.4272
   31MOL   H301 9361   2.742   3.972   6.096 -0.3148  0.3586 -2.4591
   31MOL   H302 9362   2.805   3.961   6.543  0.2920 -0.1184 -0.1564
   32MOL     C1 9363   6.566   6.042   7.763  0.8460  0.4289 -0.2971
   32MOL     C2 9364   6.456   5.984   7.859  0.3759 -0.3433  0.4481
   32MOL     C3 9365   6.389   5.863   7.798  0.7825 -0.9626  0.1509
   32MOL     O4 9366   6.385   5.757   7.862 -0.3007 -0.1754  0.3687
   32MOL     O5 9367   6.336   5.883   7.681 -0.9794 -0.3128  0.4052
   32MOL     C6 9368   6.270   5.776   7.610  1.2410  0.2996  0.4204
   32MOL     C7 9369   6.243   5.831   7.467 -0.4590 -0.1513 -0.1526
   32MOL     H8 9370   6.620   6.121   7.815 -1.1028  1.6763 -0.1005
   32MOL     H9 9371   6.536   6.089   7.669 -2.1152  0.1575  0.4687
   32MOL    H10 9372   6.500   5.953   0.046  1.6594 -0.9072 -0.3192
   32MOL    H11 9373   6.324   5.682   7.609 -0.1651 -0.5190 -0.9912
   32MOL    H12 9374   6.177   5.743   7.656  0.8279  0.7436 -0.0905
   32MOL    H13 9375   6.178   5.918   7.474 -2.2651 -1.3563 -1.5526
   32MOL    H14 9376   6.183   5.763   7.407  0.0834 -1.2831  0.5733
   32MOL    H15 9377   6.339   5.852   7.421 -0.7020  1.0801 -0.1193
   32MOL    H16 9378   6.634   5.960   7.741 -0.6235 -1.4908  2.0677
   32MOL    C17 9379   6.342   6.087   7.886  0.4113  0.2489 -0.3919
   32MOL    C18 9380   6.379   6.220   0.054 -0.4234 -0.1063 -0.1219
   32MOL    C19 9381   6.445   6.181   0.185  0.0137 -0.9736 -0.3824
   32MOL    O20 9382   6.407   6.095   0.261  0.3750 -0.5089 -0.9814
   32MOL    O21 9383   6.552   6.268   0.202 -0.2723 -0.4766  0.0673
   32MOL    C22 9384   6.598   6.288   0.337  0.6185  0.3460  0.6263
   32MOL    C23 9385   6.723   6.364   0.355  0.1495  0.8203 -0.7837
   32MOL    H24 9386   6.281   6.105   7.798  0.2521  2.2613  0.1091
   32MOL    H25 9387   6.266   6.035   0.035 -1.0614 -1.2170 -3.5342
   32MOL    H26 9388   6.457   6.273   0.000  1.8493 -3.3445 -0.1554
   32MOL    H27 9389   6.519   6.321   0.404  0.6676  0.1619  0.7728
   32MOL    H28 9390   6.633   6.188   0.360  0.6937  0.0374 -0.7789
   32MOL    H29 9391   6.754   6.365   0.459  1.2230  0.5014 -1.1010
   32MOL    H30 9392   6.704   6.468   0.327 -1.3034  1.5459  2.6197
   32MOL    H31 9393   6.801   6.314   0.299 -0.1740  1.0289 -1.4291
   32MOL    C32 9394   6.263   6.325   0.074 -0.4765  0.0362  0.9130
   32MOL    C33 9395   6.302   6.462   0.149  0.4737  1.0296  0.0650
   32MOL    C34 9396   6.187   6.531   0.229 -0.4965  0.1972 -0.8848
   32MOL    O35 9397   6.174   6.523   0.351 -0.0895 -0.4757 -0.2942
   32MOL    O36 9398   6.110   6.600   0.151  0.5066  0.1494 -0.2069
   32MOL    C37 9399   5.993   6.663   0.196 -0.2686 -0.1039 -0.6511
   32MOL    C38 9400   5.953   6.761   0.090 -0.4744 -0.0295  0.1401
   32MOL    H39 9401   6.219   6.342   7.884 -0.6592  0.3608  1.0495
   32MOL    H40 9402   6.181   6.278   0.129 -1.6990  1.0733  0.0166
   32MOL    H41 9403   6.381   6.434   0.218 -0.5416 -1.7777  0.1548
   32MOL    H42 9404   5.909   6.596   0.215  2.1409 -2.6547  1.6548
   32MOL    H43 9405   6.017   6.711   0.291 -1.6141  1.7498 -1.2252
   32MOL    H44 9406   5.944   6.714   7.901 -0.9410 -1.1365  0.6991
   32MOL    H45 9407   6.022   6.845   0.085  0.6550 -0.8904  0.9348
   32MOL    H46 9408   5.851   6.797   0.107 -0.9970 -0.9121 -1.0973
   32MOL    C47 9409   6.368   6.554   0.040 -0.1060  0.0188 -0.2240
   32MOL    C48 9410   6.397   6.699   0.089  0.8222 -0.1508 -0.2596
   32MOL    C49 9411   6.402   6.804   7.884 -0.9022  0.2861 -0.6180
   32MOL    O50 9412   6.492   6.888   7.880 -0.1083  0.5199  0.4701
   32MOL    O51 9413   6.315   6.782   7.788  0.0030  0.0414  0.7127
   32MOL    C52 9414   6.322   6.866   7.672  0.5966 -0.0212  0.3986
   32MOL    C53 9415   6.217   6.977   7.675  0.3695 -0.1731  0.8325
   32MOL    H54 9416   6.449   6.504   7.896 -2.3840 -2.1700 -1.8235
   32MOL    H55 9417   6.304   6.562   7.860 -0.5604 -0.4829  0.0580
   32MOL    H56 9418   6.311   6.747   0.135  1.7034  0.4244  0.8376
   32MOL    H57 9419   6.417   6.917   7.654  0.7331  0.0657  1.3685
   32MOL    H58 9420   6.306   6.812   7.578  1.0205 -2.8278  1.8921
   32MOL    H59 9421   6.120   6.962   7.627 -0.5102  3.0409  1.5226
   32MOL    H60 9422   6.254   7.073   7.640  1.6415 -0.9629 -0.0541
   32MOL    H61 9423   6.183   6.993   7.777 -3.3393 -1.1964 -0.1670
   32MOL    C62 9424   6.520   6.699   0.183 -0.0704 -0.1030  0.4350
   32MOL    C63 9425   6.540   6.827   0.264 -0.0208  0.4947  0.3497
   32MOL    C64 9426   6.691   6.858   0.271 -0.6280 -0.0860  0.3458
   32MOL    O65 9427   6.763   6.787   0.337  0.1698 -0.5318  0.5695
   32MOL    O66 9428   6.738   6.956   0.184  0.0703 -0.1250  0.3161
   32MOL    C67 9429   6.877   6.971   0.160  0.1478  0.3323  0.8117
   32MOL    C68 9430   6.914   7.111   0.112  0.2903  0.3075 -0.0641
   32MOL    H69 9431   6.499   6.621   0.255 -2.9086  1.1371  1.0230
   32MOL    H70 9432   6.612   6.662   0.138  0.5899 -1.5319  2.8739
   32MOL    H71 9433   6.491   6.910   0.214  2.2395 -0.5819 -3.8392
   32MOL    H72 9434   6.941   6.943   0.244 -2.7117 -1.7668  2.3511
   32MOL    H73 9435   6.893   6.902   0.077  0.1815  0.5648  0.6251
   32MOL    H74 9436   6.873   7.139   0.015 -1.0914  0.7646  0.6387
   32MOL    H75 9437   7.022   7.124   0.100  0.7684 -1.9929  1.3687
   32MOL    H76 9438   6.888   7.196   0.175  2.1975  0.9637 -0.1254
   32MOL    C77 9439   6.464   6.822   0.400 -0.1461  0.3142  0.2945
   32MOL    C78 9440   6.432   6.951   0.485  0.1781 -0.4260 -0.6473
   32MOL    C79 9441   6.545   7.054   0.496 -0.6648  0.2313 -0.3683
   32MOL    O80 9442   6.555   7.157   0.433 -0.1081 -0.2824  0.1451
   32MOL    O81 9443   6.634   7.009   0.591  0.1639 -1.1908 -0.2175
   32MOL    C82 9444   6.751   7.092   0.612 -0.0209  0.3025 -0.2922
   32MOL    C83 9445   6.862   7.067   0.523 -0.1935 -0.0628  0.1098
   32MOL    H84 9446   6.364   6.787   0.375 -0.8438  1.7655  0.9864
   32MOL    H85 9447   6.507   6.750   0.469  0.0429  0.2287  0.0884
   32MOL    H86 9448   6.355   7.003   0.430  0.5043  1.0914  0.3060
   32MOL    H87 9449   6.730   7.199   0.604  0.0084  0.2702 -0.8522
   32MOL    H88 9450   6.801   7.070   0.706 -2.2185  0.4493  0.9437
   32MOL    H89 9451   6.892   6.962   0.532 -1.3480 -0.4218 -0.1561
   32MOL    H90 9452   6.937   7.139   0.555 -0.6852  0.8602 -0.7724
   32MOL    H91 9453   6.858   7.095   0.418  0.7932 -0.3834 -0.0209
   32MOL    C92 9454   6.369   6.899   0.618  0.4318  0.2598  0.0071
   32MOL    C93 9455   6.292   7.018   0.697 -1.2945  0.1860 -0.8583
   32MOL    C94 9456   6.272   6.984   0.849  0.5047 -0.7807 -0.8686
   32MOL    O95 9457   6.294   6.871   0.888 -0.1419 -0.4038 -0.4728
   32MOL    O96 9458   6.215   7.083   0.922  0.1658 -1.0043 -0.3548
   32MOL    C97 9459   6.164   7.062   1.048 -0.2317 -0.2418 -0.0269
   32MOL    C98 9460   6.212   7.177   1.141 -0.1977 -0.2015  0.2033
   32MOL    H99 9461   6.313   6.806   0.606  1.5962 -0.3277 -0.8857
   32MOL   H100 9462   6.449   6.859   0.680 -0.3192  0.0193  0.8411
   32MOL   H101 9463   6.364   7.099   0.706 -2.0533  0.7980 -0.2968
   32MOL   H102 9464   6.056   7.050   1.039 -0.5806  2.0637  0.7094
   32MOL   H103 9465   6.207   6.968   1.082 -0.0928 -1.9703 -4.6276
   32MOL   H104 9466   6.321   7.166   1.140 -0.0719  0.9916 -3.3602
   32MOL   H105 9467   6.179   7.152   1.242 -1.6966  0.9566  0.0159
   32MOL   H106 9468   6.171   7.277   1.128 -1.4661 -0.9481 -1.6961
   32MOL   C107 9469   6.170   7.064   0.625  0.2663  0.0289  0.2424
   32MOL   C108 9470   6.182   7.181   0.531 -0.3040  0.1387  0.5413
   32MOL   C109 9471   6.208   7.315   0.602 -0.0784 -0.4203 -0.7878
   32MOL   O110 9472   6.120   7.373   0.665 -0.3063  0.6205  0.2412
   32MOL   O111 9473   6.342   7.343   0.604 -0.7392  0.0368  0.0636
   32MOL   C112 9474   6.396   7.452   0.667  0.7691 -0.0290  0.4456
   32MOL   C113 9475   6.529   7.394   0.732  0.2641  0.3985  0.2241
   32MOL   H114 9476   6.132   6.977   0.571  1.2375 -0.8749  1.0029
   32MOL   H115 9477   6.087   7.081   0.694  1.0700 -0.4768  1.3317
   32MOL   H116 9478   6.255   7.166   0.452 -0.9599 -1.8079  0.2770
   32MOL   H117 9479   6.422   7.531   0.596 -1.8907  1.7896  1.4011
   32MOL   H118 9480   6.324   7.490   0.740  0.9466 -1.0708  1.1673
   32MOL   H119 9481   6.498   7.326   0.811  2.0468 -2.5441 -1.5296
   32MOL   H120 9482   6.585   7.477   0.776 -0.8651  1.6188 -0.5732
   32MOL   H121 9483   6.591   7.340   0.661 -0.5326  2.3188 -2.0303
   32MOL   C122 9484   6.041   7.193   0.459  0.1898  0.1873  0.2500
   32MOL   C123 9485   6.002   7.081   0.358 -0.2003  0.5522  0.2174
   32MOL   C124 9486   6.107   7.074   0.245  0.3215  0.4847 -0.3761
   32MOL   O125 9487   6.185   6.977   0.246 -0.0955  0.6291  0.3617
   32MOL   O126 9488   6.109   7.173   0.166  0.5850  0.3084 -0.0508
   32MOL   C127 9489   6.221   7.197   0.085  0.5994  0.1957  0.0979
   32MOL   C128 9490   6.347   7.232   0.167 -0.7746 -0.3306 -0.4086
   32MOL   H129 9491   5.955   7.195   0.526 -0.6563  3.2604 -0.8588
   32MOL   H130 9492   6.026   7.285   0.404 -0.2643 -0.6450 -1.0515
   32MOL   H131 9493   6.022   6.981   0.398  0.9845  1.0216  0.8353
   32MOL   H132 9494   6.248   7.115   0.018  1.6041  0.8373 -0.2940
   32MOL   H133 9495   6.193   7.283   0.023  1.8154  1.1827  0.8824
   32MOL   H134 9496   6.440   7.253   0.113 -0.6741  0.7590  0.1613
   32MOL   H135 9497   6.385   7.154   0.233  1.1696  1.6445  0.8872
   32MOL   H136 9498   6.324   7.322   0.224 -1.4646 -0.1162 -1.0240
   32MOL   C137 9499   5.859   7.088   0.303 -0.2979  0.1406 -0.1037
   32MOL   C138 9500   5.748   7.049   0.407 -0.0219 -0.2669 -0.1916
   32MOL   C139 9501   5.756   6.901   0.459  1.2423 -0.0046 -0.5851
   32MOL   O140 9502   5.692   6.811   0.409  0.7296 -0.3130  0.3060
   32MOL   O141 9503   5.858   6.892   0.560 -0.4757 -0.2185 -0.1768
   32MOL   C142 9504   5.910   6.764   0.609  0.6352  0.1890  0.6906
   32MOL   C143 9505   5.933   6.754   0.756 -0.5727 -0.5537  0.1739
   32MOL   H144 9506   5.831   7.176   0.246  0.5099  0.2107 -0.3968
   32MOL   H145 9507   5.853   7.009   0.228  0.9649  0.7743 -0.8691
   32MOL   H146 9508   5.759   7.113   0.494  0.8202  0.4978 -0.8413
   32MOL   H147 9509   5.837   6.688   0.582 -0.8836  1.1622  1.9635
   32MOL   H148 9510   6.007   6.754   0.561  0.1442  1.9552 -0.7545
   32MOL   H149 9511   6.008   6.827   0.787 -2.0666  1.2430 -0.3397
   32MOL   H150 9512   5.972   6.661   0.797 -0.3233  0.3628  2.0739
   32MOL   H151 9513   5.842   6.773   0.813 -0.4660  2.0778 -0.4720
   32MOL   C152 9514   5.604   7.084   0.356 -0.2327  0.0233  0.2968
   32MOL   C153 9515   5.491   7.068   0.457  0.3828  0.1327 -0.4948
   32MOL   C154 9516   5.356   7.121   0.397 -0.1707  0.1923 -0.0726
   32MOL   O155 9517   5.325   7.240   0.381 -0.3627  0.2314 -0.3660
   32MOL   O156 9518   5.280   7.023   0.344  0.4538  0.4830 -0.2321
   32MOL   C157 9519   5.185   7.051   0.244  0.0034  0.0345  0.0619
   32MOL   C158 9520   5.112   6.924   0.213  0.4556  0.5110  0.1335
   32MOL   H159 9521   5.596   7.188   0.322 -1.1971  0.5817  2.1327
   32MOL   H160 9522   5.579   7.029   0.266  0.1009  1.5544 -0.7594
   32MOL   H161 9523   5.467   6.964   0.478  0.4510  0.2432  0.1501
   32MOL   H162 9524   5.125   7.135   0.278  1.3224  0.7708  0.5960
   32MOL   H163 9525   5.239   7.079   0.154 -0.7980  1.2854 -0.0496
   32MOL   H164 9526   5.057   6.872   0.292  0.3697 -0.4777 -0.5673
   32MOL   H165 9527   5.190   6.852   0.188  0.0197 -0.2855  1.0105
   32MOL   H166 9528   5.038   6.933   0.134  0.4722  1.1632  0.1958
   32MOL   C167 9529   5.523   7.150   0.585 -0.5520  0.0435 -0.4004
   32MOL   C168 9530   5.428   7.117   0.711 -0.1426  0.0210 -0.4442
   32MOL   C169 9531   5.459   7.229   0.823 -0.0842 -0.4621 -0.2443
   32MOL   O170 9532   5.490   7.198   0.934 -0.2655  0.8234 -0.1010
   32MOL   O171 9533   5.437   7.349   0.774 -0.2146  0.1607 -0.1169
   32MOL   C172 9534   5.486   7.463   0.853 -0.1347  0.0958  0.4492
   32MOL   C173 9535   5.409   7.586   0.809  0.2835 -0.2582 -0.5588
   32MOL   H174 9536   5.620   7.124   0.628 -0.9798 -2.3673 -0.8201
   32MOL   H175 9537   5.538   7.255   0.561  3.4747 -0.3879 -0.1248
   32MOL   H176 9538   5.326   7.125   0.675 -0.7300 -1.5243  0.8346
   32MOL   H177 9539   5.458   7.435   0.955  2.6977 -0.5942  1.0936
   32MOL   H178 9540   5.595   7.468   0.849 -0.2098  0.7992 -1.0213
   32MOL   H179 9541   5.306   7.580   0.843  0.0660  0.5010 -1.0780
   32MOL   H180 9542   5.412   7.608   0.703 -0.6707  0.4826 -0.4404
   32MOL   H181 9543   5.442   7.673   0.867  0.5550 -1.2140  0.7572
   32MOL   C182 9544   5.461   6.972   0.753 -0.6730 -0.1359  0.4406
   32MOL   C183 9545   5.360   6.919   0.853  0.1859  0.1525 -1.0786
   32MOL   C184 9546   5.432   6.826   0.954  0.6217 -0.3438  0.0934
   32MOL   O185 9547   5.501   6.732   0.920  0.1847  0.2486 -0.0596
   32MOL   O186 9548   5.409   6.870   1.083 -0.1555 -0.2598 -0.2853
   32MOL   C187 9549   5.483   6.808   1.188 -0.5370 -0.3295  0.4821
   32MOL   C188 9550   5.617   6.874   1.196 -0.1492  0.4474 -0.2440
   32MOL   H189 9551   5.458   6.910   0.664  0.4611  0.0759  0.2451
   32MOL   H190 9552   5.562   6.969   0.794 -0.5773 -1.7513  0.0874
   32MOL   H191 9553   5.316   7.004   0.905  0.4904 -0.7554  0.6989
   32MOL   H192 9554   5.435   6.822   1.285  1.7050  2.9501  1.2229
   32MOL   H193 9555   5.503   6.704   1.164 -1.3289  0.2668 -3.0590
   32MOL   H194 9556   5.595   6.980   1.186 -0.5019  0.4158  0.1542
   32MOL   H195 9557   5.672   6.844   1.107 -0.4578  2.7663 -1.2579
   32MOL   H196 9558   5.679   6.846   1.281  0.4775  1.4653 -0.3661
   32MOL   C197 9559   5.236   6.835   0.802 -1.1401  0.2971 -0.4271
   32MOL   C198 9560   5.132   6.793   0.904  0.4857 -0.3389  0.1868
   32MOL   C199 9561   5.042   6.674   0.863 -0.1960  0.1533 -0.1008
   32MOL   O200 9562   5.034   6.637   0.745 -0.1258 -0.2448 -0.0808
   32MOL   O201 9563   4.984   6.610   0.966  0.0503 -0.0377  0.3948
   32MOL   C202 9564   4.899   6.499   0.946  0.0943  0.4364 -0.6974
   32MOL   C203 9565   4.889   6.395   1.069 -0.1184  0.5264  0.5264
   32MOL   H204 9566   5.192   6.891   0.720 -0.7049  3.3516  1.3487
   32MOL   H205 9567   5.275   6.745   0.754 -2.4570 -0.6131  0.1791
   32MOL   H206 9568   5.176   6.754   0.996 -0.5224  1.7286  1.5684
   32MOL   H207 9569   4.798   6.535   0.923 -0.0810 -0.6126 -1.6094
   32MOL   H208 9570   4.934   6.435   0.865  1.0707  0.6008 -0.4121
   32MOL   H209 9571   4.846   6.453   1.150 -1.2826 -2.2579  1.9753
   32MOL   H210 9572   4.985   6.358   1.106 -0.6804 -0.3517  1.1061
   32MOL   H211 9573   4.826   6.309   1.047  2.5434 -1.5559  0.8391
   32MOL   C212 9574   5.054   6.911   0.963  0.1253  0.7430 -0.1872
   32MOL   C213 9575   4.947   6.975   0.862  0.5132 -0.8384 -0.1968
   32MOL   C214 9576   5.008   7.094   0.793 -0.3618  0.7430 -0.3102
   32MOL   O215 9577   5.070   7.181   0.852 -0.7822  0.1415 -0.4493
   32MOL   O216 9578   4.990   7.097   0.661  0.2674 -0.4972 -0.0515
   32MOL   C217 9579   5.038   7.210   0.589 -0.6999  0.1777  0.5617
   32MOL   C218 9580   4.946   7.335   0.608 -0.2660  0.1677  0.1793
   32MOL   H219 9581   4.988   6.870   1.038 -1.5116  3.3864 -0.1249
   32MOL   H220 9582   5.118   6.984   1.014 -1.9413  1.5127  1.3720
   32MOL   H221 9583   4.923   6.904   0.783  0.5974 -0.0605 -0.9183
   32MOL   H222 9584   5.140   7.239   0.617 -0.1849  0.3977 -1.4348
   32MOL   H223 9585   5.049   7.178   0.486 -1.0447  2.3163 -0.1749
   32MOL   H224 9586   4.849   7.312   0.562  0.2149  1.6203 -1.6092
   32MOL   H225 9587   4.992   7.423   0.563  1.0982 -0.7329 -0.2006
   32MOL   H226 9588   4.930   7.361   0.713  1.0172 -1.8531  0.8972
   32MOL   C227 9589   4.825   7.025   0.939  1.0746 -0.5583 -0.4382
   32MOL   C228 9590   4.720   6.926   0.992  0.1936 -0.3873  0.4687
   32MOL   C229 9591   4.639   6.866   0.881  1.2527 -0.4107  0.0624
   32MOL   O230 9592   4.537   6.924   0.834  0.1480 -0.1453 -0.6457
   32MOL   O231 9593   4.681   6.747   0.830  0.1847  0.0566  0.0837
   32MOL   C232 9594   4.609   6.683   0.729  0.0548  0.2867 -0.7873
   32MOL   C233 9595   4.690   6.581   0.643  0.1439 -0.3117  0.3146
   32MOL   H234 9596   4.862   7.084   1.023  2.4757 -0.0301 -1.4129
   32MOL   H235 9597   4.773   7.097   0.876 -0.8052 -0.6322  0.9939
   32MOL   H236 9598   4.778   6.845   1.034 -0.5649 -1.0594  0.2203
   32MOL   H237 9599   4.532   6.621   0.775  2.1207 -1.8284 -0.0267
   32MOL   H238 9600   4.560   6.762   0.673 -1.5056  0.5843  0.9413
   32MOL   H239 9601   4.738   6.499   0.697 -2.2782 -1.8583  0.1911
   32MOL   H240 9602   4.775   6.628   0.593  1.0618 -2.0484  0.2028
   32MOL   H241 9603   4.628   6.538   0.565 -2.7518 -0.0077  2.3974
   32MOL   C242 9604   4.649   6.988   1.109  0.3284  0.2475 -0.2137
   32MOL   C243 9605   4.733   6.991   1.242  0.0376 -0.7098  0.9041
   32MOL   C244 9606   4.766   6.844   1.284  0.1166  0.8077  0.4956
   32MOL   O245 9607   4.679   6.760   1.278 -0.1090  0.1405 -0.2629
   32MOL   O246 9608   4.898   6.823   1.317 -0.5182  0.3116  0.0307
   32MOL   C247 9609   4.936   6.692   1.361 -0.4408 -0.1466 -0.4658
   32MOL   C248 9610   5.087   6.685   1.398  0.4188 -0.1416 -0.3988
   32MOL   H249 9611   4.618   7.090   1.086  1.9926  0.8696  0.2313
   32MOL   H250 9612   4.550   6.944   1.117  0.8684 -0.8866  0.3401
   32MOL   H251 9613   4.831   7.036   1.223  0.1012 -1.5757 -0.8875
   32MOL   H252 9614   4.875   6.655   1.443 -0.3555  1.1891  0.2015
   32MOL   H253 9615   4.933   6.619   1.280 -0.8468 -2.2495  1.3996
   32MOL   H254 9616   5.133   6.587   1.391  0.2994 -0.2443  0.2535
   32MOL   H255 9617   5.088   6.730   1.498 -1.2356 -1.5694  0.2784
   32MOL   H256 9618   5.153   6.755   1.347 -0.1874  1.0576  0.4206
   32MOL   C257 9619   4.667   7.074   1.347  0.4590  0.8827  0.7083
   32MOL   C258 9620   4.675   7.232   1.334 -0.5475  0.2648  0.1202
   32MOL   C259 9621   4.815   7.270   1.385  0.2622  0.5751  0.0568
   32MOL   O260 9622   4.919   7.263   1.313  0.1408  0.0362  0.3952
   32MOL   O261 9623   4.826   7.276   1.516  0.1048 -0.1993  0.3441
   32MOL   C262 9624   4.952   7.301   1.579 -0.6414  0.6840 -0.5198
   32MOL   C263 9625   4.955   7.319   1.730 -0.1519  0.3894 -0.2630
   32MOL   H264 9626   4.561   7.049   1.345  0.4793  0.6880  1.9955
   32MOL   H265 9627   4.702   7.044   1.445  0.4697 -0.5589  0.2682
   32MOL   H266 9628   4.664   7.236   1.225 -0.5051 -1.8838 -0.0000
   32MOL   H267 9629   5.016   7.220   1.545 -0.3889  0.4662  0.4655
   32MOL   H268 9630   4.986   7.390   1.527 -0.7045 -0.3008 -2.2611
   32MOL   H269 9631   4.874   7.384   1.762  1.0808  0.1796  3.5282
   32MOL   H270 9632   5.049   7.369   1.756  0.3007 -0.3603 -0.4567
   32MOL   H271 9633   4.936   7.229   1.788  5.0874  0.7410  2.3198
   32MOL   C272 9634   4.567   7.300   1.410  0.5754 -0.2510 -0.0011
   32MOL   C273 9635   4.428   7.319   1.331  0.0431 -0.7850 -0.6482
   32MOL   C274 9636   4.447   7.412   1.203  1.1446  0.9735 -0.0249
   32MOL   O275 9637   4.459   7.535   1.206 -0.3893 -0.0244  0.1323
   32MOL   O276 9638   4.457   7.338   1.092  0.1339  0.8114  0.1164
   32MOL   C277 9639   4.456   7.396   0.965 -0.2210 -0.2775  0.4577
   32MOL   C278 9640   4.601   7.426   0.923 -0.6455  0.4663 -0.4934
   32MOL   H279 9641   4.559   7.267   1.514 -0.1149  0.2977  0.1314
   32MOL   H280 9642   4.596   7.405   1.407 -2.5901  0.7611  1.7688
   32MOL   H281 9643   4.384   7.226   1.295  0.2202  0.2882 -3.8224
   32MOL   H282 9644   4.413   7.331   0.889 -1.5726  1.7835 -0.6003
   32MOL   H283 9645   4.396   7.486   0.950  1.3695  1.2914  3.0799
   32MOL   H284 9646   4.606   7.457   0.818 -0.9185  1.7899 -0.1107
   32MOL   H285 9647   4.660   7.336   0.944  1.9819  2.3994  0.7017
   32MOL   H286 9648   4.637   7.509   0.984 -1.6999 -1.1113  2.3619
   32MOL   C287 9649   4.328   7.389   1.432 -1.0546  0.5163  0.1533
   32MOL   C288 9650   4.180   7.344   1.407  0.1359  0.1604  0.4556
   32MOL   C289 9651   4.139   7.205   1.446 -0.3250 -0.7644 -0.6248
   32MOL   O290 9652   4.226   7.132   1.486  0.0586  0.0729  0.2051
   32MOL   O291 9653   4.006   7.176   1.431 -0.6981  0.1953 -0.8095
   32MOL   C292 9654   3.958   7.053   1.488 -0.2063  0.5914 -0.5164
   32MOL   C293 9655   3.813   7.018   1.449 -0.2242  0.4959 -0.3880
   32MOL   H294 9656   4.353   7.370   1.536 -0.0965 -2.2694 -0.5470
   32MOL   H295 9657   4.334   7.498   1.426 -3.3518  0.7572  1.7136
   32MOL   H296 9658   4.123   7.400   1.481 -0.8254  1.1116 -0.9860
   32MOL   H297 9659   4.016   6.973   1.441 -2.3460 -0.8324 -0.7894
   32MOL   H298 9660   3.979   7.045   1.595 -1.4280 -0.0357 -0.3182
   32MOL   H299 9661   3.795   7.028   1.341 -1.7740 -0.9103 -0.2799
   32MOL   H300 9662   3.742   7.080   1.503 -1.3295 -0.3101 -0.8988
   32MOL   H301 9663   3.779   6.917   1.471  2.2105 -0.3839 -0.5541
   32MOL   H302 9664   4.130   7.373   1.315  1.4173  0.4975 -0.1348
   33MOL     C1 9665   7.798   7.881   2.038  0.4302 -0.8186 -0.2081
   33MOL     C2 9666   7.832   7.876   1.892  0.2259  0.0695  0.0620
   33MOL     C3 9667   7.805   0.115   1.836  0.6190 -0.1935  0.4866
   33MOL     O4 9668   7.694   0.164   1.829  0.1084  0.1184  0.2372
   33MOL     O5 9669   0.005   0.171   1.799 -0.0483 -0.2980 -0.5203
   33MOL     C6 9670   7.908   0.298   1.738  0.3803  0.3161  0.4880
   33MOL     C7 9671   0.124   0.324   1.659 -0.0986  0.0354 -0.2051
   33MOL     H8 9672   7.830   0.064   2.089 -0.8268 -0.1264 -0.6195
   33MOL     H9 9673   7.841   7.803   2.100 -1.8690 -0.5693  1.7984
   33MOL    H10 9674   0.030   7.853   1.889  0.1948 -0.2423  1.2257
   33MOL    H11 9675   7.819   0.291   1.675  0.4129  1.3540  0.3058
   33MOL    H12 9676   7.890   0.381   1.807  0.0775  1.8807 -1.4078
   33MOL    H13 9677   0.207   0.323   1.729 -0.7133  1.3547  0.5524
   33MOL    H14 9678   0.135   0.425   1.619  0.4766  0.2371  0.4537
   33MOL    H15 9679   0.142   0.249   1.582 -0.6370 -0.8021  0.4885
   33MOL    H16 9680   7.689   7.878   2.047  0.3244 -1.1943 -1.5116
   33MOL    C17 9681   7.757   7.759   1.820  1.0357  0.4214  0.0215
   33MOL    C18 9682   7.780   7.718   1.668 -0.0310 -0.5043  0.5619
   33MOL    C19 9683   0.003   7.643   1.659 -0.1699  0.1036  0.2045
   33MOL    O20 9684   0.003   7.522   1.638 -0.2899 -0.0567  0.5743
   33MOL    O21 9685   0.109   7.726   1.674 -0.6785 -0.0290  0.6985
   33MOL    C22 9686   0.243   7.666   1.658 -0.0259 -0.2191  0.0698
   33MOL    C23 9687   0.299   7.671   1.513 -0.6810  0.5614  0.7846
   33MOL    H24 9688   7.769   7.668   1.879 -0.2313  0.2290  0.0062
   33MOL    H25 9689   7.649   7.773   1.823  0.7634 -1.5674  0.3105
   33MOL    H26 9690   7.699   7.649   1.645 -0.6271  0.9711 -1.9908
   33MOL    H27 9691   0.309   7.721   1.724  1.1860 -1.6706  0.0863
   33MOL    H28 9692   0.237   7.567   1.704 -1.3720 -0.5887 -0.8459
   33MOL    H29 9693   0.384   7.603   1.502 -0.3071  1.2490 -0.7203
   33MOL    H30 9694   0.336   7.768   1.479 -1.5563  0.4934 -0.3895
   33MOL    H31 9695   0.223   7.648   1.439  0.7838 -1.0871 -0.2645
   33MOL    C32 9696   7.771   7.835   1.559  0.5247  0.0852  0.6027
   33MOL    C33 9697   7.759   7.787   1.414  0.8359  0.1771 -0.7393
   33MOL    C34 9698   7.791   7.903   1.325 -0.3960 -0.5360 -0.3831
   33MOL    O35 9699   7.907   0.015   1.282  0.3498 -0.6175  0.1020
   33MOL    O36 9700   7.690   0.088   1.318 -0.5300 -0.2992  0.0681
   33MOL    C37 9701   7.709   0.210   1.240  0.4754  0.3876  0.5664
   33MOL    C38 9702   7.760   0.314   1.334 -0.3058 -0.0045  0.2424
   33MOL    H39 9703   7.679   7.888   1.581  0.4807  0.1828  0.1910
   33MOL    H40 9704   7.851   7.908   1.569 -1.4203  2.1030  1.8466
   33MOL    H41 9705   7.843   7.720   1.396  0.2171 -1.1707  1.3054
   33MOL    H42 9706   7.781   0.191   1.161 -0.2055 -1.8419  0.4387
   33MOL    H43 9707   7.617   0.255   1.203  0.2004 -0.7256 -0.1149
   33MOL    H44 9708   7.732   0.410   1.292  2.0529  1.3702  1.7151
   33MOL    H45 9709   7.867   0.306   1.353 -0.2472  2.2933  1.0283
   33MOL    H46 9710   7.708   0.311   1.430  0.2117 -0.1851  0.5231
   33MOL    C47 9711   7.627   7.713   1.379 -0.6482 -0.5992 -0.3203
   33MOL    C48 9712   7.623   7.660   1.235 -0.6439 -0.4590 -0.1184
   33MOL    C49 9713   7.493   7.685   1.168 -0.3228 -0.0936 -0.2192
   33MOL    O50 9714   7.387   7.676   1.227  0.4311  0.2241  0.3787
   33MOL    O51 9715   7.509   7.719   1.041  0.5469 -0.7444  0.3468
   33MOL    C52 9716   7.389   7.749   0.972 -1.0722 -0.8833  0.7816
   33MOL    C53 9717   7.430   7.747   0.823  0.1261  0.3297 -0.0108
   33MOL    H54 9718   7.619   7.628   1.447 -3.3221 -0.5257 -0.5036
   33MOL    H55 9719   7.557   7.788   1.416 -0.5840 -1.0544  0.7518
   33MOL    H56 9720   7.694   7.724   1.182  1.1818 -1.9412  0.5006
   33MOL    H57 9721   7.307   7.684   1.004 -2.6648  0.7872  0.1628
   33MOL    H58 9722   7.358   7.850   0.999  1.1642  1.0803 -3.5725
   33MOL    H59 9723   7.501   7.829   0.808  0.0819  0.3295 -0.2161
   33MOL    H60 9724   7.348   7.769   0.755 -0.4417 -1.7895 -0.0254
   33MOL    H61 9725   7.477   7.650   0.812 -0.1206  0.2864 -0.7357
   33MOL    C62 9726   7.665   7.510   1.227  0.0415 -0.4674 -0.8484
   33MOL    C63 9727   7.812   7.473   1.252  0.3239 -0.1469  0.2493
   33MOL    C64 9728   7.904   7.501   1.132 -0.2494 -0.1106 -0.2405
   33MOL    O65 9729   0.092   7.578   1.147 -0.4251 -0.4918  0.7295
   33MOL    O66 9730   7.854   7.442   1.019  0.2460  0.0798 -0.0258
   33MOL    C67 9731   0.011   7.473   0.899 -0.2852 -0.4167  0.7684
   33MOL    C68 9732   7.844   7.582   0.818 -0.3613  0.6043  0.3791
   33MOL    H69 9733   7.598   7.462   1.299 -0.9015  2.5033  0.3760
   33MOL    H70 9734   7.630   7.470   1.131  0.0453 -0.0130 -1.0404
   33MOL    H71 9735   7.855   7.531   1.334 -0.3585 -1.2172  1.3788
   33MOL    H72 9736   0.118   7.494   0.907  0.4180 -3.1949 -0.7082
   33MOL    H73 9737   0.007   7.382   0.839  2.0993 -0.1394  0.1081
   33MOL    H74 9738   7.736   7.570   0.823 -0.4907  0.4972 -2.3784
   33MOL    H75 9739   7.880   7.592   0.716  0.3585 -1.6099  0.3667
   33MOL    H76 9740   7.852   7.670   0.882 -1.6643  0.5726  0.5831
   33MOL    C77 9741   7.834   7.324   1.293  0.5005 -0.4923 -0.1978
   33MOL    C78 9742   7.778   7.206   1.210  0.2865  0.0901  0.0594
   33MOL    C79 9743   7.634   7.159   1.249  0.5810 -0.6677  0.1769
   33MOL    O80 9744   7.607   7.082   1.342  0.6725 -0.0231  0.8650
   33MOL    O81 9745   7.540   7.215   1.177  0.0999  0.1184 -0.3369
   33MOL    C82 9746   7.406   7.166   1.190 -0.2555 -0.1602  0.3357
   33MOL    C83 9747   7.300   7.275   1.220  0.5210 -0.3373  0.0447
   33MOL    H84 9748   0.025   7.311   1.334  0.4904  0.4343  0.1227
   33MOL    H85 9749   7.780   7.318   1.387 -1.7039  3.4114 -1.1146
   33MOL    H86 9750   7.770   7.247   1.110 -1.2931 -0.7413 -0.1786
   33MOL    H87 9751   7.375   7.114   1.099 -1.6050  0.3273  0.5010
   33MOL    H88 9752   7.394   7.098   1.274  0.9016  0.3034  0.8848
   33MOL    H89 9753   7.208   7.219   1.232  0.0177  0.7498  1.3234
   33MOL    H90 9754   7.286   7.347   1.140 -0.9146  0.1914  0.7552
   33MOL    H91 9755   7.319   7.337   1.308  2.1179  0.5661 -0.9156
   33MOL    C92 9756   7.874   7.083   1.199 -0.1812  0.0261 -0.3241
   33MOL    C93 9757   7.822   6.972   1.107  0.1006  0.3099 -0.2284
   33MOL    C94 9758   7.895   6.843   1.140 -0.0220 -0.6580  0.2818
   33MOL    O95 9759   7.836   6.744   1.177 -0.5360 -0.4580 -0.0167
   33MOL    O96 9760   0.129   6.840   1.107 -0.2667 -0.5147 -0.2717
   33MOL    C97 9761   0.198   6.713   1.119 -0.1204 -0.7354 -0.1071
   33MOL    C98 9762   0.187   6.626   0.993 -0.6324  0.5376 -0.6807
   33MOL    H99 9763   0.060   7.118   1.158 -0.3784  3.6297  2.0176
   33MOL   H100 9764   7.890   7.045   1.300 -2.1896 -0.2092 -0.0649
   33MOL   H101 9765   7.719   6.943   1.128 -0.2161  1.8524  0.4178
   33MOL   H102 9766   0.302   6.743   1.133  0.0223 -2.0156  1.8323
   33MOL   H103 9767   0.166   6.663   1.211 -0.4232 -0.0452  0.1630
   33MOL   H104 9768   0.090   6.575   0.988  0.0586 -0.9163  0.3513
   33MOL   H105 9769   0.260   6.546   0.997 -0.4744  0.7386  0.5818
   33MOL   H106 9770   0.190   6.689   0.904 -1.6855 -0.3871 -1.3883
   33MOL   C107 9771   7.835   7.025   0.958 -0.5555  0.3586 -0.1806
   33MOL   C108 9772   7.819   6.915   0.846  0.1063 -0.2530 -0.1777
   33MOL   C109 9773   7.829   6.975   0.709  0.7274 -0.4290 -0.4874
   33MOL   O110 9774   0.012   6.944   0.637  0.0257  0.8425  0.3762
   33MOL   O111 9775   7.715   7.043   0.672  0.4446  0.3681 -0.5074
   33MOL   C112 9776   7.698   7.110   0.550  0.0356 -0.0884 -0.4153
   33MOL   C113 9777   7.574   7.067   0.479  0.2310  0.5014 -0.1727
   33MOL   H114 9778   7.768   7.109   0.942  0.7042  1.2167 -1.0433
   33MOL   H115 9779   0.024   7.073   0.944  0.9101 -1.9337  1.7963
   33MOL   H116 9780   7.907   6.851   0.858  0.0897 -0.2514 -0.0421
   33MOL   H117 9781   7.698   7.217   0.571 -2.4054 -0.2123  0.3000
   33MOL   H118 9782   7.785   7.095   0.485 -1.5575 -0.8497 -2.4489
   33MOL   H119 9783   7.578   6.962   0.451  0.1599  0.6910 -0.9092
   33MOL   H120 9784   7.561   7.118   0.383 -2.7307  1.3062  0.5936
   33MOL   H121 9785   7.480   7.072   0.534  0.1694  1.6147 -0.3690
   33MOL   C122 9786   7.688   6.831   0.856  0.5232  0.5002  0.2199
   33MOL   C123 9787   7.680   6.723   0.745 -0.0621  0.1234 -0.1818
   33MOL   C124 9788   7.537   6.673   0.745  0.0263  0.4014 -0.4905
   33MOL   O125 9789   7.495   6.623   0.850  0.0045  0.4699  0.0708
   33MOL   O126 9790   7.470   6.692   0.627  0.1539 -0.4698 -0.2146
   33MOL   C127 9791   7.338   6.649   0.602  0.3810  0.0018  0.7312
   33MOL   C128 9792   7.285   6.729   0.478  0.1231 -0.2690  0.1919
   33MOL   H129 9793   7.690   6.775   0.950  0.6542 -0.2371 -0.2252
   33MOL   H130 9794   7.601   6.897   0.852  2.1350  2.6656 -0.0802
   33MOL   H131 9795   7.690   6.761   0.643 -1.8690 -2.5472 -1.4240
   33MOL   H132 9796   7.336   6.543   0.575  0.1198  0.4189 -0.9275
   33MOL   H133 9797   7.264   6.665   0.681 -1.3136  2.2449 -1.2423
   33MOL   H134 9798   7.278   6.838   0.471 -1.3946 -0.5440 -3.7501
   33MOL   H135 9799   7.182   6.696   0.464 -0.1343 -0.0065  1.4557
   33MOL   H136 9800   7.339   6.694   0.390 -0.8497 -2.6817  0.5247
   33MOL   C137 9801   7.780   6.612   0.763 -0.0916  0.7269  0.5483
   33MOL   C138 9802   7.783   6.500   0.646 -0.0658  0.4534 -0.0931
   33MOL   C139 9803   7.728   6.361   0.698  0.1986 -0.2390  0.2378
   33MOL   O140 9804   7.799   6.267   0.738 -0.2511  0.2922 -0.0089
   33MOL   O141 9805   7.599   6.350   0.691 -0.5575  0.5068 -0.6515
   33MOL   C142 9806   7.538   6.228   0.735 -0.4676 -0.1996  0.0499
   33MOL   C143 9807   7.384   6.240   0.708 -0.2996 -0.6254 -0.3605
   33MOL   H144 9808   7.884   6.643   0.772  0.8215 -1.7112 -0.9666
   33MOL   H145 9809   7.758   6.558   0.854  0.7563  0.7022  0.7411
   33MOL   H146 9810   7.711   6.532   0.571 -2.4922 -0.2276  1.8848
   33MOL   H147 9811   7.580   6.142   0.684 -2.0979 -1.4561  0.7822
   33MOL   H148 9812   7.557   6.198   0.838  0.7156  1.2228  0.2709
   33MOL   H149 9813   7.351   6.333   0.755  0.1786 -1.1448  1.0399
   33MOL   H150 9814   7.327   6.160   0.757 -0.7775  0.0530  0.2077
   33MOL   H151 9815   7.354   6.259   0.605  0.5042  1.3544 -0.2468
   33MOL   C152 9816   0.014   6.470   0.590 -0.0965 -0.5780 -0.0377
   33MOL   C153 9817   0.077   6.574   0.493 -0.2843 -1.1324  0.1919
   33MOL   C154 9818   7.891   6.605   0.371  0.2059 -0.5173  0.1186
   33MOL   O155 9819   7.901   6.548   0.263  0.1098  0.8587 -0.2292
   33MOL   O156 9820   7.811   6.716   0.394  0.2463  0.1216 -0.6044
   33MOL   C157 9821   7.754   6.787   0.288  0.0117 -0.3410  0.3483
   33MOL   C158 9822   7.613   6.735   0.288  0.4997  0.1001  0.2145
   33MOL   H159 9823   0.084   6.451   0.671  0.7188 -1.4206 -0.9232
   33MOL   H160 9824   0.006   6.381   0.529  1.5391 -0.3883 -0.5472
   33MOL   H161 9825   0.083   6.666   0.551 -0.3812  0.6282 -2.4982
   33MOL   H162 9826   7.762   6.894   0.310 -1.7929  0.1852 -1.3783
   33MOL   H163 9827   7.798   6.772   0.189 -1.1330  1.0889 -0.4012
   33MOL   H164 9828   7.549   6.812   0.245 -0.2915 -1.5686 -1.7022
   33MOL   H165 9829   7.565   6.715   0.384  0.0961  2.4291  0.5244
   33MOL   H166 9830   7.598   6.653   0.216 -0.3230  2.6764 -2.6541
   33MOL   C167 9831   0.225   6.543   0.446  0.0730  0.8943  0.0340
   33MOL   C168 9832   0.342   6.630   0.502 -0.0180  0.1254 -0.1863
   33MOL   C169 9833   0.374   6.590   0.647  0.2666  0.1262  0.3341
   33MOL   O170 9834   0.303   6.522   0.722 -0.9003  0.5014  0.4927
   33MOL   O171 9835   0.503   6.609   0.674  0.3601 -0.1793 -0.6218
   33MOL   C172 9836   0.545   6.613   0.810  0.1538 -0.4056 -0.2387
   33MOL   C173 9837   0.700   6.639   0.796 -1.2036 -0.2386 -0.0502
   33MOL   H174 9838   0.251   6.438   0.460 -0.5884  0.5064 -1.4945
   33MOL   H175 9839   0.247   6.549   0.339  2.2423 -1.4992  0.3180
   33MOL   H176 9840   0.433   6.596   0.452 -0.5611 -0.2849 -0.9080
   33MOL   H177 9841   0.498   6.697   0.861  1.2342 -0.8161  1.5022
   33MOL   H178 9842   0.529   6.524   0.871  1.9611 -0.6685 -0.1257
   33MOL   H179 9843   0.747   6.565   0.731  0.9512  1.4058 -0.4361
   33MOL   H180 9844   0.752   6.640   0.892 -3.6330  1.6779  1.3194
   33MOL   H181 9845   0.732   6.736   0.759  3.7558 -1.6269  0.1954
   33MOL   C182 9846   0.321   6.781   0.481 -0.2591  0.8856 -0.0253
   33MOL   C183 9847   0.428   6.857   0.399  0.1672  0.2074 -0.0512
   33MOL   C184 9848   0.447   6.797   0.262 -0.0243  0.2071  0.1909
   33MOL   O185 9849   0.546   6.729   0.236  0.5624  0.0437 -0.1417
   33MOL   O186 9850   0.346   6.820   0.181 -0.4125  0.0660 -0.3451
   33MOL   C187 9851   0.337   6.766   0.049  0.4100  0.2489 -0.1861
   33MOL   C188 9852   0.193   6.770   0.000  0.3859  0.1300  0.7143
   33MOL   H189 9853   0.226   6.799   0.429 -0.2050  0.1563 -0.3859
   33MOL   H190 9854   0.316   6.822   0.582 -2.5356  2.1165 -0.5872
   33MOL   H191 9855   0.382   6.952   0.371 -2.0997 -0.3640  1.5319
   33MOL   H192 9856   0.406   6.824   7.897  0.4554  0.9453  0.5177
   33MOL   H193 9857   0.368   6.662   0.040 -1.4282 -0.1839 -1.9263
   33MOL   H194 9858   0.128   6.711   0.064 -1.3736  1.7061  0.4354
   33MOL   H195 9859   0.197   6.729   7.808  0.1251  0.7712  0.4383
   33MOL   H196 9860   0.148   6.869   7.897 -3.2195 -1.7479 -2.4942
   33MOL   C197 9861   0.566   6.893   0.472  0.3828 -0.7066 -0.1217
   33MOL   C198 9862   0.651   7.000   0.407 -0.0733 -0.6061  0.3391
   33MOL   C199 9863   0.797   7.005   0.454 -0.6219  0.0039  0.4236
   33MOL   O200 9864   0.827   6.956   0.563 -0.7197  0.2556  0.4807
   33MOL   O201 9865   0.876   7.067   0.368 -0.2708  0.7962  0.2460
   33MOL   C202 9866   0.997   7.115   0.410 -0.7546  0.2118  0.0788
   33MOL   C203 9867   1.053   7.210   0.299  0.0068 -0.8470  0.4365
   33MOL   H204 9868   0.546   6.915   0.577 -0.5914 -1.5090 -0.1347
   33MOL   H205 9869   0.619   6.800   0.494  0.9767 -0.5299 -0.7950
   33MOL   H206 9870   0.663   6.965   0.305  0.6619  1.7044 -0.4126
   33MOL   H207 9871   0.994   7.167   0.505  1.0964 -1.5268  1.1230
   33MOL   H208 9872   1.075   7.043   0.436  0.2324  1.1300 -0.3259
   33MOL   H209 9873   1.049   7.156   0.205 -0.9838  0.2148 -0.1427
   33MOL   H210 9874   1.153   7.250   0.319 -1.1408  1.7839  1.1213
   33MOL   H211 9875   0.990   7.297   0.282  0.8507 -0.5144 -1.0956
   33MOL   C212 9876   0.595   7.141   0.411  0.1397  0.2057 -0.2839
   33MOL   C213 9877   0.636   7.241   0.297  0.4176  0.4530 -0.1902
   33MOL   C214 9878   0.656   7.379   0.360  0.6934 -0.2907 -0.8698
   33MOL   O215 9879   0.569   7.455   0.384  0.0664  0.8711  0.1607
   33MOL   O216 9880   0.783   7.397   0.405 -0.1902 -0.1517 -0.1750
   33MOL   C217 9881   0.812   7.489   0.505 -0.8960  0.0164 -0.2516
   33MOL   C218 9882   0.962   7.484   0.546  1.2937  0.0367  0.8323
   33MOL   H219 9883   0.486   7.148   0.417  0.1073 -0.9752  0.9546
   33MOL   H220 9884   0.628   7.175   0.509  0.3208  0.4935 -0.4464
   33MOL   H221 9885   0.731   7.213   0.250  0.3974 -0.5706  0.3828
   33MOL   H222 9886   0.780   7.583   0.461  1.3480  1.4109  0.9866
   33MOL   H223 9887   0.743   7.481   0.589  0.7336 -0.5003  1.0870
   33MOL   H224 9888   0.999   7.576   0.590 -0.8406 -0.0436  2.9134
   33MOL   H225 9889   1.024   7.472   0.458  0.8567 -1.9627  0.7679
   33MOL   H226 9890   0.967   7.402   0.618  2.0443  0.9741  1.8571
   33MOL   C227 9891   0.520   7.246   0.190  0.0139 -0.1081  0.4551
   33MOL   C228 9892   0.540   7.144   0.080  0.0784  0.6718 -0.1786
   33MOL   C229 9893   0.670   7.163   0.010  0.0652 -0.3511  0.7700
   33MOL   O230 9894   0.706   7.276   7.884 -0.0805  0.0508  0.2546
   33MOL   O231 9895   0.728   7.049   7.896 -0.3215  0.3870  0.0135
   33MOL   C232 9896   0.851   7.040   7.833  0.1074 -1.1297 -0.0778
   33MOL   C233 9897   0.898   6.894   7.818  1.1789  0.1771 -0.6465
   33MOL   H234 9898   0.425   7.238   0.243  0.2815 -0.9260  0.8045
   33MOL   H235 9899   0.527   7.343   0.141 -0.9943 -1.1761 -1.8807
   33MOL   H236 9900   0.551   7.045   0.126  0.2564  0.4607 -0.6758
   33MOL   H237 9901   0.859   7.092   7.737  0.9773 -0.1595  0.5121
   33MOL   H238 9902   0.925   7.081   7.902  1.2305 -0.2506 -1.7433
   33MOL   H239 9903   0.934   6.852   0.004  2.2025 -2.5737 -2.2222
   33MOL   H240 9904   0.978   6.883   7.745  0.0503  0.1382 -1.8856
   33MOL   H241 9905   0.806   6.846   7.785 -0.7235  3.1384  0.1504
   33MOL   C242 9906   0.418   7.119   7.907 -0.1258  0.0609  0.5549
   33MOL   C243 9907   0.378   7.234   7.807 -0.1321  0.5224 -0.2708
   33MOL   C244 9908   0.315   7.356   7.872  0.0074  0.0486 -0.1556
   33MOL   O245 9909   0.206   7.347   0.021 -0.0198  0.1187  0.1538
   33MOL   O246 9910   0.390   7.477   7.873  0.3255 -0.6329 -0.0249
   33MOL   C247 9911   0.336   7.602   0.008  0.3798 -0.3302 -0.3223
   33MOL   C248 9912   0.385   7.645   0.143 -0.2952 -0.0522 -0.0588
   33MOL   H249 9913   0.432   7.023   7.858  3.2989  1.6845 -1.8986
   33MOL   H250 9914   0.339   7.111   0.073  0.5413 -1.0552  1.1429
   33MOL   H251 9915   0.469   7.270   7.758 -0.8470 -1.0223 -2.8808
   33MOL   H252 9916   0.364   7.673   7.838 -0.9044  0.4728 -0.0658
   33MOL   H253 9917   0.228   7.609   7.904  0.5147 -0.7750 -1.7853
   33MOL   H254 9918   0.351   7.577   0.221 -0.8962  1.1685  0.7776
   33MOL   H255 9919   0.344   7.741   0.174 -1.8926 -1.4469  2.2841
   33MOL   H256 9920   0.493   7.636   0.155 -0.0935  1.1882 -0.8682
   33MOL   C257 9921   0.289   7.162   7.705 -0.4470 -0.1496 -0.3164
   33MOL   C258 9922   0.246   7.235   7.575 -0.6669 -0.1556  0.0589
   33MOL   C259 9923   0.358   7.308   7.502 -0.0261  0.0775  0.1414
   33MOL   O260 9924   0.412   7.258   7.403 -0.5928 -0.8596  0.0086
   33MOL   O261 9925   0.399   7.427   7.561 -0.0772  0.2980  0.3593
   33MOL   C262 9926   0.524   7.481   7.517 -0.5229  0.3848  0.1526
   33MOL   C263 9927   0.643   7.436   7.606  0.7566  0.0892 -0.2291
   33MOL   H264 9928   0.356   7.085   7.665 -0.6530 -0.7612  0.5094
   33MOL   H265 9929   0.202   7.111   7.747  0.5593 -1.3093  0.4024
   33MOL   H266 9930   0.210   7.157   7.508  1.3618 -1.2872  0.2330
   33MOL   H267 9931   0.560   7.449   7.420  0.6311 -0.2776  0.7883
   33MOL   H268 9932   0.516   7.590   7.525  0.8759  0.5247 -0.3691
   33MOL   H269 9933   0.740   7.484   7.595  1.1517 -0.5188  0.6211
   33MOL   H270 9934   0.648   7.328   7.600 -0.7995 -0.0385  0.4338
   33MOL   H271 9935   0.624   7.461   7.710  1.5190 -0.7514  0.1114
   33MOL   C272 9936   0.128   7.334   7.605  0.3544 -0.2307 -0.0556
   33MOL   C273 9937   0.028   7.353   7.491  0.0481 -0.5524  0.5738
   33MOL   C274 9938   7.833   7.469   7.517 -0.4831  0.3659 -0.3429
   33MOL   O275 9939   7.708   7.453   7.518 -0.0021  0.5179  0.3071
   33MOL   O276 9940   7.893   7.584   7.526 -0.7326  0.4966 -0.0344
   33MOL   C277 9941   7.823   7.704   7.544  0.1466  0.1338 -0.0147
   33MOL   C278 9942   0.003   7.817   7.502 -0.1619 -0.0414  0.3122
   33MOL   H279 9943   0.074   7.308   7.696  1.6383  1.0945  1.1248
   33MOL   H280 9944   0.173   7.431   7.628  2.0191 -1.4741  2.2446
   33MOL   H281 9945   0.087   7.390   7.408  0.6674  0.3307  1.3933
   33MOL   H282 9946   7.729   7.702   7.487  0.3336 -1.9495 -0.2885
   33MOL   H283 9947   7.800   7.716   7.650  1.0961 -0.1334  0.2250
   33MOL   H284 9948   7.850   7.907   7.504  1.8630  1.3496  0.8490
   33MOL   H285 9949   0.054   7.793   7.409  2.8230  1.5502  1.4816
   33MOL   H286 9950   0.090   7.829   7.567  0.8357 -0.5239 -0.9121
   33MOL   C287 9951   7.850   7.223   7.455  0.9065 -0.6323 -0.1262
   33MOL   C288 9952   7.789   7.233   7.312  0.5815  0.2169  0.6605
   33MOL   C289 9953   7.725   7.100   7.264  0.4892 -0.4636 -0.0250
   33MOL   O290 9954   7.805   7.005   7.239 -0.1064  0.2920 -0.0064
   33MOL   O291 9955   7.592   7.102   7.249  0.4623  0.1574  0.5707
   33MOL   C292 9956   7.519   6.984   7.200 -0.1335  0.2977 -0.0252
   33MOL   C293 9957   7.501   6.992   7.043 -0.1301  0.0950 -0.2060
   33MOL   H294 9958   0.005   7.135   7.446 -0.5864 -1.6510 -1.0865
   33MOL   H295 9959   7.770   7.197   7.525 -0.0838 -0.2092 -1.0806
   33MOL   H296 9960   7.709   7.306   7.305  0.7016  0.5767  2.5911
   33MOL   H297 9961   7.570   6.892   7.228 -2.2089 -0.7185  0.5975
   33MOL   H298 9962   7.418   6.979   7.241 -0.0105  0.4551  0.3043
   33MOL   H299 9963   7.469   7.088   7.002  0.3726  0.6152  0.5854
   33MOL   H300 9964   7.435   6.914   7.005 -2.0711  1.1983  0.7779
   33MOL   H301 9965   7.600   6.977   7.001  0.9667  1.3775  1.8384
   33MOL   H302 9966   7.870   7.246   7.241  0.8447 -2.3134  0.4472
   34MOL     C1 9967   3.360   6.827   5.701 -0.5410 -0.2969 -0.3105
   34MOL     C2 9968   3.262   6.915   5.623 -0.8517 -0.2832  1.0531
   34MOL     C3 9969   3.324   7.052   5.582  0.4421 -0.1600 -0.2210
   34MOL     O4 9970   3.280   7.115   5.487 -0.3490  0.9868  0.4718
   34MOL     O5 9971   3.435   7.097   5.650  0.2955 -0.1552  0.2918
   34MOL     C6 9972   3.498   7.225   5.632 -0.3565  0.7862  0.1764
   34MOL     C7 9973   3.633   7.254   5.714  0.0636  0.1392 -0.2249
   34MOL     H8 9974   3.332   6.722   5.686 -1.5046  0.1691 -1.8815
   34MOL     H9 9975   3.361   6.862   5.804  0.8651  1.7307 -0.9847
   34MOL    H10 9976   3.271   6.867   5.526  3.5556  2.5363 -0.1006
   34MOL    H11 9977   3.519   7.238   5.525  0.8096 -0.2548  0.2759
   34MOL    H12 9978   3.423   7.300   5.655  1.0241  2.4843 -0.7297
   34MOL    H13 9979   3.710   7.186   5.678 -1.8872 -1.3379 -1.7894
   34MOL    H14 9980   3.619   7.237   5.821 -0.9900 -0.0183 -0.3837
   34MOL    H15 9981   3.671   7.356   5.714  0.6611 -0.0714  1.2418
   34MOL    H16 9982   3.463   6.840   5.667  0.0935  1.5281  2.1600
   34MOL    C17 9983   3.113   6.919   5.674 -0.1701  0.1946  0.4915
   34MOL    C18 9984   3.019   6.815   5.615  0.0898 -0.4949  0.0659
   34MOL    C19 9985   3.025   6.805   5.461 -0.0967  0.0444 -0.4770
   34MOL    O20 9986   3.032   6.693   5.405  0.1215  0.4333  0.2086
   34MOL    O21 9987   3.023   6.923   5.395 -0.1758  0.2659 -0.3520
   34MOL    C22 9988   2.996   6.932   5.254  0.3028 -0.4023 -0.7028
   34MOL    C23 9989   2.845   6.973   5.231 -0.0894  0.1708 -0.2384
   34MOL    H24 9990   3.117   6.929   5.783 -0.2950  0.1434  0.5013
   34MOL    H25 9991   3.066   7.011   5.639  0.1205  0.3813  0.5969
   34MOL    H26 9992   3.071   6.726   5.649  0.4474 -0.4208 -0.2816
   34MOL    H27 9993   3.049   7.013   5.203 -1.0412  1.2554  0.4713
   34MOL    H28 9994   3.011   6.842   5.195  0.6866  1.1806 -3.0714
   34MOL    H29 9995   2.826   6.993   5.126 -3.0582  0.0563  0.2369
   34MOL    H30 9996   2.823   7.068   5.281  3.3379  1.5397 -1.2404
   34MOL    H31 9997   2.782   6.887   5.251 -0.8019  1.4050  3.2602
   34MOL    C32 9998   2.870   6.840   5.664 -0.3264 -0.2699 -0.1674
   34MOL    C33 9999   2.756   6.738   5.630 -0.7774 -0.5686 -0.1397
   34MOL    C3410000   2.628   6.808   5.603  0.2119 -0.2863 -0.3366
   34MOL    O3510001   2.533   6.805   5.677 -0.2721 -0.4728 -0.4400
   34MOL    O3610002   2.626   6.870   5.492  0.4563  0.2672 -0.1373
   34MOL    C3710003   2.504   6.929   5.450  0.0570  0.2380 -0.4490
   34MOL    C3810004   2.436   6.832   5.355 -0.1992  0.0353 -0.3411
   34MOL    H3910005   2.875   6.852   5.772 -1.3888  1.5460 -0.2943
   34MOL    H4010006   2.846   6.937   5.618  0.2963  1.2833  2.6901
   34MOL    H4110007   2.782   6.691   5.535 -3.9994 -0.0670 -1.3363
   34MOL    H4210008   2.443   6.972   5.529  0.5820  1.2423 -0.5701
   34MOL    H4310009   2.534   7.018   5.394 -1.8932  1.8724  1.0548
   34MOL    H4410010   2.356   6.885   5.302 -1.2199  0.8831  1.9668
   34MOL    H4510011   2.383   6.744   5.392  0.5237 -0.2045  0.1100
   34MOL    H4610012   2.514   6.807   5.284 -0.3235 -0.9962 -0.1173
   34MOL    C4710013   2.750   6.630   5.739 -0.3090  0.2085  0.0033
   34MOL    C4810014   2.802   6.495   5.679 -0.4773  0.1633 -0.1886
   34MOL    C4910015   2.688   6.452   5.591 -0.3504  0.6764  0.0547
   34MOL    O5010016   2.584   6.402   5.634  0.1932 -0.2825 -0.6929
   34MOL    O5110017   2.715   6.482   5.459  0.5046  0.0097 -0.2277
   34MOL    C5210018   2.610   6.476   5.360  0.3465  0.7531 -0.6517
   34MOL    C5310019   2.658   6.541   5.229  0.1272 -0.1140  0.3301
   34MOL    H5410020   2.808   6.655   5.828 -1.4564  1.4269  0.4354
   34MOL    H5510021   2.651   6.628   5.784 -1.2739  1.9205 -1.9527
   34MOL    H5610022   2.889   6.498   5.614  0.0108  1.9048  0.5164
   34MOL    H5710023   2.565   6.379   5.341  0.4356  0.8796 -1.5526
   34MOL    H5810024   2.526   6.529   5.405  0.2206  0.7678 -0.9012
   34MOL    H5910025   2.757   6.501   5.206  0.0238  0.0295 -0.3747
   34MOL    H6010026   2.668   6.650   5.225  0.6582 -0.1834 -0.3010
   34MOL    H6110027   2.594   6.520   5.143 -0.8436 -3.2647  1.7639
   34MOL    C6210028   2.827   6.386   5.794  0.5376 -0.4716 -0.4071
   34MOL    C6310029   2.949   6.402   5.882  0.1370  0.3908 -0.2225
   34MOL    C6410030   3.071   6.462   5.806 -0.4696 -0.4445  0.2690
   34MOL    O6510031   3.132   6.567   5.827  0.7864  0.2579 -0.6433
   34MOL    O6610032   3.108   6.371   5.719  0.5133  0.1962  0.2169
   34MOL    C6710033   3.216   6.391   5.627  0.0124 -0.6817  0.2597
   34MOL    C6810034   3.148   6.377   5.492  0.3335 -0.8681 -0.8424
   34MOL    H6910035   2.740   6.388   5.860  0.2003  0.8327 -0.8741
   34MOL    H7010036   2.835   6.290   5.743  0.7744  1.2495 -3.7637
   34MOL    H7110037   2.925   6.479   5.955  0.0861 -0.1210  0.3113
   34MOL    H7210038   3.261   6.490   5.637  1.8139 -1.2996 -1.3751
   34MOL    H7310039   3.297   6.323   5.653  0.1728  0.4065  2.6608
   34MOL    H7410040   3.217   6.412   5.414  0.0126  0.7087 -0.4504
   34MOL    H7510041   3.056   6.434   5.480 -0.0404 -1.3384 -0.1803
   34MOL    H7610042   3.130   6.274   5.464 -0.2529 -1.3828  1.3730
   34MOL    C7710043   2.982   6.269   5.955  0.4100  0.4007 -0.4512
   34MOL    C7810044   2.883   6.235   6.070  0.8954  0.0656 -0.1241
   34MOL    C7910045   2.874   6.345   6.175  0.4505 -0.0217 -0.1234
   34MOL    O8010046   2.798   6.444   6.163  0.2726 -0.2021  0.2235
   34MOL    O8110047   2.966   6.337   6.275  0.5304 -0.1927 -0.4109
   34MOL    C8210048   3.002   6.458   6.342 -0.2762  0.6386 -0.6258
   34MOL    C8310049   3.109   6.446   6.448  0.0646 -0.2492 -0.3439
   34MOL    H8410050   2.975   6.184   5.887  0.4304  0.1582 -0.1463
   34MOL    H8510051   3.086   6.267   5.987  0.5024 -1.0523 -0.7799
   34MOL    H8610052   2.787   6.243   6.018  0.6116  2.1736  0.6876
   34MOL    H8710053   3.031   6.515   6.254  0.5758 -0.3086 -0.9772
   34MOL    H8810054   2.923   6.510   6.398 -0.3932  0.3023 -0.4763
   34MOL    H8910055   3.075   6.378   6.526 -0.1534  1.2555  0.8977
   34MOL    H9010056   3.117   6.539   6.503  0.7083 -0.2298 -0.4615
   34MOL    H9110057   3.208   6.428   6.405 -0.4860  1.6839 -2.5322
   34MOL    C9210058   2.921   6.093   6.119  0.2335 -0.1731  0.4016
   34MOL    C9310059   2.819   6.026   6.206 -0.3144 -0.2553 -0.6063
   34MOL    C9410060   2.877   5.900   6.256  0.6326 -0.6487  0.3409
   34MOL    O9510061   2.842   5.794   6.207 -1.0109  0.6126 -0.1032
   34MOL    O9610062   2.980   5.919   6.350 -0.4508 -0.1309  0.2066
   34MOL    C9710063   3.062   5.806   6.377 -0.0019  0.0493  0.0900
   34MOL    C9810064   3.201   5.851   6.423 -0.3361  0.3117  0.1565
   34MOL    H9910065   2.939   6.025   6.035 -4.2453 -2.9134  1.4995
   34MOL   H10010066   3.016   6.107   6.171  0.1962 -1.3814  0.8209
   34MOL   H10110067   2.814   6.085   6.297 -1.4599 -2.8717  1.1034
   34MOL   H10210068   3.014   5.743   6.451  0.9278 -0.1176  0.5651
   34MOL   H10310069   3.073   5.745   6.288  0.1277 -1.2738  0.9966
   34MOL   H10410070   3.275   5.878   6.347  0.0877  0.3194  0.5651
   34MOL   H10510071   3.233   5.786   6.505 -0.6452 -0.8163 -0.6084
   34MOL   H10610072   3.191   5.950   6.467  0.3037 -0.7728  2.8323
   34MOL   C10710073   2.677   6.009   6.149  0.2473  0.5428  0.7426
   34MOL   C10810074   2.566   6.029   6.250  0.1541 -0.3842 -0.8406
   34MOL   C10910075   2.564   5.905   6.353 -0.4687 -0.1748  0.1296
   34MOL   O11010076   2.594   5.930   6.469 -0.1283  0.4268 -0.4572
   34MOL   O11110077   2.526   5.787   6.306  0.1175 -0.4748  0.7460
   34MOL   C11210078   2.524   5.667   6.387 -0.4710 -0.5014 -0.4704
   34MOL   C11310079   2.651   5.581   6.376 -0.8041 -0.1096 -0.3469
   34MOL   H11410080   2.663   6.076   6.064 -0.4854  0.0633  0.4908
   34MOL   H11510081   2.660   5.917   6.093 -1.0151 -0.6333  2.9910
   34MOL   H11610082   2.584   6.125   6.298 -1.5226 -0.6518  0.3899
   34MOL   H11710083   2.500   5.689   6.492 -0.4019 -3.1335  0.1332
   34MOL   H11810084   2.435   5.617   6.349 -1.0593  0.4052 -0.2914
   34MOL   H11910085   2.735   5.631   6.425 -0.6788 -0.3697 -0.2957
   34MOL   H12010086   2.678   5.572   6.271 -0.5083 -1.1506 -0.1841
   34MOL   H12110087   2.651   5.480   6.416 -0.2082 -0.1989 -0.5653
   34MOL   C12210088   2.430   6.043   6.188 -0.5288 -0.4531  0.4531
   34MOL   C12310089   2.371   6.187   6.207 -0.2042  0.0129  0.9746
   34MOL   C12410090   2.223   6.190   6.194  0.0046  0.4246  0.7791
   34MOL   O12510091   2.171   6.190   6.085 -0.0239 -0.6703 -0.6089
   34MOL   O12610092   2.164   6.176   6.316  0.3345  0.0742  0.3932
   34MOL   C12710093   2.025   6.211   6.337  0.1445 -0.7404  0.3808
   34MOL   C12810094   1.998   6.360   6.309 -0.0043 -0.5207  0.5571
   34MOL   H12910095   2.433   6.023   6.081  0.2851  0.6565  0.2656
   34MOL   H13010096   2.350   5.976   6.220 -0.0754 -2.3455 -2.1445
   34MOL   H13110097   2.382   6.211   6.312 -2.1278  2.5815  0.6245
   34MOL   H13210098   1.960   6.154   6.271 -0.7860 -0.0898  0.7282
   34MOL   H13310099   2.003   6.191   6.442 -0.2344 -0.7466  0.2980
   34MOL   H13410100   2.022   6.401   6.407  0.5338 -0.3105  0.3409
   34MOL   H13510101   1.892   6.378   6.289  0.4709  0.3693 -1.2968
   34MOL   H13610102   2.055   6.421   6.239 -0.0927 -0.2069  0.7578
   34MOL   C13710103   2.436   6.297   6.120 -0.3111  0.2914 -0.3837
   34MOL   C13810104   2.398   6.442   6.158  0.0447 -0.2742  0.5546
   34MOL   C13910105   2.444   6.537   6.045  0.1310  0.1252 -0.5192
   34MOL   O14010106   2.535   6.509   5.965 -0.8243  0.3275  0.3064
   34MOL   O14110107   2.390   6.656   6.048 -0.1737  0.2305 -0.7434
   34MOL   C14210108   2.430   6.758   5.953  0.2811  0.1517 -0.5271
   34MOL   C14310109   2.384   6.899   5.995 -0.2593 -0.8100 -0.7328
   34MOL   H14410110   2.543   6.277   6.114 -0.0848  0.5860  1.9945
   34MOL   H14510111   2.395   6.290   6.020 -0.3066 -0.8179 -0.3138
   34MOL   H14610112   2.289   6.440   6.160  0.0273  0.3165  0.3387
   34MOL   H14710113   2.538   6.754   5.938  0.6511 -1.7862  2.2156
   34MOL   H14810114   2.387   6.737   5.855  0.3205  2.9832 -1.2087
   34MOL   H14910115   2.425   6.927   6.092 -1.1825 -1.3304 -0.1859
   34MOL   H15010116   2.277   6.890   6.013 -0.2249 -0.5284 -0.3733
   34MOL   H15110117   2.395   6.967   5.911  0.1238  0.4369  0.3009
   34MOL   C15210118   2.456   6.485   6.294 -0.8416 -0.4543 -0.7294
   34MOL   C15310119   2.348   6.505   6.404  0.4752 -0.0969  0.3666
   34MOL   C15410120   2.275   6.637   6.390 -0.3145  0.4018  0.0402
   34MOL   O15510121   2.147   6.641   6.379 -0.0781 -0.2501 -0.4254
   34MOL   O15610122   2.355   6.740   6.396 -0.1009  0.3616  0.5155
   34MOL   C15710123   2.315   6.870   6.374 -0.0228 -0.0303  0.0185
   34MOL   C15810124   2.426   6.960   6.418  0.0369  0.3881 -0.4854
   34MOL   H15910125   2.531   6.411   6.323 -0.7968 -0.0468  0.2070
   34MOL   H16010126   2.507   6.581   6.293  1.7095 -1.7427 -0.3830
   34MOL   H16110127   2.258   6.444   6.400 -1.6091  2.6119  3.0533
   34MOL   H16210128   2.300   6.879   6.267  0.1689 -1.4800 -0.1344
   34MOL   H16310129   2.228   6.896   6.435 -0.0200 -2.4152  1.0775
   34MOL   H16410130   2.448   6.948   6.524 -1.5668 -0.2080 -0.2106
   34MOL   H16510131   2.411   7.065   6.392 -0.4105  0.4941  0.2049
   34MOL   H16610132   2.525   6.932   6.379  0.9518  2.0333  0.5876
   34MOL   C16710133   2.409   6.483   6.541 -0.4800 -0.6163 -0.6328
   34MOL   C16810134   2.313   6.450   6.660  0.0931 -0.0921 -0.1490
   34MOL   C16910135   2.392   6.458   6.795 -0.1296  0.3257  0.4008
   34MOL   O17010136   2.514   6.450   6.804 -0.5906  0.1267 -0.1862
   34MOL   O17110137   2.308   6.472   6.896  0.1834  0.4427  0.4269
   34MOL   C17210138   2.354   6.486   7.027 -0.0321 -0.3328  0.2830
   34MOL   C17310139   2.359   6.344   7.088 -0.3880 -0.1335  0.9583
   34MOL   H17410140   2.478   6.400   6.525  0.4458  0.2940 -1.3988
   34MOL   H17510141   2.467   6.569   6.575 -0.2063 -0.6712 -0.9647
   34MOL   H17610142   2.243   6.533   6.666 -2.5530 -2.3304  0.8537
   34MOL   H17710143   2.449   6.539   7.023  0.0008 -0.3053  1.2709
   34MOL   H17810144   2.293   6.557   7.084  1.9413  1.1722  0.5818
   34MOL   H17910145   2.436   6.272   7.061 -0.6826  0.5101 -1.6816
   34MOL   H18010146   2.262   6.298   7.068 -0.3402 -0.5317  1.6348
   34MOL   H18110147   2.371   6.354   7.196 -2.0874  0.3768  1.1217
   34MOL   C18210148   2.246   6.313   6.642  0.3566 -0.6686  0.0740
   34MOL   C18310149   2.134   6.277   6.734 -0.1736 -0.1944 -0.0319
   34MOL   C18410150   2.097   6.122   6.728 -0.3647  0.0496 -0.4306
   34MOL   O18510151   2.066   6.052   6.827  0.1230 -0.7248  0.5338
   34MOL   O18610152   2.097   6.076   6.602  0.4161  0.0613 -0.1635
   34MOL   C18710153   2.081   5.938   6.580  0.3025  0.0134  0.3526
   34MOL   C18810154   2.216   5.886   6.513  0.3697  0.0977 -0.5445
   34MOL   H18910155   2.208   6.316   6.540 -2.8275 -0.6624  1.2066
   34MOL   H19010156   2.329   6.243   6.653  1.9130  1.3218  1.2667
   34MOL   H19110157   2.162   6.292   6.838 -2.6710  0.5550  0.5594
   34MOL   H19210158   2.040   5.887   6.667 -1.3958 -0.4860 -0.7164
   34MOL   H19310159   1.997   5.932   6.511  0.8358  2.5421 -0.5718
   34MOL   H19410160   2.211   5.781   6.483  1.8058 -0.0570 -0.2536
   34MOL   H19510161   2.301   5.907   6.577 -0.6259 -2.4399  1.7023
   34MOL   H19610162   2.235   5.951   6.427 -0.6768  1.8785  0.5516
   34MOL   C19710163   2.014   6.366   6.713  0.4578 -0.3068 -0.5223
   34MOL   C19810164   1.973   6.465   6.823  0.0725  0.1321 -1.1045
   34MOL   C19910165   1.925   6.396   6.949 -0.4235 -0.1904  0.0449
   34MOL   O20010166   2.003   6.367   7.042  0.4980 -0.4770 -0.1790
   34MOL   O20110167   1.807   6.334   6.933  1.0283 -0.2449 -0.4191
   34MOL   C20210168   1.762   6.241   7.029  0.3551 -0.1026 -0.1029
   34MOL   C20310169   1.615   6.219   6.989 -0.3227 -0.3640  0.0816
   34MOL   H20410170   2.017   6.435   6.629 -1.6229  0.8269  0.3148
   34MOL   H20510171   1.926   6.303   6.699 -1.8504  2.7352  0.0659
   34MOL   H20610172   2.060   6.524   6.852 -0.7864  0.2708  1.3229
   34MOL   H20710173   1.815   6.145   7.022  0.5742 -0.1643  1.9309
   34MOL   H20810174   1.765   6.285   7.129  0.9568 -3.2470  1.3342
   34MOL   H20910175   1.607   6.173   6.890 -3.2689 -1.7664  0.8907
   34MOL   H21010176   1.570   6.319   6.983  0.0075 -0.0852  1.9467
   34MOL   H21110177   1.554   6.163   7.059 -0.1346 -1.9284 -0.9769
   34MOL   C21210178   1.866   6.566   6.772 -0.4206 -0.6064 -0.3164
   34MOL   C21310179   1.922   6.679   6.674 -0.3283  0.7497 -0.3109
   34MOL   C21410180   1.971   6.791   6.754  0.1094  0.4400 -0.7728
   34MOL   O21510181   1.904   6.888   6.791  0.1059 -0.1948  0.3320
   34MOL   O21610182   2.105   6.761   6.779  0.2418 -0.0924  0.2228
   34MOL   C21710183   2.183   6.860   6.842 -0.5354  0.3068  0.3290
   34MOL   C21810184   2.286   6.911   6.733  0.1011 -0.3226  0.3535
   34MOL   H21910185   1.785   6.503   6.735 -0.6372 -0.5145 -0.0005
   34MOL   H22010186   1.815   6.614   6.856  0.4028  0.2627 -0.3012
   34MOL   H22110187   2.012   6.642   6.625  0.2338  1.4323  0.1985
   34MOL   H22210188   2.125   6.944   6.881 -1.3225 -2.3924  5.4216
   34MOL   H22310189   2.236   6.812   6.924 -0.9186  1.6917  1.4193
   34MOL   H22410190   2.338   6.826   6.692  0.6002  0.6081 -0.9764
   34MOL   H22510191   2.357   6.978   6.780  0.3245  0.2526 -0.7756
   34MOL   H22610192   2.245   6.962   6.645  1.1980 -1.8673 -1.0638
   34MOL   C22710193   1.813   6.699   6.554  0.0607  0.2761  0.4154
   34MOL   C22810194   1.851   6.805   6.439  0.5996 -0.1274 -0.4357
   34MOL   C22910195   1.839   6.948   6.498  0.7785  0.2513  0.7558
   34MOL   O23010196   1.938   7.021   6.505  0.1801  0.4612  0.1787
   34MOL   O23110197   1.719   6.980   6.545 -0.2335  0.9171 -0.5654
   34MOL   C23210198   1.703   7.090   6.639  0.3415 -0.0886 -0.1307
   34MOL   C23310199   1.558   7.101   6.677  0.0539 -0.0572 -0.0713
   34MOL   H23410200   1.798   6.603   6.505  0.3814 -1.3361  3.3109
   34MOL   H23510201   1.716   6.730   6.593 -1.3567 -0.8456 -2.1094
   34MOL   H23610202   1.954   6.789   6.406  0.7460 -2.1407  0.9199
   34MOL   H23710203   1.758   7.064   6.729  1.6828  0.8649 -0.6553
   34MOL   H23810204   1.729   7.186   6.596 -0.4962  0.6423  0.9888
   34MOL   H23910205   1.539   7.181   6.748  0.3081 -1.1509  1.2412
   34MOL   H24010206   1.525   7.006   6.719  0.7713 -0.8031 -1.1532
   34MOL   H24110207   1.493   7.114   6.590 -2.7655  0.5387  2.0743
   34MOL   C24210208   1.747   6.782   6.324  0.5151  0.1818  0.0833
   34MOL   C24310209   1.783   6.676   6.215 -0.6962  0.2473  0.0993
   34MOL   C24410210   1.897   6.728   6.121 -0.3351 -0.0498 -0.9619
   34MOL   O24510211   1.935   6.850   6.126  0.3950 -0.1638 -0.1368
   34MOL   O24610212   1.947   6.634   6.048 -0.0284 -0.1825  0.1295
   34MOL   C24710213   2.066   6.672   5.968  0.2548  0.5014  0.4724
   34MOL   C24810214   2.108   6.545   5.886 -0.1655  0.3062 -0.0733
   34MOL   H24910215   1.656   6.757   6.379  0.4487 -1.7101 -0.8532
   34MOL   H25010216   1.723   6.878   6.279  3.5041  1.0119  0.1609
   34MOL   H25110217   1.820   6.587   6.265 -1.6344 -0.6233 -0.7413
   34MOL   H25210218   2.034   6.751   5.900  0.7872 -1.0739 -1.6719
   34MOL   H25310219   2.147   6.691   6.038  0.0058  2.1394  0.3336
   34MOL   H25410220   2.118   6.470   5.965 -1.2807  0.9098  0.6636
   34MOL   H25510221   2.202   6.553   5.832  1.3083 -1.1592  2.1804
   34MOL   H25610222   2.026   6.526   5.817 -1.1438  1.5859  0.7236
   34MOL   C25710223   1.670   6.653   6.115  0.4856  0.3381 -0.1738
   34MOL   C25810224   1.541   6.578   6.171  0.0413 -0.2700  0.9777
   34MOL   C25910225   1.578   6.445   6.236 -0.3991  0.2414 -0.1766
   34MOL   O26010226   1.616   6.349   6.169 -0.2039  0.2807 -0.1655
   34MOL   O26110227   1.568   6.447   6.372  0.2535  0.0924  0.6356
   34MOL   C26210228   1.588   6.321   6.440  0.1942 -0.2219  1.1043
   34MOL   C26310229   1.532   6.313   6.583  0.3126  0.1197 -0.2136
   34MOL   H26410230   1.651   6.742   6.055  0.5943 -0.5674 -1.5722
   34MOL   H26510231   1.712   6.587   6.040  1.0379  0.1799  0.2699
   34MOL   H26610232   1.508   6.633   6.259  0.5574  0.2533  0.8503
   34MOL   H26710233   1.533   6.243   6.389  0.8616  2.0438 -3.3081
   34MOL   H26810234   1.692   6.288   6.432 -0.4183 -1.8251 -0.3412
   34MOL   H26910235   1.567   6.392   6.648 -0.0966 -0.9712  1.3707
   34MOL   H27010236   1.562   6.217   6.626 -1.7148  0.0519  1.1340
   34MOL   H27110237   1.424   6.325   6.586  0.1044 -1.3795 -0.9757
   34MOL   C27210238   1.424   6.565   6.063 -0.0363 -0.2092 -0.0334
   34MOL   C27310239   1.333   6.685   6.033  0.4348  0.0011  0.1319
   34MOL   C27410240   1.260   6.735   6.158  0.1137 -0.3926 -0.3131
   34MOL   O27510241   1.220   6.651   6.239  0.1154  0.2997 -0.0008
   34MOL   O27610242   1.236   6.867   6.156  0.0006 -0.2621 -0.0488
   34MOL   C27710243   1.174   6.930   6.265  0.1384 -0.8584 -0.0255
   34MOL   C27810244   1.271   7.026   6.329  1.0923  0.0490  0.3753
   34MOL   H27910245   1.469   6.527   5.971  1.3169 -2.4698  1.5246
   34MOL   H28010246   1.360   6.482   6.092  0.5314 -0.3133  0.9286
   34MOL   H28110247   1.402   6.763   6.002 -2.0525  2.2753  0.1362
   34MOL   H28210248   1.079   6.973   6.232  1.6299  1.6325 -1.1797
   34MOL   H28310249   1.144   6.855   6.339 -0.8171  0.2262  0.7092
   34MOL   H28410250   1.299   7.105   6.260  0.9076 -0.1228  0.1024
   34MOL   H28510251   1.367   6.977   6.349  1.1173 -0.1810 -0.2900
   34MOL   H28610252   1.229   7.067   6.421  1.4856  0.6574  0.2916
   34MOL   C28710253   1.228   6.647   5.924  0.2771 -0.5049 -0.4315
   34MOL   C28810254   1.113   6.744   5.901  0.2587 -0.2469  0.1764
   34MOL   C28910255   1.136   6.860   5.803 -0.0301 -0.2426 -0.2005
   34MOL   O29010256   1.089   6.869   5.692  0.3255 -1.3046 -0.3392
   34MOL   O29110257   1.220   6.948   5.859 -0.3638 -0.3646  0.2756
   34MOL   C29210258   1.254   7.069   5.805 -0.5172  0.2859 -0.3540
   34MOL   C29310259   1.150   7.183   5.845  0.8826 -0.5364  0.9092
   34MOL   H29410260   1.274   6.635   5.826  1.9927  0.8020  0.1973
   34MOL   H29510261   1.192   6.547   5.948  1.3205 -0.4519  1.4166
   34MOL   H29610262   1.037   6.682   5.852 -0.2616  1.0443 -0.6634
   34MOL   H29710263   1.347   7.093   5.856 -0.7999  2.0997 -0.6320
   34MOL   H29810264   1.265   7.059   5.698  1.6750  0.1136 -0.1191
   34MOL   H29910265   1.128   7.176   5.952  0.5866  1.7394  1.0125
   34MOL   H30010266   1.053   7.168   5.799  0.8188  1.3999  0.3892
   34MOL   H30110267   1.172   7.280   5.801 -2.0667 -0.0136  0.4749
   34MOL   H30210268   1.069   6.781   5.994 -0.6909  0.4395 -0.5387
   35MOL     C110269   2.842   0.787   2.807 -0.7249 -0.4225 -0.6451
   35MOL     C210270   2.894   0.689   2.913 -0.2429 -0.9275  0.0628
   35MOL     C310271   2.987   0.594   2.841  0.3126  0.5997  0.1989
   35MOL     O410272   3.105   0.592   2.875 -0.1219  0.0461  0.2886
   35MOL     O510273   2.924   0.512   2.761 -0.3042  0.5156  0.1497
   35MOL     C610274   3.002   0.411   2.694 -0.3303 -0.0778  0.2590
   35MOL     C710275   2.910   0.317   2.618  0.2834  0.4554  0.6490
   35MOL     H810276   2.916   0.815   2.732 -0.0768 -0.5186 -0.0452
   35MOL     H910277   2.798   0.877   2.850  1.1410 -0.1548  0.7693
   35MOL    H1010278   2.953   0.741   2.988 -0.5690 -1.1157  0.4488
   35MOL    H1110279   3.061   0.463   2.619 -1.8913  2.0332  0.4629
   35MOL    H1210280   3.067   0.350   2.757  0.3539  0.1448 -0.2347
   35MOL    H1310281   2.835   0.378   2.568 -1.0289  0.0440  2.0713
   35MOL    H1410282   2.868   0.247   2.690 -1.4986  1.1938  0.3644
   35MOL    H1510283   2.965   0.260   2.544 -0.9829  0.9168 -0.6751
   35MOL    H1610284   2.760   0.748   2.747 -0.5047 -1.8720 -0.0147
   35MOL    C1710285   2.773   0.607   2.980 -0.1272 -1.0046  0.3153
   35MOL    C1810286   2.746   0.656   3.123  0.4286  0.2856 -0.3976
   35MOL    C1910287   2.857   0.624   3.219  1.0313  0.9076  0.0225
   35MOL    O2010288   2.938   0.711   3.256  0.1285 -0.1034  0.4818
   35MOL    O2110289   2.850   0.495   3.260  0.4303  0.7310  0.0217
   35MOL    C2210290   2.909   0.446   3.379  0.2041 -0.3287 -0.0165
   35MOL    C2310291   3.044   0.379   3.350 -0.3844 -0.3950 -0.2252
   35MOL    H2410292   2.681   0.596   2.922 -1.5374  0.4450  2.2237
   35MOL    H2510293   2.803   0.503   2.993 -1.8672 -2.0905 -3.3699
   35MOL    H2610294   2.758   0.763   3.105 -0.2985  0.6191  0.9717
   35MOL    H2710295   2.917   0.516   3.462  0.3742 -1.9104  1.3339
   35MOL    H2810296   2.849   0.362   3.414 -0.8951  0.4744  0.0511
   35MOL    H2910297   3.128   0.446   3.331 -0.1804 -0.4978  0.3090
   35MOL    H3010298   3.044   0.317   3.261  0.3177  0.8520 -1.1235
   35MOL    H3110299   3.068   0.312   3.433 -1.9310 -0.3750  0.2491
   35MOL    C3210300   2.607   0.616   3.185 -0.0635  0.0476  0.0594
   35MOL    C3310301   2.493   0.696   3.116  0.0460 -0.2077 -0.0730
   35MOL    C3410302   2.488   0.846   3.168 -0.8689 -0.9262 -0.5914
   35MOL    O3510303   2.529   0.876   3.276 -0.5585 -0.0299 -0.3581
   35MOL    O3610304   2.419   0.938   3.086  0.3677 -0.2640  0.2151
   35MOL    C3710305   2.387   1.072   3.139  0.4060 -0.2196  0.0086
   35MOL    C3810306   2.242   1.110   3.125  0.4046 -0.1228 -0.1040
   35MOL    H3910307   2.601   0.507   3.187  3.1078 -0.1573  0.0565
   35MOL    H4010308   2.612   0.641   3.291  0.6053 -0.3764  0.1317
   35MOL    H4110309   2.510   0.694   3.008  2.1892  1.5518  0.1935
   35MOL    H4210310   2.415   1.083   3.244 -0.6895  1.5452  0.1447
   35MOL    H4310311   2.445   1.143   3.079 -0.3109  1.4408  1.2236
   35MOL    H4410312   2.225   1.195   3.191 -0.9778 -1.5524  1.4500
   35MOL    H4510313   2.168   1.034   3.151 -0.1535 -0.2780 -2.0991
   35MOL    H4610314   2.212   1.132   3.023 -1.5979 -2.0636  0.0174
   35MOL    C4710315   2.354   0.630   3.133  0.6613 -0.1932  0.0655
   35MOL    C4810316   2.254   0.659   3.022  0.2358 -0.3260 -0.2701
   35MOL    C4910317   2.118   0.686   3.088 -0.2380  0.2584  0.3903
   35MOL    O5010318   2.064   0.796   3.063 -0.1477 -0.0892  0.1697
   35MOL    O5110319   2.075   0.591   3.170  0.1347  0.2533  0.0018
   35MOL    C5210320   1.948   0.599   3.233 -0.0874 -0.2618  0.4689
   35MOL    C5310321   1.824   0.560   3.146  0.3530 -0.3425  0.5203
   35MOL    H5410322   2.353   0.522   3.152  0.3648  0.0109  1.2570
   35MOL    H5510323   2.322   0.670   3.229 -2.7074  1.4854 -1.6595
   35MOL    H5610324   2.272   0.748   2.961 -1.0190 -0.1909 -0.4574
   35MOL    H5710325   1.946   0.528   3.315 -1.8004  0.8899  1.4617
   35MOL    H5810326   1.942   0.699   3.277  0.0867  0.7489 -1.7375
   35MOL    H5910327   1.855   0.477   3.084  1.7840 -0.1178  0.9200
   35MOL    H6010328   1.801   0.649   3.087  2.2773  0.5815  1.1021
   35MOL    H6110329   1.739   0.541   3.211 -0.3624 -2.7665 -1.0642
   35MOL    C6210330   2.253   0.547   2.918 -0.4005  0.8367 -0.3940
   35MOL    C6310331   2.223   0.584   2.777 -0.0984  0.3692 -0.9146
   35MOL    C6410332   2.069   0.604   2.756 -0.8355 -0.3441 -0.4593
   35MOL    O6510333   1.984   0.558   2.835 -0.2174  0.3279  0.2609
   35MOL    O6610334   2.042   0.674   2.654  0.0613 -0.4593  0.2281
   35MOL    C6710335   1.911   0.695   2.607  0.0481  1.2244  0.0238
   35MOL    C6810336   1.870   0.836   2.637  0.5671  0.5051 -0.2799
   35MOL    H6910337   2.357   0.517   2.908  0.0020  1.9802  0.2212
   35MOL    H7010338   2.204   0.455   2.950  0.8399  0.0444 -0.7727
   35MOL    H7110339   2.273   0.678   2.755 -0.4226  0.5947 -0.6910
   35MOL    H7210340   1.912   0.693   2.498 -1.3019  1.1522  0.0085
   35MOL    H7310341   1.846   0.613   2.638  1.6849  0.0364  0.4298
   35MOL    H7410342   1.844   0.850   2.742  2.3759  1.2866  0.0880
   35MOL    H7510343   1.781   0.863   2.580  0.9437 -0.0353 -1.1447
   35MOL    H7610344   1.940   0.912   2.600  0.7597  0.7426  0.5726
   35MOL    C7710345   2.290   0.489   2.676 -0.0941  0.2785 -0.4589
   35MOL    C7810346   2.253   0.337   2.690 -0.3057  0.1180 -0.2157
   35MOL    C7910347   2.372   0.256   2.751  0.1934  0.4193  0.2138
   35MOL    O8010348   2.482   0.251   2.687  0.0044  0.3558 -0.2039
   35MOL    O8110349   2.342   0.194   2.871 -0.3887 -0.1777  0.3290
   35MOL    C8210350   2.446   0.128   2.938  0.0352  0.3682  0.3502
   35MOL    C8310351   2.515   0.209   3.044 -0.9171  0.0647  0.3735
   35MOL    H8410352   2.274   0.533   2.578  0.2037  0.2176 -0.5345
   35MOL    H8510353   2.399   0.490   2.680 -0.1273 -0.1095  1.0860
   35MOL    H8610354   2.163   0.343   2.751  0.1526  0.3885  0.4355
   35MOL    H8710355   2.411   0.049   3.004  0.8520 -0.3348 -0.0456
   35MOL    H8810356   2.518   0.087   2.868 -2.6082 -0.6781 -1.8344
   35MOL    H8910357   2.607   0.161   3.077 -0.0971  2.2303  1.4023
   35MOL    H9010358   2.448   0.224   3.128  0.5383 -1.2101  1.7837
   35MOL    H9110359   2.550   0.300   2.995  0.9253 -1.6026 -1.4867
   35MOL    C9210360   2.217   0.279   2.550  0.7908 -0.0134  0.3550
   35MOL    C9310361   2.074   0.312   2.503  0.3683 -0.4509 -0.3190
   35MOL    C9410362   1.970   0.226   2.565 -0.2543  0.8354 -0.8492
   35MOL    O9510363   1.998   0.107   2.586 -0.3430 -0.1345  0.0855
   35MOL    O9610364   1.862   0.293   2.598  0.4048  0.2311  0.3662
   35MOL    C9710365   1.757   0.228   2.664 -0.5293 -0.8517 -0.3382
   35MOL    C9810366   1.656   0.180   2.557 -0.4908 -0.3394 -0.0218
   35MOL    H9910367   2.303   0.303   2.488  0.3862  0.5073 -0.0132
   35MOL   H10010368   2.224   0.171   2.561  2.0378 -0.1893 -1.9994
   35MOL   H10110369   2.058   0.418   2.525 -2.4636 -0.1339 -3.4086
   35MOL   H10210370   1.780   0.139   2.722  0.5539 -1.1620 -1.2349
   35MOL   H10310371   1.707   0.302   2.728 -0.6009  1.6337 -3.1822
   35MOL   H10410372   1.694   0.116   2.478 -0.8382 -0.9581  0.3103
   35MOL   H10510373   1.595   0.260   2.515  0.3193  0.4221  0.2379
   35MOL   H10610374   1.573   0.130   2.607  1.2982 -3.2526  0.1642
   35MOL   C10710375   2.069   0.289   2.348  0.3115 -0.3717  0.3052
   35MOL   C10810376   1.955   0.351   2.269 -0.6486  0.0185  0.1428
   35MOL   C10910377   1.924   0.271   2.149 -0.7269  0.3356 -0.2501
   35MOL   O11010378   1.820   0.227   2.125  0.2483  0.2077 -1.2123
   35MOL   O11110379   2.029   0.275   2.064  0.4665 -0.0707 -0.3633
   35MOL   C11210380   2.049   0.176   1.970  0.2455  0.3605 -0.2301
   35MOL   C11310381   2.185   0.201   1.909 -0.2413  0.4580  0.1225
   35MOL   H11410382   2.166   0.321   2.312  1.0249 -1.3191  1.3371
   35MOL   H11510383   2.073   0.181   2.334  3.8952 -0.1896 -0.6564
   35MOL   H11610384   1.865   0.346   2.330 -1.5278  2.7456 -0.8609
   35MOL   H11710385   2.054   0.082   2.026  1.0815  1.2725  1.2576
   35MOL   H11810386   1.967   0.172   1.897 -1.8541  1.0291  2.0021
   35MOL   H11910387   2.273   0.199   1.973  0.0026  0.3703 -0.2183
   35MOL   H12010388   2.183   0.290   1.846 -1.4065 -0.7774 -1.6269
   35MOL   H12110389   2.201   0.117   1.841 -3.2854  1.3281 -1.7536
   35MOL   C12210390   1.975   0.504   2.254  0.2120 -0.0675 -0.3188
   35MOL   C12310391   1.858   0.573   2.194 -0.1653 -0.1531  0.0897
   35MOL   C12410392   1.902   0.707   2.132  0.4574 -0.7493  0.5811
   35MOL   O12510393   1.972   0.785   2.204  0.1279 -0.0469  0.6253
   35MOL   O12610394   1.852   0.734   2.011 -0.3453  0.5121  0.2143
   35MOL   C12710395   1.912   0.836   1.934 -0.0452 -0.2502 -0.0906
   35MOL   C12810396   1.834   0.965   1.962  0.3516 -0.1999  0.6878
   35MOL   H12910397   1.999   0.550   2.350 -0.0789 -3.5127  1.4619
   35MOL   H13010398   2.071   0.510   2.202  1.2756 -0.6112  1.5457
   35MOL   H13110399   1.826   0.509   2.111 -2.4772 -0.9591  1.5405
   35MOL   H13210400   2.013   0.847   1.972 -0.4631 -2.8635  1.8710
   35MOL   H13310401   1.914   0.818   1.826  0.6867  0.0762 -0.1333
   35MOL   H13410402   1.728   0.946   1.948 -0.0756  3.6124 -2.0412
   35MOL   H13510403   1.879   1.042   1.900  1.4358 -1.8097 -0.5612
   35MOL   H13610404   1.851   1.008   2.061 -1.5641  0.3139  0.8254
   35MOL   C13710405   1.739   0.600   2.288 -0.6143  0.2463  0.0285
   35MOL   C13810406   1.604   0.623   2.230 -0.3355  0.4004 -0.8574
   35MOL   C13910407   1.523   0.721   2.316  0.1603  0.2985 -0.2822
   35MOL   O14010408   1.418   0.683   2.372 -0.3225  0.6420  0.0460
   35MOL   O14110409   1.590   0.834   2.328  0.5149  0.4544  0.3386
   35MOL   C14210410   1.521   0.944   2.388 -1.0438 -0.5126  1.0028
   35MOL   C14310411   1.613   1.071   2.405  0.3531  0.0022 -0.8171
   35MOL   H14410412   1.723   0.520   2.361  1.1407  0.3587  0.5643
   35MOL   H14510413   1.778   0.685   2.343 -1.2981 -0.0589  1.0071
   35MOL   H14610414   1.618   0.691   2.146 -0.0923  2.0706  0.5011
   35MOL   H14710415   1.435   0.970   2.326 -0.3333 -1.2875 -0.3376
   35MOL   H14810416   1.479   0.916   2.485 -1.5557 -0.1756  0.8849
   35MOL   H14910417   1.659   1.105   2.312  0.6509 -0.3200 -0.7895
   35MOL   H15010418   1.688   1.058   2.482 -0.8597 -1.0186  0.2011
   35MOL   H15110419   1.547   1.153   2.436 -0.7280 -1.3528  0.5409
   35MOL   C15210420   1.529   0.503   2.180  0.0425  0.1842 -0.3530
   35MOL   C15310421   1.454   0.528   2.051  0.3241  0.1216  0.3691
   35MOL   C15410422   1.334   0.616   2.071  0.4513 -0.0324 -0.2014
   35MOL   O15510423   1.331   0.737   2.056 -0.1129 -0.1692 -0.3715
   35MOL   O15610424   1.229   0.548   2.131  0.3653  0.3265  0.4967
   35MOL   C15710425   1.110   0.618   2.162 -0.6129 -0.4425 -0.1806
   35MOL   C15810426   0.995   0.587   2.065 -0.6708 -0.2274  1.2620
   35MOL   H15910427   1.611   0.439   2.148 -0.4463  0.3993 -2.0550
   35MOL   H16010428   1.470   0.446   2.253  0.8606 -1.6420 -1.0876
   35MOL   H16110429   1.517   0.584   1.982 -1.7663  2.5630  0.3512
   35MOL   H16210430   1.073   0.588   2.260 -1.6409  0.8071 -0.1695
   35MOL   H16310431   1.128   0.724   2.181 -0.4131 -1.0040  3.1221
   35MOL   H16410432   1.001   0.648   1.974 -0.5745 -0.8143  0.8720
   35MOL   H16510433   0.903   0.626   2.109  0.1406  2.8288  0.4319
   35MOL   H16610434   0.981   0.482   2.041 -2.0774  0.1198  0.4913
   35MOL   C16710435   1.416   0.387   1.978 -0.8226  0.3877  0.6254
   35MOL   C16810436   1.527   0.328   1.893  0.8800  0.1447 -0.8634
   35MOL   C16910437   1.558   0.424   1.783  0.3272 -0.1682  0.3092
   35MOL   O17010438   1.665   0.490   1.781 -0.0944 -0.0631  0.1875
   35MOL   O17110439   1.464   0.419   1.688 -0.1068  0.1492  0.2950
   35MOL   C17210440   1.511   0.463   1.561  0.3297  0.3658 -1.2600
   35MOL   C17310441   1.396   0.480   1.457  0.0792 -0.1487 -0.0032
   35MOL   H17410442   1.399   0.303   2.045  0.1225 -0.7094 -0.4904
   35MOL   H17510443   1.322   0.400   1.924  0.8431  0.1531 -2.4414
   35MOL   H17610444   1.607   0.333   1.967  0.8113  2.1175 -0.9084
   35MOL   H17710445   1.552   0.564   1.566  0.9561 -0.0080  1.7295
   35MOL   H17810446   1.584   0.391   1.524 -0.5945 -1.3937  0.3073
   35MOL   H17910447   1.341   0.569   1.487  0.6898  0.3754 -0.4398
   35MOL   H18010448   1.323   0.400   1.440 -0.0621  0.3298 -1.7166
   35MOL   H18110449   1.429   0.505   1.356  0.7494 -0.1191  0.2254
   35MOL   C18210450   1.512   0.176   1.851  0.2023 -1.1342  0.2444
   35MOL   C18310451   1.640   0.103   1.814 -0.6727  0.3539  0.1544
   35MOL   C18410452   1.695   0.141   1.675  0.3121 -0.4241  0.2250
   35MOL   O18510453   1.636   0.144   1.569  0.1748 -0.6372  0.0903
   35MOL   O18610454   1.828   0.165   1.679 -0.0676  0.6204  0.2286
   35MOL   C18710455   1.906   0.176   1.561 -0.5381  0.1344  1.1797
   35MOL   C18810456   2.046   0.139   1.595  0.4441 -0.5681  0.0707
   35MOL   H18910457   1.463   0.112   1.925  0.0983 -0.1357  1.0533
   35MOL   H19010458   1.441   0.176   1.768  1.4595  1.8451 -0.8665
   35MOL   H19110459   1.712   0.139   1.888 -0.3847  0.4394 -0.1685
   35MOL   H19210460   1.869   0.105   1.487  0.8385 -0.4298  1.0234
   35MOL   H19310461   1.896   0.272   1.511 -1.5200  0.1435  1.3754
   35MOL   H19410462   2.106   0.223   1.631 -2.1472  1.5654 -0.3655
   35MOL   H19510463   2.086   0.101   1.501 -1.1796 -3.7461  0.5944
   35MOL   H19610464   2.045   0.058   1.667  2.3261  0.2884  1.0887
   35MOL   C19710465   1.621   7.851   1.813 -0.1427  0.4925 -0.7448
   35MOL   C19810466   1.629   7.778   1.945 -0.0267 -0.3974 -0.2630
   35MOL   C19910467   1.751   7.819   2.028  0.5384  0.4846  0.3302
   35MOL   O20010468   1.853   7.856   1.977 -1.0041 -0.4468 -0.9790
   35MOL   O20110469   1.740   7.795   2.155  0.7727 -0.3979 -0.1745
   35MOL   C20210470   1.844   7.829   2.240  0.6327  0.0114 -0.0149
   35MOL   C20310471   1.924   7.697   2.263 -0.1486  0.3823 -0.2585
   35MOL   H20410472   1.522   7.837   1.768 -0.9669 -0.5506  1.3492
   35MOL   H20510473   1.687   7.815   1.734 -1.7097 -2.1826 -0.9009
   35MOL   H20610474   1.549   7.816   2.009  0.6491 -2.3007  1.8202
   35MOL   H20710475   1.910   7.905   2.197 -0.2362  0.2138 -0.9817
   35MOL   H20810476   1.804   7.884   2.326 -0.0815  2.6331 -1.9389
   35MOL   H20910477   2.021   7.710   2.310  0.0746 -1.8635 -0.0493
   35MOL   H21010478   1.941   7.640   2.171 -1.0289 -0.3762  0.0457
   35MOL   H21110479   1.860   7.629   2.319 -0.5555  0.8135 -0.1945
   35MOL   C21210480   1.628   7.625   1.925  0.2723  0.0162 -0.0545
   35MOL   C21310481   1.518   7.557   1.841 -0.5486 -0.5805 -0.0434
   35MOL   C21410482   1.533   7.569   1.685  0.9029 -0.0524  0.1812
   35MOL   O21510483   1.452   7.634   1.618 -0.5940 -0.0026 -0.7206
   35MOL   O21610484   1.646   7.499   1.636  0.4336  0.0990  0.5010
   35MOL   C21710485   1.692   7.514   1.502 -0.2117  1.0031 -0.7991
   35MOL   C21810486   1.797   7.627   1.494  0.4383 -0.3289  0.2965
   35MOL   H21910487   1.724   7.591   1.884  0.5598 -3.2942  3.1301
   35MOL   H22010488   1.637   7.575   2.021  0.5067  2.2717  1.1154
   35MOL   H22110489   1.540   7.450   1.844  2.3944  0.0037  0.4558
   35MOL   H22210490   1.739   7.420   1.472 -1.8927 -0.0060 -0.3732
   35MOL   H22310491   1.608   7.537   1.436  0.9622  0.7954 -2.3947
   35MOL   H22410492   1.847   7.622   1.397  2.6051 -1.0584  1.4153
   35MOL   H22510493   1.885   7.627   1.559  1.7063  2.2538 -1.3144
   35MOL   H22610494   1.742   7.720   1.509 -0.7496 -1.1908  1.3470
   35MOL   C22710495   1.375   7.550   1.895  0.4132 -0.1716  0.0638
   35MOL   C22810496   1.369   7.459   2.020  0.2970  0.3542 -0.1278
   35MOL   C22910497   1.233   7.380   2.023 -0.4552  0.0215 -0.4553
   35MOL   O23010498   1.224   7.261   2.056 -0.3940  0.0820 -0.5788
   35MOL   O23110499   1.129   7.459   2.004  1.0499 -0.0523  1.2143
   35MOL   C23210500   0.991   7.405   2.006  0.2103  0.3613  0.3657
   35MOL   C23310501   0.950   7.391   2.162  0.2648 -0.7348  0.0921
   35MOL   H23410502   1.324   7.646   1.901 -1.0032 -0.9325  0.4216
   35MOL   H23510503   1.325   7.494   1.816 -0.1899  2.4630 -1.5059
   35MOL   H23610504   1.446   7.384   2.002  0.1316  0.0570  0.4043
   35MOL   H23710505   0.923   7.476   1.958 -0.8502  0.1748  1.5565
   35MOL   H23810506   0.984   7.310   1.952 -0.2907  0.9563 -0.6457
   35MOL   H23910507   0.843   7.377   2.151  0.1753 -0.1666  0.2199
   35MOL   H24010508   0.959   7.482   2.222 -1.8956  0.0503 -0.7442
   35MOL   H24110509   0.998   7.301   2.201  1.4297 -0.3203 -0.3648
   35MOL   C24210510   1.386   7.530   2.158 -0.0121 -0.2705 -0.3454
   35MOL   C24310511   1.386   7.437   2.283 -0.2352  0.1358 -1.3613
   35MOL   C24410512   1.382   7.515   2.416 -0.0003  0.2728 -0.0069
   35MOL   O24510513   1.296   7.498   2.506 -0.7888 -0.0648 -0.1750
   35MOL   O24610514   1.488   7.600   2.429 -0.3645 -0.0983 -0.1065
   35MOL   C24710515   1.513   7.681   2.542  0.5469  0.3408 -0.0565
   35MOL   C24810516   1.659   7.710   2.544  0.1572 -0.3043  0.8115
   35MOL   H24910517   1.481   7.581   2.170  0.7462 -1.8256  0.3992
   35MOL   H25010518   1.306   7.602   2.175  0.0671 -0.6841  2.0815
   35MOL   H25110519   1.295   7.379   2.283 -1.7516  2.4361 -0.0640
   35MOL   H25210520   1.459   7.775   2.530 -1.2602 -0.5446  0.8086
   35MOL   H25310521   1.485   7.622   2.630  0.3178  0.7318  0.1379
   35MOL   H25410522   1.679   7.783   2.622 -1.1711  2.2822 -1.2012
   35MOL   H25510523   1.709   7.748   2.455  0.4883 -0.1728  1.0545
   35MOL   H25610524   1.710   7.618   2.574 -1.3866 -1.1130  1.0028
   35MOL   C25710525   1.515   7.349   2.276  0.8087  0.1240 -0.6214
   35MOL   C25810526   1.501   7.203   2.220 -0.2556 -0.4532 -0.4425
   35MOL   C25910527   1.444   7.106   2.324 -0.0466  0.2834  0.3439
   35MOL   O26010528   1.484   7.103   2.437 -0.3663  0.4629  0.9951
   35MOL   O26110529   1.347   7.018   2.268 -0.5333  0.3420 -0.0347
   35MOL   C26210530   1.317   6.901   2.337  0.6981  0.6597  0.5369
   35MOL   C26310531   1.214   6.816   2.260  0.0118  0.0265 -0.1510
   35MOL   H26410532   1.594   7.400   2.222  0.9993 -0.4060 -0.8515
   35MOL   H26510533   1.558   7.341   2.376 -2.0420 -0.6796  0.6273
   35MOL   H26610534   1.448   7.192   2.126  1.6665 -0.0686 -1.6069
   35MOL   H26710535   1.408   6.842   2.345  0.1197 -0.2313  0.6145
   35MOL   H26810536   1.278   6.914   2.438 -0.7996 -0.0960  0.0707
   35MOL   H26910537   1.192   6.719   2.305  1.5128  0.9533  2.6630
   35MOL   H27010538   1.250   6.784   2.162 -1.2975  0.6582 -0.8540
   35MOL   H27110539   1.117   6.865   2.251  0.0029 -0.0111 -0.2741
   35MOL   C27210540   1.633   7.149   2.159 -0.3825 -0.1533  0.5754
   35MOL   C27310541   1.754   7.102   2.250 -0.4757  0.2308  0.4390
   35MOL   C27410542   1.828   7.215   2.325 -0.3458 -0.1598 -0.1852
   35MOL   O27510543   1.844   7.330   2.269  0.0688  0.0641 -0.1966
   35MOL   O27610544   1.872   7.187   2.449 -0.5629  0.0317 -0.1461
   35MOL   C27710545   1.916   7.291   2.532 -0.1639 -1.2686 -0.1317
   35MOL   C27810546   1.852   7.312   2.672 -0.6859 -0.8941 -0.0902
   35MOL   H27910547   1.603   7.064   2.097  2.5014  0.5777 -1.9986
   35MOL   H28010548   1.666   7.222   2.084  2.5183 -2.6783 -0.7433
   35MOL   H28110549   1.699   7.045   2.326 -0.5576  0.1092  0.2867
   35MOL   H28210550   2.024   7.284   2.541 -0.0403  2.2426  2.3915
   35MOL   H28310551   1.906   7.390   2.488 -1.5522  0.0448  2.9212
   35MOL   H28410552   1.918   7.377   2.729 -0.3547 -0.4487 -0.9599
   35MOL   H28510553   1.835   7.214   2.717 -1.7095 -0.6731  0.0060
   35MOL   H28610554   1.755   7.361   2.668 -1.5824 -2.4352  2.0267
   35MOL   C28710555   1.857   7.007   2.180 -0.2914  0.1038 -0.5611
   35MOL   C28810556   1.971   6.947   2.270 -0.0971 -0.5028 -0.0804
   35MOL   C28910557   2.058   6.846   2.193 -0.4306 -0.5753  0.1463
   35MOL   O29010558   2.026   6.792   2.088 -0.6575 -0.1178  0.0575
   35MOL   O29110559   2.157   6.813   2.267 -0.1515  0.5151  0.2614
   35MOL   C29210560   2.257   6.727   2.222 -0.4374  0.2167 -0.1589
   35MOL   C29310561   2.390   6.755   2.293 -0.2928  0.3912  0.7108
   35MOL   H29410562   1.805   6.933   2.120 -2.1836  1.1666 -0.2745
   35MOL   H29510563   1.908   7.070   2.107 -1.1099  1.6306  0.1386
   35MOL   H29610564   2.031   7.025   2.318  0.7257 -0.5549 -1.0038
   35MOL   H29710565   2.227   6.623   2.234 -0.7825  0.1302 -1.6071
   35MOL   H29810566   2.263   6.738   2.114 -0.3198 -3.0801 -0.5349
   35MOL   H29910567   2.382   6.719   2.396 -3.7805  1.4186  0.8686
   35MOL   H30010568   2.426   6.858   2.284  0.6509 -0.0851 -1.2283
   35MOL   H30110569   2.467   6.699   2.240 -2.5137 -0.4419 -1.6852
   35MOL   H30210570   1.935   6.890   2.355 -0.9857  0.1334 -0.0234
   36MOL     C110571   1.191   5.614   1.165  0.4179 -0.1265 -0.0633
   36MOL     C210572   1.247   5.619   1.307  0.2590 -0.0935  0.0635
   36MOL     C310573   1.153   5.692   1.404 -0.1836 -0.5292 -0.4460
   36MOL     O410574   1.031   5.702   1.382 -0.2325  0.2413 -0.4126
   36MOL     O510575   1.216   5.726   1.518  0.3836 -0.1257 -0.0721
   36MOL     C610576   1.148   5.809   1.615 -0.1322  0.7517  0.0787
   36MOL     C710577   1.153   5.963   1.594  0.0457  0.0180  0.1501
   36MOL     H810578   1.265   5.659   1.100  1.1248 -1.2924 -0.0841
   36MOL     H910579   1.102   5.675   1.153  2.3593  2.5273 -1.3633
   36MOL    H1010580   1.246   5.514   1.335  1.0560 -0.5779 -1.6957
   36MOL    H1110581   1.046   5.776   1.632  0.5516 -1.9359 -0.8428
   36MOL    H1210582   1.194   5.799   1.713 -1.2939 -0.6819  0.4809
   36MOL    H1310583   1.118   6.018   1.681  1.3120  1.2187 -0.0909
   36MOL    H1410584   1.112   6.006   1.503 -0.2361  2.1857  1.2779
   36MOL    H1510585   1.255   6.002   1.599 -1.0015  3.0023 -0.9251
   36MOL    H1610586   1.156   5.513   1.141 -0.1103 -0.7722  3.1335
   36MOL    C1710587   1.392   5.679   1.322 -0.3403  0.2830 -0.7420
   36MOL    C1810588   1.430   5.839   1.324  0.5144  0.0044 -0.7590
   36MOL    C1910589   1.388   5.918   1.202 -0.8940  0.1529  0.2029
   36MOL    O2010590   1.339   6.032   1.212 -0.1633  0.0040 -1.0584
   36MOL    O2110591   1.420   5.858   1.085  0.0402 -0.9149  0.4876
   36MOL    C2210592   1.366   5.907   0.963  0.3371  0.0238 -0.5058
   36MOL    C2310593   1.457   5.889   0.853  0.4353 -0.2894 -0.1880
   36MOL    H2410594   1.434   5.636   1.413  0.8519  0.3707 -1.2365
   36MOL    H2510595   1.459   5.635   1.248  0.2593 -0.0633 -0.0008
   36MOL    H2610596   1.376   5.879   1.410  0.0533 -1.0504 -0.5608
   36MOL    H2710597   1.271   5.855   0.944 -0.1920  0.8379 -0.1184
   36MOL    H2810598   1.340   6.013   0.965  2.8715  0.6611  1.6631
   36MOL    H2910599   1.541   5.957   0.870 -0.2166  0.8313 -1.3823
   36MOL    H3010600   1.407   5.935   0.768  2.2481  1.8586 -0.1474
   36MOL    H3110601   1.498   5.789   0.838  2.5217  0.5793 -0.4487
   36MOL    C3210602   1.575   5.863   1.358 -0.3680  0.5737 -0.1609
   36MOL    C3310603   1.621   5.832   1.506 -0.2085  0.4785  0.2775
   36MOL    C3410604   1.539   5.913   1.608  0.2353  0.0425  0.4440
   36MOL    O3510605   1.470   5.855   1.697 -0.3112  0.2647 -0.4404
   36MOL    O3610606   1.550   6.047   1.592 -0.0341  0.4152 -0.2378
   36MOL    C3710607   1.496   6.132   1.696 -0.3751 -0.0767  0.2632
   36MOL    C3810608   1.496   6.274   1.645 -0.0268 -1.2136  0.5760
   36MOL    H3910609   1.643   5.811   1.290  0.4431  2.2347 -0.6256
   36MOL    H4010610   1.607   5.965   1.339  0.0362  1.1460  3.2471
   36MOL    H4110611   1.595   5.731   1.534 -2.4024  0.8836 -0.2349
   36MOL    H4210612   1.392   6.110   1.720 -0.2030 -0.9965  0.1803
   36MOL    H4310613   1.572   6.120   1.773  0.0982 -0.4636 -0.2531
   36MOL    H4410614   1.464   6.350   1.716  0.4193 -1.1677  0.7329
   36MOL    H4510615   1.424   6.294   1.566 -0.9099 -0.7321  1.4827
   36MOL    H4610616   1.594   6.304   1.608  0.2278 -1.3470  1.1363
   36MOL    C4710617   1.778   5.844   1.535  0.4488 -0.0464  0.0656
   36MOL    C4810618   1.837   5.833   1.683  0.8264  0.7513 -0.2685
   36MOL    C4910619   1.921   5.957   1.730 -0.1396  0.5527  0.5150
   36MOL    O5010620   1.874   6.037   1.812  0.5406 -0.3044  0.0037
   36MOL    O5110621   2.041   5.965   1.668  0.4467  0.2341  0.1465
   36MOL    C5210622   2.111   6.085   1.660 -0.1689 -0.4321  0.0030
   36MOL    C5310623   2.090   6.150   1.520 -0.1901  0.2195  0.2630
   36MOL    H5410624   1.840   5.788   1.465  0.6755 -2.0733  1.8116
   36MOL    H5510625   1.790   5.948   1.504  0.1815  0.0110  0.1505
   36MOL    H5610626   1.755   5.834   1.755  2.1196  3.2986  1.2448
   36MOL    H5710627   2.066   6.146   1.738  3.8099  0.1277  2.0214
   36MOL    H5810628   2.217   6.095   1.686 -0.3560  0.5450  0.3927
   36MOL    H5910629   2.129   6.252   1.510 -1.1245  0.7458  1.7555
   36MOL    H6010630   1.986   6.157   1.488  0.4928  0.5606 -1.9630
   36MOL    H6110631   2.148   6.089   1.451  1.2707  2.6154 -0.7051
   36MOL    C6210632   1.915   5.701   1.699 -0.0738  0.6134 -0.4257
   36MOL    C6310633   1.820   5.575   1.693  0.2982 -0.2110 -0.5463
   36MOL    C6410634   1.761   5.536   1.828 -0.0321 -0.0311 -0.1826
   36MOL    O6510635   1.714   5.425   1.848  0.4057  0.2721  0.5557
   36MOL    O6610636   1.744   5.643   1.908  0.3430 -0.2685  0.1058
   36MOL    C6710637   1.676   5.614   2.027  0.1384  0.1869  0.1799
   36MOL    C6810638   1.640   5.744   2.094  0.1380 -0.4302 -0.1143
   36MOL    H6910639   1.989   5.700   1.619 -0.5830  1.0139 -0.9072
   36MOL    H7010640   1.965   5.707   1.796 -0.9801  0.2958  0.0600
   36MOL    H7110641   1.740   5.600   1.623  0.7749  0.8680 -0.7096
   36MOL    H7210642   1.583   5.575   1.986  0.3778  1.3331 -1.5075
   36MOL    H7310643   1.731   5.543   2.089  2.6219  1.3671 -0.6214
   36MOL    H7410644   1.573   5.723   2.178 -0.6067 -0.4038 -0.6958
   36MOL    H7510645   1.587   5.809   2.025  0.2768 -1.1809 -0.9410
   36MOL    H7610646   1.732   5.795   2.124 -1.0839  1.8772 -0.2588
   36MOL    C7710647   1.900   5.455   1.633  0.3634 -0.0117  0.4316
   36MOL    C7810648   1.945   5.478   1.479  0.3601 -0.0580  0.2977
   36MOL    C7910649   1.835   5.508   1.378  0.0085  0.2166  0.0300
   36MOL    O8010650   1.721   5.465   1.384 -0.0397 -0.1085 -1.1920
   36MOL    O8110651   1.872   5.580   1.276 -0.3764 -0.9068  0.1692
   36MOL    C8210652   1.790   5.595   1.156  0.6252  0.1205  0.2564
   36MOL    C8310653   1.877   5.508   1.062  0.2848 -0.2097  0.1369
   36MOL    H8410654   1.985   5.443   1.700 -0.4599  1.2228  1.7148
   36MOL    H8510655   1.852   5.357   1.637 -0.5658  0.5068  2.7985
   36MOL    H8610656   2.006   5.568   1.477  0.1961  0.0525  0.2090
   36MOL    H8710657   1.690   5.552   1.161  0.7601 -0.1365  0.8769
   36MOL    H8810658   1.781   5.702   1.139 -0.2955  0.2842  1.6830
   36MOL    H8910659   1.878   5.552   0.962 -1.4383  0.8762  0.5713
   36MOL    H9010660   1.846   5.404   1.060 -0.0287 -0.1129 -0.0836
   36MOL    H9110661   1.984   5.520   1.079  0.1982 -0.9548  1.2640
   36MOL    C9210662   2.046   5.365   1.436  0.1710  0.4738 -0.2549
   36MOL    C9310663   2.147   5.407   1.327  0.9618 -0.6016 -0.7564
   36MOL    C9410664   2.186   5.301   1.232  0.5767 -0.2495 -0.1587
   36MOL    O9510665   2.159   5.306   1.112 -0.0139 -0.2203  0.0292
   36MOL    O9610666   2.236   5.197   1.294 -0.1667  0.0984  0.0788
   36MOL    C9710667   2.259   5.080   1.224 -0.7305 -0.5167 -0.4456
   36MOL    C9810668   2.300   4.974   1.327 -0.2150  0.5299  0.3297
   36MOL    H9910669   2.104   5.348   1.527 -0.2512 -0.0065 -0.0709
   36MOL   H10010670   1.983   5.279   1.412  0.7627 -0.4431  1.3810
   36MOL   H10110671   2.093   5.480   1.266 -1.3790 -0.5945  1.2776
   36MOL   H10210672   2.178   5.045   1.159  1.0280 -3.1912 -1.3260
   36MOL   H10310673   2.344   5.111   1.163  0.8295 -1.3275  1.2730
   36MOL   H10410674   2.383   5.005   1.390  0.6386 -1.0179 -0.0008
   36MOL   H10510675   2.330   4.886   1.270  1.5133  1.7403 -0.6526
   36MOL   H10610676   2.221   4.944   1.396  1.0369 -0.5776  1.3209
   36MOL   C10710677   2.265   5.485   1.385 -0.2079 -0.0069  0.3236
   36MOL   C10810678   2.369   5.540   1.284  0.1022  0.0516 -0.0739
   36MOL   C10910679   2.507   5.580   1.355  0.3952 -0.6110  0.2460
   36MOL   O11010680   2.502   5.621   1.470 -0.1641  0.1259 -0.0011
   36MOL   O11110681   2.614   5.567   1.282 -0.5771  0.1865 -0.4191
   36MOL   C11210682   2.746   5.590   1.343 -0.2320 -0.1410 -0.2616
   36MOL   C11310683   2.798   5.479   1.432 -0.1780  0.7175 -0.4578
   36MOL   H11410684   2.234   5.563   1.455 -1.2934 -0.5371  0.4533
   36MOL   H11510685   2.313   5.409   1.446 -0.3763 -1.8867 -1.8183
   36MOL   H11610686   2.400   5.453   1.227  1.7020  0.3316  0.3494
   36MOL   H11710687   2.821   5.618   1.269 -1.2471 -1.0085 -1.6218
   36MOL   H11810688   2.754   5.682   1.402 -0.6680 -0.0661 -0.3230
   36MOL   H11910689   2.904   5.480   1.457 -0.3990 -0.6089  0.6088
   36MOL   H12010690   2.776   5.380   1.392  1.3396 -0.5074  1.6147
   36MOL   H12110691   2.757   5.480   1.533  0.1261  1.7858 -0.3310
   36MOL   C12210692   2.323   5.642   1.178 -0.2616  0.5218  0.0032
   36MOL   C12310693   2.293   5.781   1.240  0.4718  0.5282  0.1054
   36MOL   C12410694   2.145   5.798   1.278  0.0523 -0.2998 -0.1369
   36MOL   O12510695   2.104   5.799   1.393 -0.3232  0.7151  0.0973
   36MOL   O12610696   2.065   5.825   1.170 -0.2988 -0.0290  0.8639
   36MOL   C12710697   1.959   5.912   1.185 -0.1723 -0.7849  0.1381
   36MOL   C12810698   2.003   6.055   1.159 -0.4369 -0.3154 -0.0511
   36MOL   H12910699   2.404   5.652   1.106  0.1346 -0.3725  0.3108
   36MOL   H13010700   2.235   5.610   1.122 -0.1604 -0.0505  0.1671
   36MOL   H13110701   2.334   5.791   1.340 -2.3680 -1.3630  1.5399
   36MOL   H13210702   1.873   5.883   1.126 -1.5317  1.6625  0.8863
   36MOL   H13310703   1.925   5.921   1.288  0.0778  1.5250  0.0369
   36MOL   H13410704   2.025   6.073   1.053 -1.3146  0.3057 -0.1256
   36MOL   H13510705   2.095   6.074   1.214  2.0284 -3.0249 -3.0104
   36MOL   H13610706   1.919   6.123   1.170 -1.0885 -1.1293  0.0546
   36MOL   C13710707   2.345   5.911   1.165 -0.1158  0.0317  0.0343
   36MOL   C13810708   2.493   5.922   1.139  0.0486  0.1005  0.2218
   36MOL   C13910709   2.581   5.937   1.267 -0.3263  0.0957 -0.2829
   36MOL   O14010710   2.697   5.917   1.264  0.3556 -0.3898  0.0516
   36MOL   O14110711   2.511   5.965   1.378 -0.3324  0.5320  0.0889
   36MOL   C14210712   2.572   5.957   1.505 -0.2086 -0.3995 -0.3240
   36MOL   C14310713   2.456   5.970   1.605  0.5733 -0.4175  0.4632
   36MOL   H14410714   2.296   5.911   1.068 -2.1349 -0.8495  1.0167
   36MOL   H14510715   2.313   5.998   1.222  2.3139  0.3956  0.9087
   36MOL   H14610716   2.518   5.825   1.095  0.5070  0.8850 -1.2711
   36MOL   H14710717   2.612   5.857   1.522 -0.1960 -0.2831  0.3497
   36MOL   H14810718   2.643   6.038   1.518 -1.6006  1.0976 -1.9405
   36MOL   H14910719   2.492   5.974   1.708 -0.3613 -0.2983  0.7872
   36MOL   H15010720   2.387   5.888   1.591 -1.9757  1.3169  2.2811
   36MOL   H15110721   2.406   6.065   1.588 -0.8909 -1.3154 -0.2512
   36MOL   C15210722   2.524   6.021   1.033 -0.1806  0.7553  1.3033
   36MOL   C15310723   2.549   5.961   0.885 -0.4521  0.0444  0.2757
   36MOL   C15410724   2.674   5.878   0.868  0.4570 -0.0722  0.7715
   36MOL   O15510725   2.788   5.931   0.846  0.3646  0.3227 -1.1251
   36MOL   O15610726   2.653   5.748   0.905 -0.0687 -0.4453  0.0769
   36MOL   C15710727   2.755   5.674   0.962 -0.5290 -0.1323 -0.2364
   36MOL   C15810728   2.835   5.591   0.855 -1.0079  0.7983  0.6038
   36MOL   H15910729   2.449   6.100   1.033 -2.3804 -1.2651 -0.0477
   36MOL   H16010730   2.622   6.064   1.052  0.8490 -0.9172 -0.0657
   36MOL   H16110731   2.475   5.885   0.859  1.0066 -1.8450  1.5077
   36MOL   H16210732   2.825   5.738   1.015 -1.0273 -0.3430  0.6712
   36MOL   H16310733   2.730   5.602   1.039  0.1879 -1.1581 -0.9433
   36MOL   H16410734   2.770   5.518   0.806  0.2441 -0.0601  0.2177
   36MOL   H16510735   2.919   5.546   0.907 -1.6831 -0.2523  0.7967
   36MOL   H16610736   2.871   5.664   0.783  1.1016 -1.4822 -0.7146
   36MOL   C16710737   2.540   6.072   0.782 -0.3545 -0.7475  0.7659
   36MOL   C16810738   2.536   6.035   0.635  0.3302  0.9850  0.9062
   36MOL   C16910739   2.514   6.156   0.540 -0.6077  0.2165  0.1853
   36MOL   O17010740   2.418   6.231   0.553  0.2763  0.0392 -0.2306
   36MOL   O17110741   2.604   6.164   0.448  0.4989 -0.1110 -0.4918
   36MOL   C17210742   2.602   6.272   0.356 -0.3564 -0.4449 -0.1897
   36MOL   C17310743   2.527   6.205   0.239  0.5033 -0.3568  0.4732
   36MOL   H17410744   2.447   6.124   0.807 -0.7523 -0.6352 -0.9030
   36MOL   H17510745   2.611   6.154   0.791 -1.0773 -0.0857  0.4566
   36MOL   H17610746   2.641   6.019   0.611 -0.0536  0.6930 -0.6270
   36MOL   H17710747   2.556   6.359   0.403  0.4360 -0.3436  0.4026
   36MOL   H17810748   2.708   6.287   0.334 -0.7887  3.7715  0.1976
   36MOL   H17910749   2.432   6.166   0.275 -1.0674  2.5928 -0.2620
   36MOL   H18010750   2.576   6.121   0.190 -1.4811 -1.0316 -0.4038
   36MOL   H18110751   2.496   6.265   0.153 -1.0251  0.3973  1.5359
   36MOL   C18210752   2.448   5.921   0.593  0.2297  0.4583  0.6148
   36MOL   C18310753   2.293   5.951   0.613 -0.2110 -0.2848 -0.2431
   36MOL   C18410754   2.229   5.885   0.740  0.1955  0.6051 -0.6377
   36MOL   O18510755   2.151   5.945   0.816 -0.1922 -0.2044 -0.1844
   36MOL   O18610756   2.260   5.752   0.745  0.5744  0.1951 -0.6220
   36MOL   C18710757   2.226   5.676   0.854 -0.1838  0.3525  0.0173
   36MOL   C18810758   2.123   5.576   0.803  0.0859 -0.3014 -0.4821
   36MOL   H18910759   2.484   5.900   0.492  2.6707  0.0656  1.5494
   36MOL   H19010760   2.489   5.830   0.636 -1.7886 -1.9255 -2.2584
   36MOL   H19110761   2.286   6.059   0.622 -0.4283 -0.3922  0.9509
   36MOL   H19210762   2.314   5.628   0.895  0.3674  1.1657 -0.1961
   36MOL   H19310763   2.189   5.738   0.936  1.9868 -1.4877  2.4301
   36MOL   H19410764   2.098   5.508   0.883 -1.7063 -0.1834 -0.9096
   36MOL   H19510765   2.163   5.514   0.723 -3.0003 -1.7946 -0.9309
   36MOL   H19610766   2.035   5.626   0.763  0.4535  0.9053  0.1746
   36MOL   C19710767   2.208   5.924   0.487  0.1539 -0.3753  0.3677
   36MOL   C19810768   2.166   5.778   0.464 -0.3759  0.9905  0.2871
   36MOL   C19910769   2.292   5.688   0.443  0.0591  0.5634  0.7950
   36MOL   O20010770   2.337   5.610   0.524  0.1379  0.0939  0.2364
   36MOL   O20110771   2.350   5.724   0.329 -0.3401  0.1490  0.2556
   36MOL   C20210772   2.471   5.665   0.282  0.0195 -1.4652 -0.2191
   36MOL   C20310773   2.426   5.539   0.209  0.2126 -0.4489 -0.3568
   36MOL   H20410774   2.121   5.990   0.483  1.6725  1.6268 -0.8395
   36MOL   H20510775   2.252   5.967   0.397  2.8887  1.9773  2.7092
   36MOL   H20610776   2.128   5.746   0.561  0.3335 -0.5340  0.0716
   36MOL   H20710777   2.513   5.746   0.222  0.7977  0.0065  2.2156
   36MOL   H20810778   2.537   5.635   0.363  0.6529 -0.0074 -0.1738
   36MOL   H20910779   2.501   5.477   0.160 -0.1101  0.5072 -2.1167
   36MOL   H21010780   2.347   5.569   0.140 -1.0465 -1.3689  0.6649
   36MOL   H21110781   2.370   5.471   0.273  2.0249 -1.0934  0.5695
   36MOL   C21210782   2.053   5.751   0.360 -0.0091  0.7401  0.8172
   36MOL   C21310783   1.936   5.653   0.416  0.8576  0.0733 -0.0971
   36MOL   C21410784   1.972   5.504   0.419 -0.6103  0.5219 -0.3377
   36MOL   O21510785   2.019   5.450   0.518  0.5522 -0.1900  0.3919
   36MOL   O21610786   1.936   5.434   0.307 -0.1323 -0.0260  0.3489
   36MOL   C21710787   1.978   5.303   0.296  0.6876 -0.0338  0.3687
   36MOL   C21810788   1.857   5.214   0.301  0.4917  0.1972  0.3185
   36MOL   H21910789   2.009   5.848   0.339  2.6166  1.5288 -1.2753
   36MOL   H22010790   2.093   5.713   0.266  0.7226  1.0661  0.9948
   36MOL   H22110791   1.911   5.682   0.518  1.2063 -1.3174  0.4004
   36MOL   H22210792   2.024   5.273   0.201 -1.5597 -1.1581 -0.4268
   36MOL   H22310793   2.044   5.275   0.378 -1.0662 -2.9243  0.9085
   36MOL   H22410794   1.788   5.259   0.372 -0.1572  0.1351 -0.2710
   36MOL   H22510795   1.883   5.110   0.321  0.2174 -0.0647 -0.6536
   36MOL   H22610796   1.821   5.201   0.199 -0.9605 -0.0427  0.8528
   36MOL   C22710797   1.792   5.674   0.349 -0.5534  0.1767  0.1223
   36MOL   C22810798   1.729   5.815   0.351 -0.4634 -0.5374  0.0463
   36MOL   C22910799   1.685   5.851   0.496  0.4714 -0.7817  0.1419
   36MOL   O23010800   1.579   5.821   0.548 -0.0458 -0.1888 -0.3158
   36MOL   O23110801   1.784   5.925   0.562  0.1783  0.0441 -0.3524
   36MOL   C23210802   1.765   5.978   0.692 -0.8320  0.5052 -0.5367
   36MOL   C23310803   1.801   5.881   0.804 -0.3721 -0.6011 -0.3591
   36MOL   H23410804   1.786   5.641   0.245 -0.5148 -0.5643  0.3506
   36MOL   H23510805   1.725   5.601   0.394  1.5938 -2.1948 -0.4089
   36MOL   H23610806   1.811   5.883   0.328 -0.0378  0.1075  3.2494
   36MOL   H23710807   1.811   6.077   0.697  1.9045 -0.5976 -2.4035
   36MOL   H23810808   1.664   6.016   0.704  0.7896  5.0469 -0.3641
   36MOL   H23910809   1.908   5.861   0.797 -0.1328  0.9230 -1.2195
   36MOL   H24010810   1.742   5.789   0.807  0.5558 -1.2325 -0.9912
   36MOL   H24110811   1.809   5.927   0.902  0.0119  0.3608 -0.8365
   36MOL   C24210812   1.607   5.827   0.244  0.4441  0.2065 -0.1976
   36MOL   C24310813   1.612   5.959   0.166  0.5016 -0.3079  0.2483
   36MOL   C24410814   1.607   6.092   0.252 -0.5264  0.2993  0.0151
   36MOL   O24510815   1.709   6.156   0.270 -0.1065 -0.4186  0.5436
   36MOL   O24610816   1.480   6.119   0.305  0.1378 -0.4661  0.7097
   36MOL   C24710817   1.455   6.237   0.377 -0.3055  0.8801 -0.6778
   36MOL   C24810818   1.369   6.313   0.278  0.0498  0.1229  0.7292
   36MOL   H24910819   1.596   5.742   0.177 -0.1228 -2.1339  2.7421
   36MOL   H25010820   1.517   5.824   0.305  1.0960  0.7179  0.8140
   36MOL   H25110821   1.710   5.969   0.121  0.3726 -2.4693 -0.6059
   36MOL   H25210822   1.416   6.217   0.476  0.9288 -0.1405 -0.3867
   36MOL   H25310823   1.550   6.288   0.391 -0.5420  1.1383  0.0083
   36MOL   H25410824   1.332   6.401   0.330 -1.6635 -1.1186  1.6793
   36MOL   H25510825   1.285   6.256   0.239 -1.5801  2.5585  0.5746
   36MOL   H25610826   1.427   6.339   0.189  0.4893 -0.7434  0.7610
   36MOL   C25710827   1.496   5.963   0.052  0.2923 -1.0101  0.1433
   36MOL   C25810828   1.507   6.084   7.862  0.4546  0.2080  0.7079
   36MOL   C25910829   1.381   6.094   7.779  0.3570  0.3356  0.2442
   36MOL   O26010830   1.307   6.187   7.794 -0.4324 -0.5146 -0.0228
   36MOL   O26110831   1.367   6.002   7.685 -0.4030 -0.0147 -0.1041
   36MOL   C26210832   1.280   5.999   7.571  0.1462  0.1008  0.5979
   36MOL   C26310833   1.234   5.857   7.538 -0.9452 -0.2025 -0.0155
   36MOL   H26410834   1.504   5.870   7.903  0.4292 -1.1939  0.4600
   36MOL   H26510835   1.398   5.981   0.096  0.9314  0.0285  1.1678
   36MOL   H26610836   1.513   6.183   0.000  1.3621 -0.4616  2.0400
   36MOL   H26710837   1.189   6.051   7.600  0.1160  0.1552  0.4034
   36MOL   H26810838   1.327   6.050   7.487  1.4170 -0.8524  0.7018
   36MOL   H26910839   1.157   5.867   7.461 -1.0915  0.6251  0.2313
   36MOL   H27010840   1.180   5.823   7.626  1.0859 -0.3146  1.2287
   36MOL   H27110841   1.318   5.792   7.512 -0.1018  1.8489 -2.6066
   36MOL   C27210842   1.628   6.082   7.765  0.4323 -0.0793 -0.7930
   36MOL   C27310843   1.748   6.177   7.802 -0.2231  0.1975  0.0346
   36MOL   C27410844   1.719   6.325   7.810 -0.5727 -0.1317 -0.3116
   36MOL   O27510845   1.637   6.375   7.733 -0.0587  0.3101  0.0388
   36MOL   O27610846   1.797   6.393   7.900  0.4198 -0.0925  0.3078
   36MOL   C27710847   1.762   6.524   0.022 -0.3664  0.1070 -0.1142
   36MOL   C27810848   1.746   6.531   0.170 -0.1747 -0.0675 -0.6080
   36MOL   H27910849   1.672   5.983   7.763 -0.9931 -0.7143 -2.7864
   36MOL   H28010850   1.603   6.094   7.660 -2.9561  0.0356 -0.0340
   36MOL   H28110851   1.780   6.144   7.901 -0.4472 -1.2893 -0.3749
   36MOL   H28210852   1.836   6.593   7.890 -0.8529  1.0867  0.6443
   36MOL   H28310853   1.675   6.557   7.872 -1.4089  1.1560  1.9935
   36MOL   H28410854   1.831   6.518   0.236 -0.1148 -0.2571 -0.7191
   36MOL   H28510855   1.669   6.463   0.208  0.8496 -1.3062 -0.7129
   36MOL   H28610856   1.712   6.630   0.199  2.4485  0.3645  1.0615
   36MOL   C28710857   1.878   6.151   7.718 -0.3710 -0.1339  0.5117
   36MOL   C28810858   1.940   6.016   7.714 -0.5931  0.2027 -0.5835
   36MOL   C28910859   1.987   5.959   7.847 -0.4934 -0.4324 -0.1092
   36MOL   O29010860   1.911   5.882   0.002 -0.3473 -1.2289 -0.6544
   36MOL   O29110861   2.124   5.982   7.871  0.1617  0.0363 -0.6401
   36MOL   C29210862   2.190   5.906   0.064  0.4112 -0.5042 -0.2366
   36MOL   C29310863   2.332   5.967   0.077  0.2195  0.2912  0.0375
   36MOL   H29410864   1.861   6.171   7.612  0.5346 -0.1432  0.3540
   36MOL   H29510865   1.951   6.218   7.763  0.4288  0.3619 -1.4695
   36MOL   H29610866   1.863   5.958   7.663 -0.9231  0.1894 -0.0749
   36MOL   H29710867   2.128   5.894   0.153  0.0002  0.9491 -0.3119
   36MOL   H29810868   2.209   5.803   0.036  1.0604 -0.5324  0.2975
   36MOL   H29910869   2.377   5.938   0.172 -2.0667 -2.1442  0.4207
   36MOL   H30010870   2.330   6.076   0.087  0.8747  0.3397 -0.3453
   36MOL   H30110871   2.384   5.945   7.892 -1.4018 -2.8712 -0.1973
   36MOL   H30210872   2.023   6.008   7.644  1.2941 -2.1459  1.7999
   37MOL     C110873   2.283   5.180   0.788 -0.1978  0.2471  0.2147
   37MOL     C210874   2.159   5.089   0.750 -0.5677  0.1422  0.1583
   37MOL     C310875   2.179   5.022   0.618 -0.3961 -0.1769 -0.1453
   37MOL     O410876   2.167   5.081   0.513  0.2565 -0.6188  0.3309
   37MOL     O510877   2.180   4.888   0.631 -0.2182  0.0907 -0.7206
   37MOL     C610878   2.205   4.794   0.525  0.9772  1.4243 -0.3433
   37MOL     C710879   2.342   4.811   0.457  0.6430 -0.4482  0.0410
   37MOL     H810880   2.278   5.203   0.894  1.6416  2.8591 -0.1990
   37MOL     H910881   2.280   5.273   0.730  0.3297  0.8386  1.1306
   37MOL    H1010882   2.145   5.007   0.820  0.6667 -1.9360 -1.9215
   37MOL    H1110883   2.210   4.693   0.567  2.4509  1.5343 -0.2165
   37MOL    H1210884   2.129   4.805   0.448 -1.7600  0.7201  2.1497
   37MOL    H1310885   2.370   4.727   0.392 -0.8683 -1.4500  0.6616
   37MOL    H1410886   2.424   4.809   0.529  1.2914  2.4654 -0.5863
   37MOL    H1510887   2.358   4.906   0.407  1.3817 -0.8135 -0.4240
   37MOL    H1610888   2.381   5.137   0.769 -0.7316 -1.0443  0.3873
   37MOL    C1710889   2.034   5.168   0.765 -0.5147  0.0756 -0.4695
   37MOL    C1810890   1.895   5.104   0.729 -0.0053  0.5576 -0.1184
   37MOL    C1910891   1.785   5.202   0.760 -0.1503  0.0234 -0.1290
   37MOL    O2010892   1.740   5.212   0.875  0.1229 -0.0254 -0.2650
   37MOL    O2110893   1.735   5.266   0.653 -0.0014  0.2014  0.3458
   37MOL    C2210894   1.618   5.344   0.683  0.5297 -0.5640  0.7196
   37MOL    C2310895   1.661   5.492   0.686 -0.6096  0.3660  0.0483
   37MOL    H2410896   2.024   5.220   0.860  2.5843 -0.4768  0.1933
   37MOL    H2510897   2.044   5.255   0.701 -2.1378  1.3178  0.9179
   37MOL    H2610898   1.899   5.096   0.621  2.5793  0.6487 -0.0467
   37MOL    H2710899   1.548   5.329   0.601  1.5249  1.9354 -0.6484
   37MOL    H2810900   1.556   5.326   0.771  1.1421  0.0706  1.2833
   37MOL    H2910901   1.732   5.517   0.765 -0.1780 -3.2379  0.8563
   37MOL    H3010902   1.578   5.560   0.703 -0.9365 -0.3920  1.4756
   37MOL    H3110903   1.703   5.523   0.590  0.2174  0.1849  0.3464
   37MOL    C3210904   1.861   4.960   0.784 -0.0481 -0.0774  0.6385
   37MOL    C3310905   1.836   4.862   0.663  0.1283 -0.3286 -0.0938
   37MOL    C3410906   1.732   4.889   0.559  0.4258  0.5193  0.4719
   37MOL    O3510907   1.752   4.913   0.438  0.7594  0.6085  0.3345
   37MOL    O3610908   1.601   4.875   0.606 -0.1095  0.8925  0.1887
   37MOL    C3710909   1.493   4.894   0.520 -0.1416  0.0372 -0.4816
   37MOL    C3810910   1.478   5.038   0.477 -0.3851  0.2438 -0.1893
   37MOL    H3910911   1.949   4.922   0.836 -1.2348 -0.6629  2.2583
   37MOL    H4010912   1.778   4.961   0.855  3.1230 -0.0051  4.5584
   37MOL    H4110913   1.928   4.875   0.606  0.1855  3.1458  0.6582
   37MOL    H4210914   1.503   4.835   0.429 -0.3944 -1.1923  0.2843
   37MOL    H4310915   1.400   4.850   0.555 -0.0572 -0.8242 -1.3009
   37MOL    H4410916   1.430   5.047   0.380 -1.8876  1.9014  0.6655
   37MOL    H4510917   1.573   5.085   0.453 -1.8461  4.0556  1.1357
   37MOL    H4610918   1.445   5.103   0.559  0.4351 -2.9093  2.7741
   37MOL    C4710919   1.819   4.715   0.718 -0.0896 -0.3317  0.5174
   37MOL    C4810920   1.815   4.607   0.605 -0.7361  0.5678  0.4812
   37MOL    C4910921   1.674   4.561   0.565  0.6053  0.4925  0.1829
   37MOL    O5010922   1.647   4.526   0.448 -0.0217 -0.1885  0.3305
   37MOL    O5110923   1.588   4.544   0.671 -0.2374  0.5415 -0.1164
   37MOL    C5210924   1.466   4.478   0.650 -0.1030  0.0152  0.3577
   37MOL    C5310925   1.355   4.574   0.620 -0.0865  0.1112  0.4605
   37MOL    H5410926   1.907   4.696   0.779  0.6069 -0.4476 -0.5055
   37MOL    H5510927   1.725   4.701   0.771 -1.0050  0.0312 -0.9779
   37MOL    H5610928   1.864   4.653   0.520 -1.2920 -1.8969 -1.2272
   37MOL    H5710929   1.464   4.400   0.574  0.4476  0.1750  0.1769
   37MOL    H5810930   1.446   4.415   0.736  0.0435 -0.3056  0.1586
   37MOL    H5910931   1.256   4.529   0.613 -0.0599 -0.0169  0.8815
   37MOL    H6010932   1.364   4.633   0.529  0.7532  0.7377  0.9432
   37MOL    H6110933   1.354   4.630   0.714  1.8016  1.4481 -0.2943
   37MOL    C6210934   1.896   4.483   0.656 -0.2344  0.2269  0.4873
   37MOL    C6310935   2.035   4.470   0.598 -1.3590  0.2617 -0.4487
   37MOL    C6410936   2.043   4.453   0.438  0.0704 -0.3175  0.8364
   37MOL    O6510937   2.122   4.519   0.371 -0.6187 -0.5557 -0.0044
   37MOL    O6610938   1.949   4.360   0.391 -0.2982  0.6138 -0.0228
   37MOL    C6710939   1.923   4.335   0.253  0.1182 -0.2991 -0.3252
   37MOL    C6810940   1.783   4.291   0.217 -0.2512  0.6393 -0.5164
   37MOL    H6910941   1.900   4.486   0.765  1.2535 -1.6402  0.5100
   37MOL    H7010942   1.844   4.392   0.625  0.2556  0.3603 -0.7237
   37MOL    H7110943   2.089   4.563   0.619 -1.3292 -0.5092  3.1690
   37MOL    H7210944   1.946   4.423   0.193 -0.7735  1.5298  1.9255
   37MOL    H7310945   1.995   4.257   0.226  1.4020  0.6740  0.2269
   37MOL    H7410946   1.758   4.271   0.112  1.2941 -1.7612 -0.4716
   37MOL    H7510947   1.706   4.362   0.248  0.5544 -0.0975  3.3603
   37MOL    H7610948   1.764   4.200   0.274 -0.0326  1.2922  0.6126
   37MOL    C7710949   2.103   4.346   0.659 -0.9666 -0.5803  0.0540
   37MOL    C7810950   2.125   4.344   0.813 -0.3125 -0.1489  0.0171
   37MOL    C7910951   2.200   4.472   0.862  0.3158  0.0745 -0.1799
   37MOL    O8010952   2.290   4.528   0.793  0.3579  0.2245 -0.3076
   37MOL    O8110953   2.148   4.518   0.979 -0.1864 -0.2780  0.1741
   37MOL    C8210954   2.214   4.626   1.039 -0.4801 -0.2439 -0.1716
   37MOL    C8310955   2.144   4.757   0.995  0.2173 -0.3840  0.0356
   37MOL    H8410956   2.046   4.258   0.629 -1.6092 -0.3396  0.5443
   37MOL    H8510957   2.197   4.319   0.612 -0.5251  0.9538  0.0293
   37MOL    H8610958   2.023   4.333   0.850 -1.2899 -1.4039 -2.8400
   37MOL    H8710959   2.207   4.619   1.148  1.6070  0.3332  0.0044
   37MOL    H8810960   2.320   4.642   1.020 -0.5468  0.8732  0.3600
   37MOL    H8910961   2.035   4.749   0.993  0.4434 -4.5848  0.6415
   37MOL    H9010962   2.172   4.783   0.893  0.2419  0.6069  0.2895
   37MOL    H9110963   2.179   4.833   1.066 -0.4857  1.3473 -1.4322
   37MOL    C9210964   2.203   4.213   0.859 -0.0637 -0.4980  0.3926
   37MOL    C9310965   2.231   4.205   1.010 -0.6100 -0.1573  0.2663
   37MOL    C9410966   2.341   4.109   1.048  0.4345 -0.5344 -0.5610
   37MOL    O9510967   2.392   4.027   0.974 -0.2899 -0.0887 -0.1871
   37MOL    O9610968   2.381   4.134   1.175 -0.2565  0.2977 -0.6026
   37MOL    C9710969   2.485   4.056   1.233  0.7455  0.4256 -0.2752
   37MOL    C9810970   2.528   4.118   1.365  0.2830  0.3414 -0.4564
   37MOL    H9910971   2.152   4.126   0.821 -0.5436 -0.1870  0.3255
   37MOL   H10010972   2.304   4.212   0.818 -0.1065  1.7051  0.1498
   37MOL   H10110973   2.268   4.302   1.045  2.1287 -0.7806 -0.7362
   37MOL   H10210974   2.445   3.957   1.256  1.2176  0.0127 -1.1771
   37MOL   H10310975   2.569   4.050   1.163  2.3382 -1.7912  1.7394
   37MOL   H10410976   2.566   4.218   1.346 -0.4444 -0.0052 -4.1266
   37MOL   H10510977   2.608   4.056   1.404 -1.0954 -0.1824  1.6221
   37MOL   H10610978   2.450   4.125   1.441 -0.6930  1.6979 -1.5476
   37MOL   C10710979   2.098   4.151   1.078 -0.1628  0.1648  0.4602
   37MOL   C10810980   2.083   4.180   1.227 -0.0004  0.7133  1.1398
   37MOL   C10910981   1.963   4.093   1.278 -0.4378  0.0688  0.1013
   37MOL   O11010982   1.983   3.978   1.316 -0.2766 -0.3436  0.4742
   37MOL   O11110983   1.847   4.159   1.252  0.5207  0.5840 -0.5444
   37MOL   C11210984   1.728   4.114   1.306 -0.1354  0.4386 -0.1549
   37MOL   C11310985   1.733   4.141   1.452 -0.5300 -0.5378  0.2384
   37MOL   H11410986   2.009   4.191   1.030 -0.2692 -2.4300 -1.6616
   37MOL   H11510987   2.106   4.044   1.056 -1.4724  0.3561 -1.0241
   37MOL   H11610988   2.168   4.135   1.278  0.5935  0.3786 -0.1102
   37MOL   H11710989   1.639   4.158   1.261 -0.5530 -0.3600 -0.1168
   37MOL   H11810990   1.733   4.005   1.303 -0.5299  0.4012  0.4229
   37MOL   H11910991   1.635   4.116   1.491 -0.5196  0.7110  1.0588
   37MOL   H12010992   1.760   4.246   1.462 -0.9158 -0.3982 -0.1672
   37MOL   H12110993   1.802   4.072   1.503 -0.5268 -0.8739 -0.2171
   37MOL   C12210994   2.079   4.328   1.268  0.3614 -0.0571  0.2441
   37MOL   C12310995   2.056   4.359   1.418 -0.3032 -0.0457  0.3417
   37MOL   C12410996   2.001   4.504   1.434  0.2011  0.2991  0.7606
   37MOL   O12510997   2.062   4.601   1.399 -0.2807 -0.6620 -0.1892
   37MOL   O12610998   1.878   4.505   1.472  0.4582 -0.0899  0.5727
   37MOL   C12710999   1.811   4.632   1.489  0.3275  0.2981  0.3760
   37MOL   C12811000   1.737   4.683   1.365 -0.2746 -0.0897  0.6171
   37MOL   H12911001   2.171   4.375   1.236 -0.4973  0.7366 -1.1140
   37MOL   H13011002   2.003   4.378   1.207 -0.6218 -2.1575 -0.3152
   37MOL   H13111003   1.980   4.295   1.465  0.8745 -0.6546  1.4457
   37MOL   H13211004   1.733   4.613   1.563  2.2393 -1.2605  2.0780
   37MOL   H13311005   1.867   4.715   1.531 -0.5595  0.5316  1.1049
   37MOL   H13411006   1.694   4.782   1.381  3.7674  2.1086 -1.2110
   37MOL   H13511007   1.656   4.616   1.338 -0.1589 -0.8712  2.1601
   37MOL   H13611008   1.799   4.699   1.276  0.0482  0.4537  0.9342
   37MOL   C13711009   2.181   4.317   1.504  0.2474  0.2197 -0.3744
   37MOL   C13811010   2.148   4.294   1.656  0.5911 -0.5117  0.0452
   37MOL   C13911011   2.258   4.346   1.745 -0.7337  0.1611  0.5225
   37MOL   O14011012   2.368   4.292   1.748  0.1009 -0.3400  0.1723
   37MOL   O14111013   2.233   4.464   1.800 -0.8402  0.1554 -0.1214
   37MOL   C14211014   2.323   4.521   1.891  0.7851  0.1922  0.1745
   37MOL   C14311015   2.269   4.656   1.929  0.5302 -0.6196  0.4647
   37MOL   H14411016   2.218   4.224   1.463 -0.7136  0.9303 -2.9143
   37MOL   H14511017   2.265   4.387   1.495 -0.1911  0.7964 -0.0362
   37MOL   H14611018   2.056   4.353   1.663  1.0537  0.2913 -0.7315
   37MOL   H14711019   2.335   4.464   1.983 -1.7591 -1.1601 -0.2673
   37MOL   H14811020   2.424   4.526   1.852  0.3418  2.1817 -0.8197
   37MOL   H14911021   2.171   4.641   1.975  0.3885 -0.7141  0.1393
   37MOL   H15011022   2.243   4.725   1.849 -1.3438  0.8482  2.2767
   37MOL   H15111023   2.324   4.717   1.999 -0.0112  0.2830  0.1137
   37MOL   C15211024   2.119   4.138   1.688  0.1310 -0.6165 -0.3970
   37MOL   C15311025   2.043   4.094   1.817 -0.2325  0.9516 -0.2021
   37MOL   C15411026   1.894   4.142   1.822  0.3613 -0.4810  0.7318
   37MOL   O15511027   1.807   4.056   1.818  0.1634 -0.2597 -0.0498
   37MOL   O15611028   1.872   4.275   1.827 -0.1455  0.0529 -0.0538
   37MOL   C15711029   1.737   4.309   1.823 -0.3704 -0.4086 -0.2207
   37MOL   C15811030   1.724   4.456   1.865 -0.2992 -0.0537 -0.7109
   37MOL   H15911031   2.068   4.100   1.600  0.4765  0.5497 -1.1115
   37MOL   H16011032   2.210   4.079   1.682  1.6414  1.6625 -0.6927
   37MOL   H16111033   2.045   3.985   1.823  1.5686  1.0401  1.4865
   37MOL   H16211034   1.697   4.286   1.724 -0.4498 -2.8736  0.3481
   37MOL   H16311035   1.677   4.247   1.890  0.4630  0.1131  1.0408
   37MOL   H16411036   1.776   4.527   1.801 -0.7341  1.6347  0.7515
   37MOL   H16511037   1.769   4.462   1.964 -2.9790 -0.6228  0.5881
   37MOL   H16611038   1.620   4.490   1.870  0.0281  0.8521  0.1518
   37MOL   C16711039   2.123   4.135   1.942  0.0549  0.5968  0.4840
   37MOL   C16811040   2.071   4.086   2.081  0.2901 -0.2714  0.1189
   37MOL   C16911041   2.107   4.188   2.184  0.1209  0.0528 -0.1772
   37MOL   O17011042   2.184   4.174   2.279 -0.3133  0.8886 -0.3915
   37MOL   O17111043   2.051   4.305   2.162  0.0831 -0.1695 -0.1776
   37MOL   C17211044   2.068   4.425   2.247  0.5448 -0.2043 -0.1895
   37MOL   C17311045   1.958   4.527   2.191 -0.2299  0.7142  0.1341
   37MOL   H17411046   2.230   4.137   1.921 -0.6915  0.2953 -3.8420
   37MOL   H17511047   2.121   4.244   1.932 -1.8306  0.5207 -0.2293
   37MOL   H17611048   1.964   4.071   2.072  0.4826 -2.0639  0.6313
   37MOL   H17711049   2.032   4.404   2.347 -0.4675  1.0917 -0.2645
   37MOL   H17811050   2.172   4.455   2.252  0.3113  0.9233 -1.6643
   37MOL   H17911051   1.937   4.612   2.256  0.5223  2.4487 -1.8500
   37MOL   H18011052   1.865   4.472   2.175  1.1213 -1.7544  0.5096
   37MOL   H18111053   1.977   4.566   2.091 -0.7064 -0.6270 -0.5007
   37MOL   C18211054   2.138   3.946   2.119  0.2428  0.3949 -0.4434
   37MOL   C18311055   2.087   3.871   2.247  0.3437  0.0125  0.5506
   37MOL   C18411056   2.195   3.845   2.352 -0.2290 -0.2799  0.1258
   37MOL   O18511057   2.178   3.875   2.469 -0.2095 -0.4642 -0.3773
   37MOL   O18611058   2.303   3.771   2.297  0.2989 -0.8036 -0.5037
   37MOL   C18711059   2.414   3.729   2.378 -0.7562 -0.2430 -0.7276
   37MOL   C18811060   2.382   3.587   2.411  0.4622 -0.4776  0.1024
   37MOL   H18911061   2.139   3.882   2.030 -0.7371 -0.2823  0.0230
   37MOL   H19011062   2.244   3.968   2.125 -0.0746  1.7416  0.6035
   37MOL   H19111063   2.018   3.938   2.298 -0.0007 -0.2516  0.4319
   37MOL   H19211064   2.503   3.754   2.320 -1.6382  0.6849 -1.6985
   37MOL   H19311065   2.408   3.791   2.468 -2.0620  0.9147 -1.5903
   37MOL   H19411066   2.364   3.525   2.324  0.6124 -0.8855  0.3593
   37MOL   H19511067   2.294   3.572   2.474  0.7763  1.2970  1.0207
   37MOL   H19611068   2.468   3.547   2.464  1.4056 -0.2721 -1.2601
   37MOL   C19711069   2.017   3.736   2.205 -1.3704  0.4791  0.3350
   37MOL   C19811070   1.893   3.753   2.113  0.2225 -0.2873 -0.4751
   37MOL   C19911071   1.789   3.844   2.178  0.1427  0.1037  0.1080
   37MOL   O20011072   1.745   3.945   2.119 -0.2633 -0.0912  0.3558
   37MOL   O20111073   1.741   3.788   2.292 -0.1517 -0.4187  0.1967
   37MOL   C20211074   1.645   3.850   2.376  0.8151  0.4966  0.2921
   37MOL   C20311075   1.701   3.895   2.509 -0.3512 -0.3593  0.3287
   37MOL   H20411076   2.091   3.670   2.159  0.8904  2.7740  0.5450
   37MOL   H20511077   1.992   3.686   2.299  3.1029 -0.8865  0.9446
   37MOL   H20611078   1.922   3.807   2.023 -2.2329 -0.5263 -1.4361
   37MOL   H20711079   1.600   3.940   2.333  1.6072  0.4468 -0.6529
   37MOL   H20811080   1.566   3.776   2.389  0.3084  0.9768 -0.0203
   37MOL   H20911081   1.733   3.812   2.572  0.0578 -0.0249  0.5627
   37MOL   H21011082   1.647   3.966   2.571  2.3571  0.8960  1.3067
   37MOL   H21111083   1.790   3.954   2.491 -1.1143  0.7900  0.3173
   37MOL   C21211084   1.834   3.621   2.063 -0.2474 -0.0666  0.3838
   37MOL   C21311085   1.916   3.520   1.969 -0.0253 -0.0404 -0.4405
   37MOL   C21411086   1.950   3.594   1.830 -0.3022 -0.4160 -0.5798
   37MOL   O21511087   2.063   3.631   1.806 -0.0459 -0.1944 -0.0717
   37MOL   O21611088   1.844   3.627   1.759  0.1149 -0.5119 -0.2004
   37MOL   C21711089   1.863   3.730   1.661  0.2239  0.3469  0.0967
   37MOL   C21811090   1.720   3.762   1.598  0.1638 -0.6576 -0.2144
   37MOL   H21911091   1.795   3.565   2.148  0.1041  1.9967  1.9295
   37MOL   H22011092   1.755   3.662   1.999  1.1027  0.8013 -0.7564
   37MOL   H22111093   2.008   3.499   2.024 -0.6732 -0.8994  0.3273
   37MOL   H22211094   1.907   3.816   1.712  1.5498 -1.4074  2.0015
   37MOL   H22311095   1.935   3.707   1.583  2.1281  0.6879  1.7076
   37MOL   H22411096   1.659   3.817   1.669  0.0469 -1.1374  0.0618
   37MOL   H22511097   1.671   3.669   1.570 -0.9118 -0.3915  0.7610
   37MOL   H22611098   1.727   3.826   1.511 -1.7826 -2.2132 -1.5563
   37MOL   C22711099   1.847   3.384   1.943 -0.1155  0.5906 -0.9347
   37MOL   C22811100   1.943   3.264   1.932  0.0018 -0.0300  0.4878
   37MOL   C22911101   2.029   3.259   1.804  0.0242 -0.4675 -0.1658
   37MOL   O23011102   2.150   3.249   1.809 -0.2000 -0.1861  0.1740
   37MOL   O23111103   1.951   3.261   1.689 -0.2827  0.1412  0.2831
   37MOL   C23211104   2.009   3.266   1.565  0.0254 -0.4063 -0.2862
   37MOL   C23311105   1.915   3.337   1.468  0.8973 -0.1575  0.5876
   37MOL   H23411106   1.782   3.367   2.030  2.8610  0.4012  1.3322
   37MOL   H23511107   1.777   3.383   1.860  2.1630  2.2175 -2.9558
   37MOL   H23611108   2.006   3.265   2.020 -0.0067  0.4723  0.4856
   37MOL   H23711109   2.108   3.311   1.572 -0.5110  0.8111 -0.4204
   37MOL   H23811110   2.017   3.167   1.520 -0.3169 -0.6183  0.1218
   37MOL   H23911111   1.871   3.429   1.507 -0.1038 -1.2197  2.0015
   37MOL   H24011112   1.828   3.282   1.431  1.4522 -1.0769  0.6382
   37MOL   H24111113   1.972   3.351   1.376  0.1092 -1.3592 -0.0939
   37MOL   C24211114   1.859   3.127   1.945  0.6375  0.0636 -0.0590
   37MOL   C24311115   1.938   2.998   1.941 -0.0951  0.4742 -1.4349
   37MOL   C24411116   1.846   2.881   1.903  0.1690 -0.2396 -0.7991
   37MOL   O24511117   1.862   2.821   1.798 -0.3920  0.1812  0.0696
   37MOL   O24611118   1.752   2.849   1.995  0.0376 -0.3546 -0.5965
   37MOL   C24711119   1.642   2.767   1.964  0.4024 -0.6018 -0.4706
   37MOL   C24811120   1.519   2.830   1.896  0.4994  0.1900 -0.6141
   37MOL   H24911121   1.799   3.127   2.036  1.0811 -3.0252  0.2708
   37MOL   H25011122   1.788   3.125   1.863  0.4632  2.1481  0.0137
   37MOL   H25111123   2.008   3.005   1.858  1.0486  1.3868 -0.3990
   37MOL   H25211124   1.674   2.680   1.906 -0.8567 -1.4433  0.0805
   37MOL   H25311125   1.614   2.732   2.063 -1.3072  1.6690 -0.1222
   37MOL   H25411126   1.494   2.928   1.938 -0.6959 -0.3151 -0.1230
   37MOL   H25511127   1.433   2.765   1.913 -0.7772  1.6841 -1.2516
   37MOL   H25611128   1.529   2.842   1.788 -1.4928 -2.3773 -1.1181
   37MOL   C25711129   2.014   2.981   2.074  0.3635  0.2509 -0.0351
   37MOL   C25811130   2.144   2.899   2.073  0.0116  0.7654 -0.1920
   37MOL   C25911131   2.124   2.749   2.040 -0.1270  0.1798 -0.4367
   37MOL   O26011132   2.197   2.698   1.959  0.3976  0.1397  0.3845
   37MOL   O26111133   2.043   2.678   2.130 -0.2947  0.6054  0.2618
   37MOL   C26211134   2.015   2.541   2.111  0.2488 -0.3032  0.3484
   37MOL   C26311135   1.871   2.521   2.046 -1.4411 -0.0297 -0.2246
   37MOL   H26411136   2.035   3.081   2.112 -3.8803  0.6951  1.3848
   37MOL   H26511137   1.953   2.941   2.155  1.0141  0.8205  0.7486
   37MOL   H26611138   2.205   2.947   1.996 -0.1360  1.0385 -0.1398
   37MOL   H26711139   2.088   2.479   2.058  0.5520  0.0571  0.3380
   37MOL   H26811140   2.011   2.496   2.211 -0.1465 -1.7563 -0.3045
   37MOL   H26911141   1.834   2.419   2.057 -0.4656 -0.1466  2.4472
   37MOL   H27011142   1.871   2.550   1.941  0.6201  1.2338  0.1156
   37MOL   H27111143   1.804   2.588   2.100  1.0414  1.8211  0.6036
   37MOL   C27211144   2.225   2.908   2.207 -0.5829  0.2832 -0.8582
   37MOL   C27311145   2.267   3.052   2.264 -0.6912  0.0615  0.3856
   37MOL   C27411146   2.146   3.115   2.339 -0.2973 -0.1106 -0.5502
   37MOL   O27511147   2.082   3.048   2.420 -0.1078 -0.0083 -0.6874
   37MOL   O27611148   2.105   3.237   2.294  0.2971  0.2128  0.3403
   37MOL   C27711149   1.994   3.302   2.342 -0.6212 -0.5455 -0.1265
   37MOL   C27811150   2.027   3.387   2.461  1.1207  0.0375 -0.0425
   37MOL   H27911151   2.171   2.856   2.286  0.5837  1.0495  0.4510
   37MOL   H28011152   2.322   2.860   2.199 -1.1351 -1.1393  0.5637
   37MOL   H28111153   2.350   3.045   2.335 -1.8380  0.7053  1.8099
   37MOL   H28211154   1.949   3.362   2.263 -1.7449 -0.3140  0.6735
   37MOL   H28311155   1.914   3.234   2.373  0.3909 -0.7680  2.1420
   37MOL   H28411156   1.955   3.468   2.473  0.6560 -0.5660  1.3870
   37MOL   H28511157   2.126   3.432   2.451  0.3831  1.5811 -0.5636
   37MOL   H28611158   2.016   3.333   2.556 -0.4190  0.2200 -0.1028
   37MOL   C28711159   2.327   3.144   2.157 -0.0417 -0.1589  0.3459
   37MOL   C28811160   2.409   3.262   2.218  0.0812 -0.1186  0.1252
   37MOL   C28911161   2.483   3.352   2.113 -0.6941 -0.0893  0.3442
   37MOL   O29011162   2.606   3.336   2.103  0.1122 -0.2044 -0.0962
   37MOL   O29111163   2.414   3.436   2.039  0.2844 -0.3492  0.1848
   37MOL   C29211164   2.485   3.524   1.949  0.2079 -0.8645 -0.3382
   37MOL   C29311165   2.505   3.666   2.007 -0.1182 -0.5073  0.6241
   37MOL   H29411166   2.398   3.083   2.101  1.6110  1.9790  0.0084
   37MOL   H29511167   2.249   3.172   2.086  1.0216  1.8864 -0.0897
   37MOL   H29611168   2.338   3.322   2.275  1.6354  1.6180  0.2884
   37MOL   H29711169   2.578   3.485   1.907  0.4069  0.8719 -1.5490
   37MOL   H29811170   2.418   3.547   1.866 -0.4511 -1.4372  0.0249
   37MOL   H29911171   2.421   3.736   2.011 -0.7404 -1.2890  1.2112
   37MOL   H30011172   2.585   3.718   1.954 -1.1547  2.7581  2.1440
   37MOL   H30111173   2.547   3.667   2.107 -0.6977  1.0665  0.8728
   37MOL   H30211174   2.485   3.235   2.291  0.0099  3.6488  1.7161
   38MOL     C111175   0.563   4.880   2.761 -0.2938 -0.0509 -0.3832
   38MOL     C211176   0.688   4.805   2.809 -0.2832  0.3974 -0.3909
   38MOL     C311177   0.700   4.669   2.737  0.4438  0.9867  0.4795
   38MOL     O411178   0.811   4.629   2.701  0.0993 -0.5253 -0.3001
   38MOL     O511179   0.590   4.595   2.735  0.0307 -0.4927  0.0896
   38MOL     C611180   0.586   4.479   2.660 -0.4270 -0.9362 -0.0748
   38MOL     C711181   0.624   4.368   2.758 -0.3602  0.7304  0.3491
   38MOL     H811182   0.553   4.905   2.655 -4.1702 -0.5838 -0.2027
   38MOL     H911183   0.575   4.979   2.805 -1.7721  0.2373 -0.6169
   38MOL    H1011184   0.769   4.875   2.791  1.1585 -1.2901 -0.6102
   38MOL    H1111185   0.484   4.470   2.622 -0.7644  2.2452 -0.0598
   38MOL    H1211186   0.663   4.495   2.585  1.1040 -3.7875  0.8488
   38MOL    H1311187   0.545   4.352   2.832 -0.5709  1.4915  0.2986
   38MOL    H1411188   0.708   4.390   2.825 -0.3595 -1.9426  1.2653
   38MOL    H1511189   0.636   4.271   2.710 -0.2925  1.1907 -0.5753
   38MOL    H1611190   0.471   4.830   2.790 -0.2607 -2.0741 -3.4956
   38MOL    C1711191   0.686   4.773   2.957 -0.6981 -0.0866 -0.2981
   38MOL    C1811192   0.706   4.886   3.054 -0.1246 -0.3139 -0.5543
   38MOL    C1911193   0.837   4.966   3.031  0.3100 -0.1774 -0.2325
   38MOL    O2011194   0.950   4.929   3.078 -0.1475  0.3511 -0.2145
   38MOL    O2111195   0.823   5.066   2.940  0.3949  0.0811  0.0553
   38MOL    C2211196   0.936   5.145   2.902  0.0002  0.5237  0.0269
   38MOL    C2311197   0.967   5.274   2.981  0.8828 -0.4794  0.4233
   38MOL    H2411198   0.592   4.719   2.973  0.5346 -1.9002  1.0353
   38MOL    H2511199   0.767   4.702   2.972 -2.4595 -2.3813 -1.2937
   38MOL    H2611200   0.623   4.948   3.021  0.8025  1.1039 -0.2752
   38MOL    H2711201   1.025   5.084   2.918  2.5209  3.8164 -0.8290
   38MOL    H2811202   0.943   5.164   2.795 -0.0640 -0.2230 -0.1144
   38MOL    H2911203   0.889   5.348   2.964 -0.0171 -1.4870  0.0396
   38MOL    H3011204   1.065   5.307   2.945  0.8096  2.0232  2.4411
   38MOL    H3111205   0.976   5.246   3.086  3.6162  0.1925  0.4218
   38MOL    C3211206   0.693   4.834   3.197 -0.4583 -0.2752  0.3436
   38MOL    C3311207   0.561   4.758   3.238  0.7068  0.0941 -0.0514
   38MOL    C3411208   0.430   4.833   3.206 -0.3043  0.2068  0.4326
   38MOL    O3511209   0.337   4.771   3.149 -0.0579 -0.0382  0.2768
   38MOL    O3611210   0.434   4.957   3.238 -0.7481 -0.5048 -0.4049
   38MOL    C3711211   0.346   5.047   3.184  1.3979  0.4356  0.0154
   38MOL    C3811212   0.275   5.104   3.308 -0.3271 -0.9145 -0.0107
   38MOL    H3911213   0.781   4.778   3.227 -0.9607 -1.3113 -0.1132
   38MOL    H4011214   0.694   4.919   3.266  0.1080  0.8248 -0.9753
   38MOL    H4111215   0.567   4.661   3.188  0.1706  0.9731 -1.8668
   38MOL    H4211216   0.398   5.133   3.141 -2.1976  2.1457 -1.1120
   38MOL    H4311217   0.273   5.018   3.108  1.3754  2.2166 -0.6527
   38MOL    H4411218   0.247   5.209   3.304  0.2539 -0.7596 -0.0193
   38MOL    H4511219   0.318   5.081   3.406 -1.6691  0.8368  1.0174
   38MOL    H4611220   0.176   5.061   3.324  0.2413 -3.1770 -2.2936
   38MOL    C4711221   0.550   4.721   3.395 -0.2364 -0.7298 -0.1067
   38MOL    C4811222   0.668   4.632   3.447 -0.3321  0.6504 -0.7607
   38MOL    C4911223   0.666   4.502   3.366  0.4200 -0.2697 -0.5226
   38MOL    O5011224   0.765   4.465   3.311 -0.2084  0.0899 -0.1502
   38MOL    O5111225   0.552   4.436   3.376 -0.3899 -0.5068 -0.7930
   38MOL    C5211226   0.528   4.331   3.284 -0.0610  0.1764  0.3570
   38MOL    C5311227   0.468   4.385   3.147  0.0346  0.2876 -0.6441
   38MOL    H5411228   0.552   4.811   3.457  2.1177 -0.4156 -0.5901
   38MOL    H5511229   0.453   4.676   3.414 -1.0991  1.3720  0.6969
   38MOL    H5611230   0.766   4.676   3.428 -0.3846  1.1914  0.2038
   38MOL    H5711231   0.619   4.278   3.255 -0.2476 -0.3696  0.7613
   38MOL    H5811232   0.470   4.250   3.327 -0.4020  0.4356  0.3886
   38MOL    H5911233   0.416   4.301   3.100  0.3625  0.7146 -1.7832
   38MOL    H6011234   0.544   4.420   3.077  1.0398 -1.2590 -0.3636
   38MOL    H6111235   0.399   4.467   3.161  0.2983  0.1034  1.9093
   38MOL    C6211236   0.639   4.599   3.597 -0.0342  0.1093 -0.3016
   38MOL    C6311237   0.598   4.710   3.697  0.8814 -0.4596 -0.3650
   38MOL    C6411238   0.676   4.838   3.696 -0.0527 -0.0453 -0.6286
   38MOL    O6511239   0.781   4.845   3.635  0.2334 -0.2070 -0.0415
   38MOL    O6611240   0.617   4.942   3.756  0.6077 -0.2991 -0.2160
   38MOL    C6711241   0.673   5.067   3.762  0.4108  0.1465 -0.6114
   38MOL    C6811242   0.562   5.172   3.773  0.0115  0.6693 -0.3579
   38MOL    H6911243   0.581   4.508   3.614 -0.3020  0.2337 -0.5364
   38MOL    H7011244   0.737   4.563   3.628 -1.0752 -3.4655 -0.9704
   38MOL    H7111245   0.498   4.739   3.667  1.1455  0.9360  0.0542
   38MOL    H7211246   0.740   5.078   3.848  1.2917  0.7775 -1.3749
   38MOL    H7311247   0.732   5.089   3.673 -0.4543  2.9107 -0.5465
   38MOL    H7411248   0.499   5.142   3.858 -0.6397  1.1893 -0.6515
   38MOL    H7511249   0.489   5.167   3.692 -1.1972  1.8563  0.6341
   38MOL    H7611250   0.599   5.274   3.771 -2.0436  1.4097 -4.6172
   38MOL    C7711251   0.583   4.664   3.843 -0.1586  1.3988 -0.1729
   38MOL    C7811252   0.710   4.607   3.915 -0.5833  0.5973  0.6716
   38MOL    C7911253   0.717   4.457   3.937  0.4132  0.1172 -0.4082
   38MOL    O8011254   0.800   4.393   3.877  0.1715 -0.5298 -0.2514
   38MOL    O8111255   0.615   4.423   4.020  0.1719 -0.5018 -0.0162
   38MOL    C8211256   0.587   4.291   4.063 -0.8200 -0.0593 -0.2163
   38MOL    C8311257   0.440   4.254   4.066  0.4664  0.6383  0.1663
   38MOL    H8411258   0.534   4.739   3.905  1.8804  3.2341 -0.7283
   38MOL    H8511259   0.499   4.595   3.844  0.9967 -0.0036  1.2504
   38MOL    H8611260   0.795   4.643   3.859 -1.4066  0.5222 -0.6487
   38MOL    H8711261   0.623   4.210   3.999  1.9550  1.1056 -0.2143
   38MOL    H8811262   0.642   4.276   4.156 -1.8443  1.1244  0.5993
   38MOL    H8911263   0.438   4.157   4.117  0.5703 -0.2126 -1.4396
   38MOL    H9011264   0.388   4.257   3.970 -0.4077  1.9327  0.6628
   38MOL    H9111265   0.386   4.317   4.137  0.1670 -1.1060  1.5382
   38MOL    C9211266   0.715   4.668   4.062  0.0302 -0.5944 -0.3989
   38MOL    C9311267   0.753   4.819   4.064  0.1576 -0.2626 -0.5100
   38MOL    C9411268   0.899   4.835   4.019 -0.2721 -0.1617 -0.8188
   38MOL    O9511269   0.979   4.743   4.033  0.2639  0.1066  0.4007
   38MOL    O9611270   0.922   4.959   3.970  0.7960 -0.0726 -0.2557
   38MOL    C9711271   1.044   4.983   3.914  0.6368 -0.0323  0.0932
   38MOL    C9811272   1.049   5.142   3.927  0.5636  0.0531 -0.3583
   38MOL    H9911273   0.621   4.641   4.111  0.4990 -0.8333  0.3778
   38MOL   H10011274   0.781   4.613   4.129 -0.3534  2.1156  2.3660
   38MOL   H10111275   0.693   4.873   3.991 -1.9766 -1.5980  0.2158
   38MOL   H10211276   1.130   4.948   3.970 -0.1957 -2.1796  0.0680
   38MOL   H10311277   1.046   4.956   3.808  1.7576  0.5480 -0.0477
   38MOL   H10411278   1.135   5.181   3.873  1.9674 -1.3291  0.8011
   38MOL   H10511279   1.069   5.164   4.032 -1.2162  3.0549 -0.6125
   38MOL   H10611280   0.963   5.196   3.889 -1.1581 -2.9543 -0.8716
   38MOL   C10711281   0.743   4.884   4.211  0.6824 -0.3267 -0.6335
   38MOL   C10811282   0.603   4.897   4.271  0.2523 -0.4932 -0.3515
   38MOL   C10911283   0.515   4.978   4.180 -0.0460  0.4974 -0.1812
   38MOL   O11011284   0.535   5.096   4.145  0.3185 -0.6082 -0.0709
   38MOL   O11111285   0.402   4.905   4.158  0.1462 -0.3012 -0.2822
   38MOL   C11211286   0.286   4.964   4.102  0.5569  0.1897 -0.0589
   38MOL   C11311287   0.222   5.066   4.202 -0.2876  0.3363  0.1974
   38MOL   H11411288   0.803   4.825   4.280  3.3076  1.6154 -1.1768
   38MOL   H11511289   0.790   4.982   4.211  0.0520  0.0086  1.5696
   38MOL   H11611290   0.556   4.799   4.275 -0.0319 -0.3506 -0.2238
   38MOL   H11711291   0.318   5.017   4.012  0.4858  0.2685 -0.0377
   38MOL   H11811292   0.223   4.878   4.085 -0.4277  0.6776  1.0707
   38MOL   H11911293   0.235   5.021   4.300 -0.8208  1.2805  0.7168
   38MOL   H12011294   0.126   5.108   4.174  0.0708  1.0473  0.0036
   38MOL   H12111295   0.285   5.155   4.213 -0.1141  0.2542 -0.1087
   38MOL   C12211296   0.607   4.950   4.411 -0.1668 -0.4347  0.1992
   38MOL   C12311297   0.463   4.954   4.486 -0.2873  0.6911 -0.4292
   38MOL   C12411298   0.438   5.096   4.536 -0.3255  0.0712 -0.0623
   38MOL   O12511299   0.345   5.169   4.498 -0.2402 -0.1661  0.6955
   38MOL   O12611300   0.537   5.135   4.623  0.6937 -0.1638 -0.8585
   38MOL   C12711301   0.525   5.259   4.692 -0.3132  0.3629  0.7003
   38MOL   C12811302   0.657   5.330   4.665  0.2533 -0.6089 -0.1618
   38MOL   H12911303   0.677   4.882   4.460 -0.6996 -1.0169  0.1678
   38MOL   H13011304   0.647   5.051   4.406 -2.3743  0.4563  0.1029
   38MOL   H13111305   0.390   4.943   4.405  0.8949 -1.5721 -1.2131
   38MOL   H13211306   0.453   5.326   4.645  0.4032  0.6889  0.0426
   38MOL   H13311307   0.511   5.256   4.800 -0.8332  2.1423  0.6909
   38MOL   H13411308   0.736   5.302   4.734  0.6870  0.5667 -0.1756
   38MOL   H13511309   0.650   5.436   4.688  0.6315 -0.4983 -0.5407
   38MOL   H13611310   0.698   5.332   4.564  1.4037 -1.1306  0.2851
   38MOL   C13711311   0.429   4.852   4.598  0.5058  0.3182  0.2391
   38MOL   C13811312   0.312   4.754   4.578 -0.4089 -0.4679  0.0852
   38MOL   C13911313   0.346   4.648   4.476 -0.0878 -0.2977 -0.1540
   38MOL   O14011314   0.300   4.647   4.362 -0.1228 -0.0446 -0.4504
   38MOL   O14111315   0.429   4.553   4.518  0.1136 -0.2450 -0.4607
   38MOL   C14211316   0.470   4.456   4.413 -0.4233  0.0331 -0.4198
   38MOL   C14311317   0.606   4.409   4.459  0.3900  0.1226 -0.6468
   38MOL   H14411318   0.515   4.785   4.605  0.6081  0.3360 -0.7889
   38MOL   H14511319   0.413   4.906   4.691 -0.3059 -0.2526  0.4406
   38MOL   H14611320   0.310   4.704   4.674  0.0258  4.6786  2.9232
   38MOL   H14711321   0.394   4.378   4.416  0.1931 -0.6051 -1.1378
   38MOL   H14811322   0.477   4.498   4.312 -0.7597 -0.9466 -0.8572
   38MOL   H14911323   0.613   4.364   4.558  2.1491  0.0832 -0.7592
   38MOL   H15011324   0.664   4.501   4.471  0.4142 -0.0140  0.2798
   38MOL   H15111325   0.653   4.340   4.389 -2.3984 -2.0165 -0.4777
   38MOL   C15211326   0.166   4.817   4.551  0.1023  0.2763  0.5142
   38MOL   C15311327   0.112   4.879   4.682  0.3541 -0.0049 -0.0152
   38MOL   C15411328   0.081   4.777   4.790  0.5676 -0.5603 -1.2267
   38MOL   O15511329   0.067   4.663   4.763 -0.4217 -0.2552 -0.0232
   38MOL   O15611330   0.066   4.830   4.915  0.2404 -0.0573  0.0855
   38MOL   C15711331   0.014   4.751   5.026 -0.1972 -0.3446  0.1233
   38MOL   C15811332   7.826   4.838   5.109 -0.3218 -0.0803 -0.2151
   38MOL   H15911333   0.170   4.899   4.480 -1.2397 -1.5874 -1.7937
   38MOL   H16011334   0.104   4.737   4.509  1.3993  0.3981 -1.7178
   38MOL   H16111335   0.195   4.935   4.725  0.8019 -0.3519 -0.4138
   38MOL   H16211336   7.871   4.666   4.981 -2.1451  1.0251 -0.3230
   38MOL   H16311337   0.093   4.714   5.091 -0.8849  1.2670  1.9230
   38MOL   H16411338   7.744   4.878   5.050 -0.1389  0.9524  0.2050
   38MOL   H16511339   7.883   4.921   5.152  1.6268 -1.0949 -0.7454
   38MOL   H16611340   7.790   4.800   5.204 -2.0531 -2.2215 -1.7014
   38MOL   C16711341   7.894   4.963   4.657  0.4254 -0.4432  0.5987
   38MOL   C16811342   0.016   5.109   4.614 -0.2550  0.7600 -0.2525
   38MOL   C16911343   0.093   5.190   4.724 -0.7605  0.3205 -0.3567
   38MOL   O17011344   0.164   5.287   4.690 -0.0297  0.7342  0.1575
   38MOL   O17111345   0.091   5.137   4.847  0.5538  0.0452 -0.1639
   38MOL   C17211346   0.167   5.200   4.951  0.6403 -0.1081  0.5137
   38MOL   C17311347   0.144   5.137   5.083 -1.4307 -0.0288  0.2327
   38MOL   H17411348   7.844   4.914   4.573 -0.8281  1.7381  0.0445
   38MOL   H17511349   7.832   4.969   4.746 -2.4718 -0.5442 -1.3505
   38MOL   H17611350   0.088   5.112   4.532 -1.0561 -0.6452 -1.0320
   38MOL   H17711351   0.273   5.216   4.928  0.6779 -0.0761  0.7095
   38MOL   H17811352   0.123   5.298   4.961 -1.5105 -0.9467 -0.4626
   38MOL   H17911353   0.205   5.181   5.162 -1.2296  0.6121 -0.2741
   38MOL   H18011354   0.184   5.036   5.077 -0.4382  0.4387 -1.2625
   38MOL   H18111355   0.042   5.139   5.122 -1.0046 -0.7893  1.4042
   38MOL   C18211356   7.793   5.177   4.565 -0.0348  0.4166 -0.5528
   38MOL   C18311357   7.791   5.331   4.533  0.5208 -0.1212  0.2598
   38MOL   C18411358   7.646   5.377   4.507 -0.1811 -0.2728 -0.0436
   38MOL   O18511359   7.607   5.490   4.538  0.2984  0.0212  0.0426
   38MOL   O18611360   7.576   5.289   4.436  0.0548  0.2303  0.3553
   38MOL   C18711361   7.443   5.337   4.397 -0.0204  0.2211  0.4038
   38MOL   C18811362   7.338   5.285   4.495 -0.0204 -0.4617 -0.5826
   38MOL   H18911363   7.764   5.116   4.480 -1.4192 -1.4965  1.2556
   38MOL   H19011364   7.715   5.159   4.639  0.7255 -1.1328 -0.1045
   38MOL   H19111365   7.828   5.375   4.625  1.8251 -0.3687 -0.1285
   38MOL   H19211366   7.429   5.444   4.409  2.1579  0.9231 -2.6123
   38MOL   H19311367   7.431   5.315   4.290 -1.2009  1.8982  0.1695
   38MOL   H19411368   7.243   5.291   4.442  1.3279  0.3087 -2.9982
   38MOL   H19511369   7.336   5.333   4.593 -0.2055 -0.0406 -0.7945
   38MOL   H19611370   7.372   5.188   4.533 -2.0164 -0.9222  0.1285
   38MOL   C19711371   7.887   5.356   4.418  0.3599 -0.3232 -0.0962
   38MOL   C19811372   7.904   5.504   4.367  0.2778 -0.0972  0.4790
   38MOL   C19911373   0.030   5.500   4.219  0.4813 -0.1119 -0.1019
   38MOL   O20011374   0.125   5.433   4.179 -0.1230 -0.4904  0.8796
   38MOL   O20111375   7.854   5.572   4.140 -0.2006 -0.3232 -0.8472
   38MOL   C20211376   7.870   5.568   3.998 -0.2003  1.0277  0.9128
   38MOL   C20311377   0.041   5.690   3.958  0.0278  0.2357  0.2591
   38MOL   H20411378   0.072   5.316   4.457  0.3079 -0.7180 -0.3798
   38MOL   H20511379   7.871   5.292   4.331  0.0877  0.8125 -0.9023
   38MOL   H20611380   7.810   5.559   4.372 -0.4446 -1.2155 -0.6080
   38MOL   H20711381   0.006   5.475   3.960 -1.2418  1.1970 -0.8070
   38MOL   H20811382   7.772   5.574   3.950  1.0052 -1.5351 -2.1049
   38MOL   H20911383   0.085   5.687   3.859 -1.1573 -0.9041 -0.2491
   38MOL   H21011384   0.127   5.695   4.024  1.3058  2.9223 -1.5054
   38MOL   H21111385   7.889   5.778   3.980 -0.2861 -0.2871  1.5990
   38MOL   C21211386   0.101   5.572   4.450  0.0852  0.1443  0.2528
   38MOL   C21311387   0.077   5.725   4.469 -0.5231 -0.0836 -0.2863
   38MOL   C21411388   7.857   5.753   4.553  0.0417  0.6323 -0.1328
   38MOL   O21511389   7.757   5.807   4.508  0.1692 -0.7795  0.2196
   38MOL   O21611390   7.873   5.727   4.683  0.3509 -0.0264 -0.7796
   38MOL   C21711391   7.773   5.744   4.785  0.5632 -0.1401  0.1772
   38MOL   C21811392   7.797   5.667   4.919  0.1601 -0.1031  0.4799
   38MOL   H21911393   0.118   5.529   4.548  1.7650 -2.6656 -1.2157
   38MOL   H22011394   0.197   5.556   4.401 -0.4458 -2.0081 -0.1220
   38MOL   H22111395   0.164   5.744   4.533 -1.4343 -0.7107  1.1800
   38MOL   H22211396   7.774   5.852   4.797  0.2568  0.0521 -1.4822
   38MOL   H22311397   7.681   5.707   4.741 -0.4791  0.8643  1.4678
   38MOL   H22411398   7.718   5.660   4.993  0.7743 -1.7985  1.0015
   38MOL   H22511399   7.897   5.687   4.957  0.6062 -0.5241 -0.4568
   38MOL   H22611400   7.808   5.565   4.882  2.5328 -0.4052  1.8767
   38MOL   C22711401   0.080   5.810   4.338  0.2676 -0.3314  0.5859
   38MOL   C22811402   0.114   5.967   4.360  0.4283 -0.1855  0.3514
   38MOL   C22911403   0.053   6.040   4.243  0.3724 -0.0947 -0.7361
   38MOL   O23011404   7.866   6.126   4.263 -0.2072 -0.2495 -0.0240
   38MOL   O23111405   0.097   6.009   4.124 -0.1477 -0.5775  0.1698
   38MOL   C23211406   0.031   6.064   4.009  0.6170 -0.7359 -0.3726
   38MOL   C23311407   0.119   6.025   3.890  0.3248 -0.5837  0.0471
   38MOL   H23411408   0.157   5.764   4.275 -0.5848 -2.5485  1.1143
   38MOL   H23511409   7.892   5.804   4.287  1.1644 -0.4472 -1.1173
   38MOL   H23611410   0.074   6.005   4.454 -2.6573 -1.9315 -0.1945
   38MOL   H23711411   7.841   6.018   4.006  0.4316 -0.4096  0.5416
   38MOL   H23811412   0.014   6.171   4.016 -1.3732 -1.1798  2.1586
   38MOL   H23911413   0.224   6.045   3.908 -0.8731  3.7901  3.1493
   38MOL   H24011414   0.077   6.077   3.804  1.3594  1.9174  1.0100
   38MOL   H24111415   0.112   5.919   3.862 -1.5565 -0.3331 -0.4852
   38MOL   C24211416   0.265   5.982   4.352  0.2326 -0.1580 -0.0150
   38MOL   C24311417   0.313   6.123   4.405  1.0015  0.1380 -0.0787
   38MOL   C24411418   0.302   6.235   4.309  0.3636 -0.6193  0.2811
   38MOL   O24511419   0.256   6.348   4.332  0.1888 -0.0294 -0.0557
   38MOL   O24611420   0.371   6.208   4.197  0.1022 -0.2688 -0.7641
   38MOL   C24711421   0.380   6.312   4.105  0.1976 -0.5293 -0.0451
   38MOL   C24811422   0.440   6.284   3.970  0.2350 -0.4753  0.1694
   38MOL   H24911423   0.309   5.916   4.426 -2.3419 -0.8931  0.9053
   38MOL   H25011424   0.306   5.951   4.255 -2.4418  1.3948 -1.7198
   38MOL   H25111425   0.246   6.152   4.486 -0.3226 -0.9865 -0.7613
   38MOL   H25211426   0.275   6.330   4.083  0.2872  2.1440  1.5005
   38MOL   H25311427   0.440   6.395   4.144  1.1370 -0.3612 -1.7952
   38MOL   H25411428   0.380   6.218   3.906  1.1979 -0.0550 -1.1832
   38MOL   H25511429   0.537   6.234   3.967  0.4979  0.0930 -0.8514
   38MOL   H25611430   0.451   6.369   3.903 -0.3234 -1.6531 -1.4499
   38MOL   C25711431   0.444   6.128   4.476 -0.2225  0.0571 -0.1452
   38MOL   C25811432   0.575   6.100   4.396 -0.3305  0.1379  0.3444
   38MOL   C25911433   0.642   5.974   4.447 -0.1150 -0.3029  0.6721
   38MOL   O26011434   0.719   5.980   4.543 -0.4235 -0.6972  1.0157
   38MOL   O26111435   0.603   5.863   4.385  0.4621  0.4138 -0.4791
   38MOL   C26211436   0.650   5.731   4.418  0.2693  0.9822  0.1138
   38MOL   C26311437   0.521   5.644   4.433  0.7200 -0.0214 -0.6107
   38MOL   H26411438   0.454   6.226   4.522  0.5455  0.6614 -1.5585
   38MOL   H26511439   0.446   6.068   4.567 -1.6214  0.3358  0.0822
   38MOL   H26611440   0.551   6.097   4.290  1.2753  2.5373 -0.1497
   38MOL   H26711441   0.715   5.690   4.340 -0.5320 -0.8966  0.4082
   38MOL   H26811442   0.714   5.722   4.505  1.2032 -1.4488 -0.7714
   38MOL   H26911443   0.546   5.540   4.454 -0.7138 -0.5755 -1.5633
   38MOL   H27011444   0.453   5.669   4.351  0.8988  1.2410 -0.3968
   38MOL   H27111445   0.473   5.681   4.524  0.1401  1.5474 -1.5260
   38MOL   C27211446   0.675   6.217   4.409 -0.1211  0.1184 -0.4877
   38MOL   C27311447   0.809   6.216   4.332  0.0761 -0.7757 -0.4339
   38MOL   C27411448   0.820   6.118   4.215 -0.5673 -0.1966 -0.0169
   38MOL   O27511449   0.902   6.025   4.215  0.2386 -0.5083  0.4421
   38MOL   O27611450   0.739   6.144   4.114 -0.3526 -0.4891  0.5534
   38MOL   C27711451   0.722   6.048   4.010 -0.3571  0.0392  0.3705
   38MOL   C27811452   0.623   5.942   4.046 -0.3153  0.1771  0.3292
   38MOL   H27911453   0.617   6.307   4.388 -2.1690 -0.9597  0.4363
   38MOL   H28011454   0.691   6.242   4.514  0.1105  2.0181 -0.9524
   38MOL   H28111455   0.826   6.313   4.284  2.1110 -0.7306  0.3425
   38MOL   H28211456   0.713   6.099   3.915  0.7723  1.1697  0.8531
   38MOL   H28311457   0.817   5.994   3.997  1.3773  2.2916  3.1080
   38MOL   H28411458   0.660   5.872   4.120  3.0671  1.9074  0.3838
   38MOL   H28511459   0.611   5.879   3.957 -1.7483  2.7742 -1.3975
   38MOL   H28611460   0.526   5.984   4.074 -1.9770 -3.4197  0.2610
   38MOL   C28711461   0.927   6.208   4.438  0.3479 -0.9159 -0.5250
   38MOL   C28811462   1.068   6.264   4.396 -0.2689 -0.6937 -0.0533
   38MOL   C28911463   1.183   6.239   4.505 -0.3538 -0.1813  1.1665
   38MOL   O29011464   1.166   6.180   4.612  0.2949 -0.7666 -0.3038
   38MOL   O29111465   1.298   6.296   4.466 -0.1590 -0.3032 -0.3162
   38MOL   C29211466   1.407   6.286   4.551 -0.5472  0.2453 -0.2548
   38MOL   C29311467   1.532   6.306   4.468 -0.1844  0.2955  0.0457
   38MOL   H29411468   0.894   6.252   4.532 -0.8495 -0.8352 -0.9702
   38MOL   H29511469   0.940   6.103   4.466 -0.7364 -1.3744 -1.7027
   38MOL   H29611470   1.104   6.232   4.298  0.1961 -0.1168 -0.0821
   38MOL   H29711471   1.400   6.358   4.632  0.9734 -0.8513  0.8752
   38MOL   H29811472   1.407   6.195   4.612 -0.5462  1.0069  0.8872
   38MOL   H29911473   1.515   6.397   4.410 -2.7121  0.1014  0.4204
   38MOL   H30011474   1.554   6.224   4.400  1.0187 -0.0305  0.8006
   38MOL   H30111475   1.612   6.309   4.542 -2.5490  1.9559  2.6415
   38MOL   H30211476   1.071   6.372   4.377  1.0967 -0.5653  0.8218
   39MOL     C111477   3.385   0.670   5.941 -0.3915  0.2634 -0.0579
   39MOL     C211478   3.498   0.706   5.838 -0.3290  0.3262  0.1353
   39MOL     C311479   3.557   0.845   5.877  0.6652  0.0228 -0.0379
   39MOL     O411480   3.515   0.948   5.834 -0.5563 -0.4309 -0.7096
   39MOL     O511481   3.659   0.836   5.968  0.4187 -0.8099 -0.5114
   39MOL     C611482   3.723   0.951   6.021 -0.1756  0.3842  1.0763
   39MOL     C711483   3.830   0.922   6.116  0.5382  0.7506  0.2134
   39MOL     H811484   3.351   0.567   5.935  0.0433  0.2734 -3.9426
   39MOL     H911485   3.298   0.732   5.922 -0.9467 -1.1808 -2.3738
   39MOL    H1011486   3.574   0.633   5.866 -0.3279  0.1987 -0.2018
   39MOL    H1111487   3.767   1.015   5.944 -3.5731 -0.2443 -1.5012
   39MOL    H1211488   3.650   1.015   6.072 -0.1117 -1.2030  3.2364
   39MOL    H1311489   3.886   1.012   6.140  0.8082  0.6483 -0.0271
   39MOL    H1411490   3.900   0.852   6.070  1.3908  2.3290 -0.9405
   39MOL    H1511491   3.788   0.878   6.206  1.1399  0.0326  0.1509
   39MOL    H1611492   3.421   0.676   6.044 -1.9337 -4.2106  0.8680
   39MOL    C1711493   3.462   0.694   5.687  0.3820  0.4791  0.5698
   39MOL    C1811494   3.589   0.703   5.596  0.2171  0.1623 -0.3322
   39MOL    C1911495   3.552   0.761   5.459  0.2976  0.7042  0.4494
   39MOL    O2011496   3.626   0.843   5.400 -0.1719  0.4991 -0.2295
   39MOL    O2111497   3.452   0.687   5.401  0.0302 -0.4891  0.1794
   39MOL    C2211498   3.408   0.709   5.263  0.0019 -0.2888  0.1780
   39MOL    C2311499   3.501   0.629   5.163 -0.4412  0.1068  0.8790
   39MOL    H2411500   3.407   0.600   5.676 -0.9204  1.2737  0.1563
   39MOL    H2511501   3.400   0.782   5.671 -1.7427 -1.2528 -1.1565
   39MOL    H2611502   3.659   0.781   5.624 -0.8863  1.0754 -0.0519
   39MOL    H2711503   3.304   0.676   5.257 -0.0713  0.0576 -0.5399
   39MOL    H2811504   3.406   0.813   5.231  1.7762  1.3000  4.8263
   39MOL    H2911505   3.519   0.526   5.192 -0.9206  0.2514  1.7020
   39MOL    H3011506   3.603   0.666   5.167 -0.6913  0.7886  1.0051
   39MOL    H3111507   3.461   0.632   5.061 -0.7537 -0.3350  0.9856
   39MOL    C3211508   3.656   0.563   5.590 -0.0816  0.6598 -0.3010
   39MOL    C3311509   3.798   0.571   5.528 -0.5747  0.0641  0.0857
   39MOL    C3411510   3.816   0.488   5.401  0.4648 -0.1479  0.8095
   39MOL    O3511511   3.725   0.419   5.352  0.3938  0.3395 -0.2820
   39MOL    O3611512   3.946   0.487   5.359  0.7971 -0.2456  0.8968
   39MOL    C3711513   3.985   0.384   5.265 -0.3351  0.3935  0.5912
   39MOL    C3811514   4.133   0.365   5.261  0.2098  0.3546 -0.3744
   39MOL    H3911515   3.648   0.510   5.685 -0.8341  1.2231 -0.0389
   39MOL    H4011516   3.589   0.504   5.528 -1.8889  0.7799  1.4839
   39MOL    H4111517   3.818   0.672   5.493  1.5346 -0.3681 -0.0512
   39MOL    H4211518   3.939   0.286   5.274 -1.8779  0.9965 -0.5964
   39MOL    H4311519   3.953   0.408   5.164 -1.3133 -2.3242  0.2197
   39MOL    H4411520   4.168   0.318   5.353 -0.3723 -0.7196 -0.6922
   39MOL    H4511521   4.191   0.456   5.245  2.0652 -0.6516  0.4888
   39MOL    H4611522   4.155   0.294   5.182  1.5329  1.6693 -1.2208
   39MOL    C4711523   3.907   0.532   5.625 -0.1297 -0.2342  0.4135
   39MOL    C4811524   3.913   0.612   5.765 -0.7478  0.7219 -0.0505
   39MOL    C4911525   3.975   0.749   5.735  0.0553  0.1961 -0.3152
   39MOL    O5011526   4.094   0.770   5.716 -0.6565 -0.4678  0.0064
   39MOL    O5111527   3.880   0.848   5.714 -0.1347  0.0151 -0.3809
   39MOL    C5211528   3.915   0.974   5.670 -0.3565  0.2811  0.5133
   39MOL    C5311529   3.794   1.067   5.653 -0.4019  0.3980  0.2220
   39MOL    H5411530   3.893   0.424   5.636 -0.2500 -0.3140 -0.4842
   39MOL    H5511531   4.002   0.541   5.573 -0.4644  0.3096 -0.1014
   39MOL    H5611532   3.811   0.627   5.798 -0.9115  0.4513 -0.4314
   39MOL    H5711533   3.979   1.024   5.743 -0.4034  0.5026  0.4043
   39MOL    H5811534   3.977   0.969   5.580 -2.2337  0.1127 -0.7935
   39MOL    H5911535   3.830   1.168   5.636 -1.0626  0.4943 -0.6425
   39MOL    H6011536   3.742   1.071   5.749  0.0478 -1.8610  0.5923
   39MOL    H6111537   3.720   1.042   5.577  0.8586  0.3107 -1.0085
   39MOL    C6211538   4.007   0.527   5.858  0.0583  0.0405 -0.0371
   39MOL    C6311539   3.946   0.399   5.912  0.3159 -0.5065  0.3994
   39MOL    C6411540   3.823   0.443   5.997  0.1961  0.5636 -0.6270
   39MOL    O6511541   3.705   0.430   5.965  0.0222 -0.4099  0.5306
   39MOL    O6611542   3.857   0.506   6.118 -0.2682 -0.9950 -0.1521
   39MOL    C6711543   3.756   0.562   6.206  0.0552  0.5257  0.2794
   39MOL    C6811544   3.683   0.468   6.294  0.7374 -0.7073 -0.1168
   39MOL    H6911545   4.093   0.500   5.798  0.5289  0.9682  0.2107
   39MOL    H7011546   4.052   0.590   5.935  0.2476 -0.2992  0.1307
   39MOL    H7111547   3.897   0.342   5.833  0.3667  2.5320 -1.8831
   39MOL    H7211548   3.796   0.643   6.267 -1.9637  1.0714  0.9280
   39MOL    H7311549   3.679   0.624   6.162 -0.2974  0.2878  0.5531
   39MOL    H7411550   3.648   0.516   6.385  1.8362  0.0993 -0.1027
   39MOL    H7511551   3.742   0.379   6.314  1.1848 -0.6512 -1.1123
   39MOL    H7611552   3.590   0.442   6.243  0.3840 -0.7354  0.5471
   39MOL    C7711553   4.046   0.303   5.983  0.9602  0.0183 -0.4330
   39MOL    C7811554   3.997   0.158   5.990 -0.7194 -0.7729  0.1499
   39MOL    C7911555   3.903   0.140   6.112  0.1624  0.4109 -0.0130
   39MOL    O8011556   3.781   0.119   6.100  0.0345  0.0504 -0.1597
   39MOL    O8111557   3.967   0.145   6.231  0.9661  0.4392  0.3489
   39MOL    C8211558   3.903   0.110   6.355 -0.8545 -0.2980  0.3890
   39MOL    C8311559   3.894   7.863   6.366 -0.3247  0.3321  0.5941
   39MOL    H8411560   4.139   0.307   5.926 -0.0811 -1.8936 -2.3425
   39MOL    H8511561   4.071   0.345   6.080  4.5776 -0.6939 -0.9595
   39MOL    H8611562   3.931   0.134   5.906 -0.7063  1.9087 -0.6503
   39MOL    H8711563   3.954   0.149   6.443 -0.2711 -1.7389  0.7010
   39MOL    H8811564   3.802   0.151   6.361 -0.3863  0.8602  0.4442
   39MOL    H8911565   3.826   7.817   6.294  0.6393 -1.7589  0.9944
   39MOL    H9011566   3.864   7.843   6.468  0.7667 -1.3043  0.6147
   39MOL    H9111567   3.989   7.816   6.343  0.4926  1.4618  1.6236
   39MOL    C9211568   4.113   0.056   6.003  0.0377  0.0473  0.4775
   39MOL    C9311569   4.085   7.838   5.925 -0.1209 -0.5068  0.1787
   39MOL    C9411570   3.977   7.752   5.986  0.3278  0.6616 -0.1393
   39MOL    O9511571   4.008   7.664   6.072 -0.2143 -0.3204  0.7003
   39MOL    O9611572   3.847   7.777   5.945 -0.1579 -0.4146 -0.3041
   39MOL    C9711573   3.731   7.707   5.991  0.4515  0.4751  0.5666
   39MOL    C9811574   3.693   7.605   5.883 -0.4397 -0.0925 -0.3321
   39MOL    H9911575   4.195   0.108   5.953 -1.3640  0.5306 -1.3813
   39MOL   H10011576   4.146   0.034   6.104  1.0349 -0.1543  0.1203
   39MOL   H10111577   4.045   7.874   5.830  0.5950 -3.0694 -1.1388
   39MOL   H10211578   3.753   7.675   6.093  2.4235  1.6012  0.5257
   39MOL   H10311579   3.641   7.767   5.996  0.4213  0.4814 -0.0290
   39MOL   H10411580   3.776   7.535   5.870 -0.0091  0.0742  1.4129
   39MOL   H10511581   3.669   7.664   5.794  3.5751 -1.2400 -2.3008
   39MOL   H10611582   3.611   7.538   5.907  0.8995 -1.0879  1.6184
   39MOL   C10711583   4.224   7.763   5.902  0.4871 -0.5286  1.2333
   39MOL   C10811584   4.204   7.637   5.817 -0.5331 -0.0688  0.1310
   39MOL   C10911585   4.289   7.533   5.884 -0.0179 -0.0172 -0.1374
   39MOL   O11011586   4.412   7.515   5.857 -0.1785 -0.4021  0.5555
   39MOL   O11111587   4.219   7.459   5.975 -0.1095  0.1422 -0.2169
   39MOL   C11211588   4.266   7.336   6.021 -0.0442  0.2038 -0.2520
   39MOL   C11311589   4.258   7.226   5.923 -0.2562 -0.3075 -0.2377
   39MOL   H11411590   4.280   7.839   5.846 -2.4945  1.6639  1.1247
   39MOL   H11511591   4.277   7.737   5.994 -1.3173  0.2677  2.5175
   39MOL   H11611592   4.101   7.610   5.839 -0.2669 -2.2476 -1.2226
   39MOL   H11711593   4.366   7.368   6.050 -0.2397  0.5333  0.0790
   39MOL   H11811594   4.208   7.313   6.111  0.2777 -1.0138 -0.3510
   39MOL   H11911595   4.260   7.126   5.966 -0.7694 -0.5996 -0.8856
   39MOL   H12011596   4.329   7.239   5.842  1.1647 -0.5595  0.9382
   39MOL   H12111597   4.163   7.235   5.870 -1.3082 -1.0555  1.4666
   39MOL   C12211598   4.236   7.630   5.666  0.5692 -0.0530  0.5019
   39MOL   C12311599   4.166   7.734   5.576  0.1417 -0.3612 -0.2431
   39MOL   C12411600   4.011   7.751   5.592  0.0477  0.3329 -0.1087
   39MOL   O12511601   3.949   7.667   5.658 -0.3117  0.5295 -0.0338
   39MOL   O12611602   3.969   7.857   5.530 -0.2184  0.1287  0.5923
   39MOL   C12711603   3.836   7.908   5.555 -0.9721  0.1869 -0.5783
   39MOL   C12811604   3.842   0.149   5.592 -0.8206 -0.2998 -0.1795
   39MOL   H12911605   4.343   7.645   5.658  0.8723 -1.4962  1.8238
   39MOL   H13011606   4.219   7.531   5.624  0.9054 -0.0553  0.3683
   39MOL   H13111607   4.206   7.825   5.619  1.8462 -1.8438  1.3624
   39MOL   H13211608   3.784   7.896   5.460 -1.2521 -0.8951 -0.2968
   39MOL   H13311609   3.780   7.844   5.623 -0.7789  2.0505  1.3865
   39MOL   H13411610   3.737   0.175   5.606 -0.7008  0.3186 -0.4202
   39MOL   H13511611   3.892   0.209   5.516  1.1003  0.2514  1.4753
   39MOL   H13611612   3.885   0.163   5.691  0.0252  0.8273 -0.7007
   39MOL   C13711613   4.202   7.706   5.425  0.7234  0.2929 -0.0420
   39MOL   C13811614   4.346   7.684   5.395 -0.6481  0.2794 -0.4239
   39MOL   C13911615   4.424   7.814   5.417  0.1987  0.1307  0.2919
   39MOL   O14011616   4.377   0.017   5.402 -0.0543  0.8009  0.3754
   39MOL   O14111617   4.552   7.792   5.456  0.7144 -0.1544  0.4980
   39MOL   C14211618   4.627   7.901   5.501  0.1896 -0.2496  0.2653
   39MOL   C14311619   4.768   7.858   5.544 -0.1916  0.2632 -0.7452
   39MOL   H14411620   4.143   7.619   5.397 -0.6479  0.3194  2.6003
   39MOL   H14511621   4.159   7.785   5.362 -1.7623 -0.1346  1.0726
   39MOL   H14611622   4.386   7.601   5.454  0.4016  1.0904  0.0058
   39MOL   H14711623   4.628   0.080   5.437 -0.5431  0.3948  1.1137
   39MOL   H14811624   4.572   0.017   5.592  0.1641 -0.8179  0.4051
   39MOL   H14911625   4.784   7.899   5.644 -0.3306 -0.8109 -0.2838
   39MOL   H15011626   4.844   7.883   5.470  1.3325  0.7414  0.9500
   39MOL   H15111627   4.768   7.751   5.565  0.2935  0.1665 -1.2464
   39MOL   C15211628   4.361   7.642   5.247 -0.1231  0.2472 -0.4234
   39MOL   C15311629   4.444   7.507   5.223 -0.3908  0.6943  0.0529
   39MOL   C15411630   4.366   7.382   5.266 -0.2310  0.8781 -0.4468
   39MOL   O15511631   4.350   7.349   5.382 -0.4354  0.1369 -0.2946
   39MOL   O15611632   4.322   7.318   5.155  0.2885  0.3843 -0.1832
   39MOL   C15711633   4.248   7.201   5.170 -0.2199  0.7178 -0.1094
   39MOL   C15811634   4.195   7.161   5.030  0.2371  0.4363 -0.6228
   39MOL   H15911635   4.262   7.613   5.212 -0.4833 -0.5271  1.1520
   39MOL   H16011636   4.418   7.715   5.191  1.1945 -1.7952 -1.8211
   39MOL   H16111637   4.471   7.503   5.118 -1.2539 -0.2326 -0.1422
   39MOL   H16211638   4.301   7.116   5.212  0.6086  0.4990 -1.5496
   39MOL   H16311639   4.160   7.224   5.229  0.0561  1.4465  0.0243
   39MOL   H16411640   4.129   7.241   4.999 -2.4000 -1.2681  0.3934
   39MOL   H16511641   4.152   7.062   5.043  0.8036  0.3980  1.0565
   39MOL   H16611642   4.268   7.145   4.950 -2.6844 -2.9670 -2.7838
   39MOL   C16711643   4.591   7.507   5.287  0.4762  0.0241 -0.6116
   39MOL   C16811644   4.676   7.381   5.250 -0.7863  0.2494  0.5021
   39MOL   C16911645   4.809   7.374   5.327  0.4389 -0.2597 -0.0373
   39MOL   O17011646   4.836   7.456   5.412  0.4376 -0.3490  0.0520
   39MOL   O17111647   4.888   7.269   5.292 -0.3057 -0.1809  0.1029
   39MOL   C17211648   5.017   7.243   5.360  0.4804  0.4997 -0.4666
   39MOL   C17311649   5.101   7.135   5.290  0.6160 -0.3649 -0.1016
   39MOL   H17411650   4.651   7.596   5.266 -0.8366  1.6779  2.3765
   39MOL   H17511651   4.583   7.513   5.395 -1.2651  1.7187 -0.8130
   39MOL   H17611652   4.625   7.289   5.280 -0.3797 -0.2219 -0.2311
   39MOL   H17711653   5.077   7.331   5.382  1.9626 -0.3862 -0.9491
   39MOL   H17811654   4.982   7.207   5.457 -2.2291  0.4280 -1.4241
   39MOL   H17911655   5.160   7.186   5.214  3.0285 -2.9938 -0.0595
   39MOL   H18011656   5.040   7.053   5.252  1.6246 -0.8293 -0.7606
   39MOL   H18111657   5.171   7.088   5.359  1.3617 -0.8092 -1.1326
   39MOL   C18211658   4.714   7.391   5.093 -0.2175  0.2236  1.6569
   39MOL   C18311659   4.623   7.318   4.999 -0.2279  0.2287 -0.3838
   39MOL   C18411660   4.638   7.166   5.013 -0.2410 -0.2907  0.4279
   39MOL   O18511661   4.745   7.118   5.052 -0.0858  0.0115  0.3607
   39MOL   O18611662   4.533   7.099   4.973  0.6452  0.4793 -0.1107
   39MOL   C18711663   4.523   6.956   4.994  0.1618  0.2764 -0.6366
   39MOL   C18811664   4.483   6.889   4.860 -0.4154  0.5661  0.9014
   39MOL   H18911665   4.714   7.497   5.068  1.8275  0.0045  0.7123
   39MOL   H19011666   4.810   7.346   5.071 -0.4754  0.7556 -0.6981
   39MOL   H19111667   4.525   7.333   5.044  0.5935  1.0574  1.1513
   39MOL   H19211668   4.620   6.915   5.024 -0.9608  0.5905  3.7567
   39MOL   H19311669   4.463   6.924   5.079  1.1880 -0.2728 -0.1028
   39MOL   H19411670   4.389   6.921   4.815 -1.2060  0.5778  2.5544
   39MOL   H19511671   4.482   6.780   4.858 -0.0979  0.5702 -1.0429
   39MOL   H19611672   4.562   6.901   4.785 -1.0869  0.4942  0.1699
   39MOL   C19711673   4.629   7.371   4.859 -0.2114  0.5531  0.2811
   39MOL   C19811674   4.531   7.490   4.825 -0.2314 -0.4476 -0.5132
   39MOL   C19911675   4.389   7.451   4.807 -0.2284  0.3678 -0.6227
   39MOL   O20011676   4.301   7.488   4.886 -0.2742  0.8522 -0.0525
   39MOL   O20111677   4.364   7.390   4.685  0.2591  0.3308 -1.2018
   39MOL   C20211678   4.232   7.371   4.647  0.1071  0.1906 -0.0007
   39MOL   C20311679   4.200   7.455   4.526 -0.3224 -0.3016 -1.4802
   39MOL   H20411680   4.732   7.406   4.848 -0.7098  1.6952 -0.8806
   39MOL   H20511681   4.607   7.294   4.785  1.1246 -0.3881  0.8439
   39MOL   H20611682   4.531   7.544   4.919 -0.5842 -0.7703 -0.3254
   39MOL   H20711683   4.215   7.265   4.628  1.8955 -0.3097  1.1099
   39MOL   H20811684   4.152   7.396   4.716 -1.9477  2.0096 -2.9506
   39MOL   H20911685   4.187   7.557   4.563 -1.4011 -1.3838  1.2255
   39MOL   H21011686   4.099   7.433   4.491 -0.2618 -0.2824 -1.6703
   39MOL   H21111687   4.267   7.443   4.441  0.3658  1.2552 -1.1835
   39MOL   C21211688   4.589   7.588   4.716 -0.5563  0.1279  0.0869
   39MOL   C21311689   4.647   7.713   4.784  0.4518 -0.3792 -0.0850
   39MOL   C21411690   4.526   7.798   4.836 -0.2118  0.3794  1.0067
   39MOL   O21511691   4.418   7.807   4.768  0.2158 -0.0846 -0.5496
   39MOL   O21611692   4.552   7.858   4.955  0.0680  0.0819  0.2575
   39MOL   C21711693   4.466   0.052   4.994 -0.2824 -0.4514  0.9496
   39MOL   C21811694   4.536   0.176   5.049  0.2083  0.2077  0.8487
   39MOL   H21911695   4.671   7.546   4.658 -0.1201 -0.6517  1.2401
   39MOL   H22011696   4.512   7.605   4.641 -0.2037 -1.3160 -0.6274
   39MOL   H22111697   4.709   7.685   4.869  1.4211  1.8089 -0.0197
   39MOL   H22211698   4.399   0.090   4.917 -0.5906 -1.6137  0.6365
   39MOL   H22311699   4.406   0.008   5.073 -2.5546  0.8577  0.0077
   39MOL   H22411700   4.477   0.266   5.066  1.4285  1.1165  0.3586
   39MOL   H22511701   4.611   0.205   4.976 -0.0060  0.6437  0.8005
   39MOL   H22611702   4.588   0.166   5.145  0.2741 -1.8308  0.6151
   39MOL   C22711703   4.737   7.798   4.692 -0.3750  0.1353  0.0326
   39MOL   C22811704   4.815   0.004   4.757  0.8415 -0.6000  0.4943
   39MOL   C22911705   4.793   0.147   4.709  0.5809  0.3989 -0.2058
   39MOL   O23011706   4.886   0.220   4.667 -0.4054 -0.6055  0.7324
   39MOL   O23111707   4.667   0.179   4.715  0.4807 -0.1138  0.0522
   39MOL   C23211708   4.606   0.304   4.653 -0.0047 -0.2899  0.2195
   39MOL   C23311709   4.491   0.360   4.737 -0.1737  0.2694 -0.3821
   39MOL   H23411710   4.804   7.723   4.649 -1.7916 -0.0923 -1.8323
   39MOL   H23511711   4.685   7.834   4.603 -1.8362  2.7612  1.8759
   39MOL   H23611712   4.792   7.907   4.863  1.7339 -0.5727  0.6919
   39MOL   H23711713   4.676   0.387   4.641  0.4120 -0.7346 -0.4406
   39MOL   H23811714   4.571   0.286   4.551  1.6140  3.6349 -1.1281
   39MOL   H23911715   4.421   0.283   4.767 -0.4896 -0.5087 -3.0191
   39MOL   H24011716   4.443   0.444   4.686 -1.3384 -0.3675 -0.3365
   39MOL   H24111717   4.527   0.394   4.835  0.9283  1.1024 -1.0560
   39MOL   C24211718   4.963   7.878   4.760  0.1213 -0.4984 -0.0337
   39MOL   C24311719   5.007   7.754   4.839 -0.2205  0.2442  0.2714
   39MOL   C24411720   5.010   7.797   4.982 -0.3218  0.1406 -0.2783
   39MOL   O24511721   5.114   7.842   5.034  0.3943  0.4913 -0.5657
   39MOL   O24611722   4.894   7.765   5.052  1.0409  0.1072 -0.1838
   39MOL   C24711723   4.888   7.823   5.181  0.3559  0.0934  0.0125
   39MOL   C24811724   4.879   0.072   5.182  0.1660  0.3289  0.0027
   39MOL   H24911725   4.986   7.867   4.654 -0.3796 -0.0584 -0.1897
   39MOL   H25011726   5.027   0.051   4.792  0.0886 -0.3675 -0.2960
   39MOL   H25111727   4.926   7.681   4.838  0.1726 -0.1831 -1.0289
   39MOL   H25211728   4.803   7.778   5.233  1.5894 -1.7454  0.4789
   39MOL   H25311729   4.967   7.778   5.241 -0.8994  0.5554  2.0930
   39MOL   H25411730   4.823   0.119   5.101  0.5402  1.7361  0.5584
   39MOL   H25511731   4.979   0.115   5.178 -0.7824  2.6423  0.5388
   39MOL   H25611732   4.832   0.106   5.275  1.1544  0.1209  0.5888
   39MOL   C25711733   5.146   7.698   4.784 -0.1350  0.1410 -0.3086
   39MOL   C25811734   5.159   7.545   4.793 -0.0917 -0.0503  0.3455
   39MOL   C25911735   5.094   7.462   4.685  0.6428  0.5041  0.4453
   39MOL   O26011736   4.990   7.402   4.704  0.1264  0.4130  0.1786
   39MOL   O26111737   5.169   7.459   4.576 -0.3010  0.7021  0.1587
   39MOL   C26211738   5.152   7.366   4.479  0.2229  0.0230 -0.6822
   39MOL   C26311739   5.236   7.242   4.495  0.5090 -0.0394 -0.6961
   39MOL   H26411740   5.160   7.736   4.683 -2.1587 -1.4452 -1.2239
   39MOL   H26511741   5.225   7.749   4.838 -0.5088  1.7920 -1.2890
   39MOL   H26611742   5.262   7.520   4.771  0.0581  0.5947  0.3245
   39MOL   H26711743   5.047   7.339   4.474 -0.1044  1.0235  0.7604
   39MOL   H26811744   5.169   7.414   4.382 -1.5916 -0.5474 -1.2945
   39MOL   H26911745   5.334   7.281   4.523  0.5486 -0.4590 -0.2491
   39MOL   H27011746   5.245   7.178   4.408 -0.2782  0.4993 -1.1755
   39MOL   H27111747   5.194   7.188   4.580 -2.7679  0.8660 -1.6720
   39MOL   C27211748   5.140   7.481   4.927  0.0466  0.1573 -0.5632
   39MOL   C27311749   5.250   7.533   5.037  0.0740 -0.3310  0.4828
   39MOL   C27411750   5.388   7.460   5.024 -0.6588  0.6196  0.4105
   39MOL   O27511751   5.498   7.519   5.021  0.4612 -0.0039  0.0770
   39MOL   O27611752   5.368   7.325   5.038 -0.8324 -0.1693 -0.1729
   39MOL   C27711753   5.473   7.236   5.035 -0.4521  0.3691 -0.5276
   39MOL   C27811754   5.494   7.176   4.903  0.2448 -0.0288 -0.0925
   39MOL   H27911755   5.049   7.510   4.979  1.1095  1.8910  0.4078
   39MOL   H28011756   5.133   7.372   4.923  0.2859  0.1145  0.1199
   39MOL   H28111757   5.274   7.637   5.013 -2.6112 -0.4155 -3.0642
   39MOL   H28211758   5.557   7.289   5.079 -1.1492  0.0590  1.2441
   39MOL   H28311759   5.430   7.161   5.102 -0.3411  2.8835  2.4829
   39MOL   H28411760   5.533   7.258   4.842 -1.9127  1.3902  0.3661
   39MOL   H28511761   5.408   7.125   4.858 -1.6472  2.7807  0.2101
   39MOL   H28611762   5.582   7.112   4.902  0.5256  0.3526  0.0310
   39MOL   C28711763   5.198   7.530   5.183  0.3661  0.4570  0.6872
   39MOL   C28811764   5.279   7.641   5.261  0.2552 -0.4781 -0.2959
   39MOL   C28911765   5.228   7.656   5.411  0.0771 -0.2047 -0.1611
   39MOL   O29011766   5.226   7.764   5.465  0.1507  0.2318 -0.6623
   39MOL   O29111767   5.200   7.527   5.468 -0.2882 -0.7273 -0.1148
   39MOL   C29211768   5.197   7.526   5.612 -0.6052 -0.3096 -0.0089
   39MOL   C29311769   5.161   7.395   5.670 -0.1644 -0.3327 -0.1137
   39MOL   H29411770   5.094   7.555   5.207 -0.0641 -0.7529  0.1207
   39MOL   H29511771   5.208   7.427   5.218 -2.4733 -0.3876 -0.8176
   39MOL   H29611772   5.383   7.614   5.276 -0.3234 -2.2664  0.6265
   39MOL   H29711773   5.293   7.563   5.650 -0.7961 -0.6375  0.7994
   39MOL   H29811774   5.130   7.608   5.640  0.4592  1.8792 -3.5776
   39MOL   H29911775   5.068   7.366   5.621 -0.4018  0.6606 -0.2493
   39MOL   H30011776   5.149   7.414   5.776  3.3031  0.3984  0.2167
   39MOL   H30111777   5.242   7.326   5.646 -1.3283 -1.0332 -2.1675
   39MOL   H30211778   5.277   7.734   5.203  0.0555 -1.6018 -2.1439
   40MOL     C111779   0.860   0.523   1.351  0.1984  0.2568  0.4258
   40MOL     C211780   0.933   0.384   1.348 -0.2980  0.4071  0.2063
   40MOL     C311781   0.988   0.352   1.484  0.4989 -0.5551 -0.1247
   40MOL     O411782   0.950   0.253   1.548 -0.4795 -0.5825 -0.3431
   40MOL     O511783   1.067   0.443   1.531 -0.0811  0.0503  0.7765
   40MOL     C611784   1.113   0.436   1.659 -0.5657  0.0063 -0.5410
   40MOL     C711785   1.182   0.564   1.711 -0.1493 -0.1319 -0.4234
   40MOL     H811786   0.755   0.503   1.373 -0.4184  1.2130 -1.4888
   40MOL     H911787   0.850   0.568   1.252  0.9177 -0.1256  0.1744
   40MOL    H1011788   0.862   0.316   1.301  0.9376 -1.5132  1.0323
   40MOL    H1111789   1.031   0.410   1.726  0.2094  2.5478  1.4619
   40MOL    H1211790   1.188   0.357   1.658 -0.7612 -0.1841 -0.2183
   40MOL    H1311791   1.221   0.641   1.643  0.5036  2.5514  2.8617
   40MOL    H1411792   1.266   0.521   1.766 -0.5223  1.0853  1.1341
   40MOL    H1511793   1.134   0.626   1.786  0.8521 -0.3488  0.3992
   40MOL    H1611794   0.902   0.593   1.423 -0.1545  1.1892 -0.2659
   40MOL    C1711795   1.051   0.387   1.247 -0.3822 -0.2518 -0.2277
   40MOL    C1811796   1.067   0.260   1.157 -0.2549 -0.3934  0.6214
   40MOL    C1911797   1.092   0.129   1.230 -0.0570  0.0554 -0.4392
   40MOL    O2011798   1.006   0.042   1.227 -0.2509  0.3649  1.1707
   40MOL    O2111799   1.209   0.120   1.297 -0.2245 -0.6382 -0.0856
   40MOL    C2211800   1.248   0.001   1.355 -0.0519  0.1576 -0.6041
   40MOL    C2311801   1.308   0.047   1.489  0.1342 -0.5939 -0.4801
   40MOL    H2411802   1.065   0.479   1.190 -0.3462  0.2482  0.5782
   40MOL    H2511803   1.147   0.405   1.295  0.1843 -1.0639 -1.0342
   40MOL    H2611804   0.977   0.231   1.102 -0.1335  0.4222 -0.0081
   40MOL    H2711805   1.162   7.846   1.378  2.0574 -3.0111 -1.0489
   40MOL    H2811806   1.323   7.862   1.292 -1.4402 -2.7568 -0.1601
   40MOL    H2911807   1.322   7.870   1.555  0.3129 -0.6200 -0.5503
   40MOL    H3011808   1.242   0.125   1.525  1.4368  1.3452 -2.1511
   40MOL    H3111809   1.409   0.088   1.483  0.2566 -0.9304 -0.7076
   40MOL    C3211810   1.174   0.287   1.041  0.9378 -0.0318  0.3328
   40MOL    C3311811   1.153   0.201   0.916  0.1935 -0.0862  0.7126
   40MOL    C3411812   1.274   0.218   0.827  0.4590 -0.2147 -0.0100
   40MOL    O3511813   1.364   0.137   0.819 -0.0338  0.0643 -0.1329
   40MOL    O3611814   1.273   0.335   0.760 -0.4141 -0.0369 -0.7353
   40MOL    C3711815   1.376   0.362   0.666 -0.2499 -0.0266  0.2181
   40MOL    C3811816   1.334   0.486   0.599  0.0866  0.3293  0.1117
   40MOL    H3911817   1.175   0.389   1.001 -0.0603 -0.1504 -0.0110
   40MOL    H4011818   1.269   0.284   1.094  1.2548  0.5902 -0.1900
   40MOL    H4111819   1.147   0.095   0.938  1.0417  0.1898  2.3247
   40MOL    H4211820   1.472   0.384   0.712  0.3336  0.0119 -1.0059
   40MOL    H4311821   1.398   0.284   0.593  1.0819 -0.6137  1.2240
   40MOL    H4411822   1.226   0.472   0.594  0.3491 -2.5642  1.3643
   40MOL    H4511823   1.378   0.497   0.500 -0.0279  2.1326  0.2527
   40MOL    H4611824   1.349   0.580   0.651  0.2935  0.3537  0.0078
   40MOL    C4711825   1.010   0.230   0.841 -0.2518 -0.6345 -0.0442
   40MOL    C4811826   0.921   0.107   0.808  0.0201 -0.4053 -0.0836
   40MOL    C4911827   0.976   0.020   0.703 -0.1488  0.6863  0.0571
   40MOL    O5011828   0.980   7.806   0.717  0.6062  0.4744 -0.3892
   40MOL    O5111829   1.019   0.083   0.598  0.2664  0.7536  0.0887
   40MOL    C5211830   1.113   0.024   0.514 -0.0052 -0.0928 -0.1720
   40MOL    C5311831   1.148   0.124   0.410  0.3869 -0.4762  0.1599
   40MOL    H5411832   0.959   0.312   0.890  0.6720  0.2479 -0.5571
   40MOL    H5511833   1.034   0.278   0.747 -0.3785  1.1420  0.8226
   40MOL    H5611834   0.903   0.041   0.894 -0.8534  1.0008  0.8417
   40MOL    H5711835   1.194   7.886   0.570 -0.3399 -0.8727 -0.3321
   40MOL    H5811836   1.068   7.842   0.471 -0.7882  0.2710 -0.1253
   40MOL    H5911837   1.065   0.157   0.349  1.2945 -0.2792 -1.0006
   40MOL    H6011838   1.224   0.086   0.341  0.2036 -1.6236  0.5711
   40MOL    H6111839   1.191   0.211   0.459 -0.3236 -0.9237  1.5902
   40MOL    C6211840   0.777   0.154   0.761 -0.0345 -0.5279  0.0552
   40MOL    C6311841   0.699   0.262   0.843  0.4149 -0.6372 -0.1025
   40MOL    C6411842   0.705   0.260   0.999 -0.1145 -0.0910  0.1588
   40MOL    O6511843   0.733   0.352   1.071  0.3778  0.6202  0.2461
   40MOL    O6611844   0.680   0.131   1.051  0.0541 -0.2821  0.7979
   40MOL    C6711845   0.646   0.106   1.190 -0.0431  0.0794 -0.1653
   40MOL    C6811846   0.497   0.074   1.204  0.4464 -0.1580  0.7403
   40MOL    H6911847   0.795   0.197   0.663 -0.1389  2.2112  1.1873
   40MOL    H7011848   0.733   0.057   0.739 -0.5234  0.2285 -2.3190
   40MOL    H7111849   0.741   0.359   0.819  1.3079 -0.9788  0.0482
   40MOL    H7211850   0.699   0.014   1.216  0.7413  0.3199 -0.9112
   40MOL    H7311851   0.692   0.177   1.259  1.1489 -1.3783  0.5792
   40MOL    H7411852   0.458   0.176   1.203 -2.5238 -1.2406  0.8201
   40MOL    H7511853   0.464   0.012   1.287  0.4127 -1.0056  0.1090
   40MOL    H7611854   0.464   0.019   1.115 -0.3071  0.8571  0.3745
   40MOL    C7711855   0.558   0.269   0.786  0.0273  0.2425 -0.5916
   40MOL    C7811856   0.473   0.388   0.834  0.0309  0.3549 -0.3152
   40MOL    C7911857   0.323   0.388   0.804 -0.8890  0.5638 -0.2892
   40MOL    O8011858   0.240   0.435   0.883 -0.9477  0.0788  0.5318
   40MOL    O8111859   0.296   0.333   0.686  0.1989 -0.6797  0.0990
   40MOL    C8211860   0.163   0.302   0.658 -0.3965 -0.0742  0.3198
   40MOL    C8311861   0.126   0.292   0.509  0.5783  0.1341 -0.0194
   40MOL    H8411862   0.558   0.280   0.677 -2.5247  1.9363 -0.4697
   40MOL    H8511863   0.523   0.170   0.815  0.4390  0.2955  0.1008
   40MOL    H8611864   0.475   0.393   0.943 -1.3386  0.2699 -0.2805
   40MOL    H8711865   0.152   0.204   0.704 -0.6885  0.1895  0.8148
   40MOL    H8811866   0.096   0.378   0.699 -0.2150  1.6725 -2.4760
   40MOL    H8911867   0.140   0.187   0.483  1.3832  0.0044  0.8897
   40MOL    H9011868   0.169   0.367   0.443  1.6448 -0.5294 -0.0949
   40MOL    H9111869   0.021   0.314   0.489  0.6500  1.4503  0.9579
   40MOL    C9211870   0.536   0.520   0.774  0.3293 -0.6833 -0.4675
   40MOL    C9311871   0.601   0.611   0.877 -0.1202  0.0664 -0.3113
   40MOL    C9411872   0.497   0.661   0.982 -0.3057  0.2270 -0.0456
   40MOL    O9511873   0.472   0.598   1.083 -0.0811 -0.6787 -0.7173
   40MOL    O9611874   0.428   0.766   0.940  0.2179  0.2238  0.1457
   40MOL    C9711875   0.326   0.827   1.020  0.1555 -0.4573  0.1834
   40MOL    C9811876   0.390   0.925   1.118  0.4911 -0.0334  0.3315
   40MOL    H9911877   0.614   0.495   0.702  1.7489 -0.6818  1.0436
   40MOL   H10011878   0.458   0.585   0.735  0.4435  1.2697  2.3926
   40MOL   H10111879   0.665   0.547   0.938 -1.5140 -0.5146  0.5604
   40MOL   H10211880   0.257   0.867   0.945 -0.3048 -1.4514  0.0710
   40MOL   H10311881   0.265   0.750   1.067 -0.1658 -0.5879 -0.4431
   40MOL   H10411882   0.402   0.869   1.211  0.8544  1.3526  1.1342
   40MOL   H10511883   0.329   1.014   1.129  0.0222 -0.1606 -1.1381
   40MOL   H10611884   0.485   0.957   1.075 -0.1416 -0.3846 -1.3330
   40MOL   C10711885   0.689   0.724   0.812 -0.3422 -0.0573  0.4203
   40MOL   C10811886   0.826   0.755   0.888  0.0121 -0.3780 -0.0069
   40MOL   C10911887   0.797   0.844   1.003 -0.3173 -0.4858 -0.7231
   40MOL   O11011888   0.740   0.952   0.984 -0.1814  0.2161  0.3687
   40MOL   O11111889   0.838   0.793   1.120  0.2787 -0.1706  0.1292
   40MOL   C11211890   0.819   0.866   1.239 -0.4102 -0.1161 -0.4933
   40MOL   C11311891   0.685   0.825   1.300 -0.3837 -0.2904 -0.7672
   40MOL   H11411892   0.709   0.694   0.709  0.4762 -1.8472  1.0838
   40MOL   H11511893   0.627   0.811   0.789 -0.4664 -1.0859 -3.4242
   40MOL   H11611894   0.874   0.663   0.921  2.9363  1.2897  0.5445
   40MOL   H11711895   0.909   0.856   1.300  0.2049  1.2726 -1.1345
   40MOL   H11811896   0.816   0.974   1.221  0.2356 -0.3937 -2.4827
   40MOL   H11911897   0.610   0.833   1.221 -1.2623  0.5979  0.1422
   40MOL   H12011898   0.656   0.888   1.384  2.0938  0.1563 -0.2290
   40MOL   H12111899   0.676   0.723   1.336 -1.1657 -0.2011 -0.6935
   40MOL   C12211900   0.929   0.822   0.791 -0.2248  0.3620  0.4634
   40MOL   C12311901   1.072   0.844   0.846 -0.3820  0.1625 -0.3972
   40MOL   C12411902   1.158   0.924   0.738  0.0829  0.0500 -1.2174
   40MOL   O12511903   1.132   0.893   0.624 -0.1030 -0.1236  0.7006
   40MOL   O12611904   1.253   1.000   0.782  0.1494  0.8485 -0.5278
   40MOL   C12711905   1.330   1.074   0.691 -0.2293 -1.0665  0.1205
   40MOL   C12811906   1.473   1.083   0.763  0.2552  0.0229  0.2535
   40MOL   H12911907   0.935   0.754   0.705  1.5621  0.2627  0.6439
   40MOL   H13011908   0.876   0.913   0.762 -1.5297 -0.2826  0.7818
   40MOL   H13111909   1.060   0.899   0.939 -0.4762 -2.1016  0.9748
   40MOL   H13211910   1.337   1.025   0.594 -0.3289 -0.9320  0.0461
   40MOL   H13311911   1.291   1.175   0.683  3.8618  0.4308 -2.0706
   40MOL   H13411912   1.465   1.141   0.855  2.1443  3.2141 -1.4898
   40MOL   H13511913   1.545   1.133   0.697  0.0013 -0.6334 -0.5256
   40MOL   H13611914   1.508   0.983   0.790 -0.2920 -0.2743 -0.1418
   40MOL   C13711915   1.147   0.711   0.891  0.2990  0.1692 -0.1753
   40MOL   C13811916   1.252   0.740   1.000 -0.7717 -0.0784  0.1129
   40MOL   C13911917   1.377   0.654   0.977 -0.3391 -0.0838 -0.5570
   40MOL   O14011918   1.382   0.540   1.019 -0.1940  0.0163  0.1840
   40MOL   O14111919   1.480   0.719   0.921 -0.0645 -0.5372  0.4263
   40MOL   C14211920   1.603   0.654   0.913 -0.3590  0.4755 -0.9847
   40MOL   C14311921   1.709   0.746   0.847  0.3137  0.0435 -0.1842
   40MOL   H14411922   1.073   0.644   0.934 -0.8647  0.6495 -1.3964
   40MOL   H14511923   1.179   0.666   0.797  1.7185 -1.5952  1.1182
   40MOL   H14611924   1.278   0.844   0.979 -2.0796  0.3055  0.2936
   40MOL   H14711925   1.632   0.635   1.016 -1.3851 -1.7301 -1.0829
   40MOL   H14811926   1.591   0.553   0.875 -0.1762 -0.4989  1.4749
   40MOL   H14911927   1.698   0.773   0.742  0.6542 -0.7718 -0.4339
   40MOL   H15011928   1.809   0.705   0.860 -0.1377 -0.6864  0.9651
   40MOL   H15111929   1.702   0.841   0.901 -0.6246 -1.0875  1.7097
   40MOL   C15211930   1.205   0.725   1.149 -0.0013 -0.1519 -0.5244
   40MOL   C15311931   1.232   0.850   1.237 -0.2440 -0.5215 -0.0443
   40MOL   C15411932   1.380   0.896   1.235 -0.8634 -0.7871  0.3551
   40MOL   O15511933   1.413   1.015   1.210  0.6447 -0.5479  0.8056
   40MOL   O15611934   1.450   0.802   1.273 -0.4127 -0.8184 -0.7160
   40MOL   C15711935   1.589   0.816   1.273 -0.2738 -0.5520 -0.4401
   40MOL   C15811936   1.637   0.842   1.412 -0.3903  0.4053 -0.2493
   40MOL   H15911937   1.096   0.715   1.150  0.0041 -0.2063 -0.4080
   40MOL   H16011938   1.242   0.631   1.190  0.2010 -0.3527 -1.1529
   40MOL   H16111939   1.183   0.935   1.190 -0.1376 -1.4560 -1.8716
   40MOL   H16211940   1.640   0.722   1.251  1.3306  0.6862 -2.1650
   40MOL   H16311941   1.628   0.891   1.205  0.4498 -0.1574  0.4050
   40MOL   H16411942   1.738   0.882   1.417 -0.0366 -0.5034 -0.0006
   40MOL   H16511943   1.634   0.748   1.467 -0.8325  0.8688  0.5343
   40MOL   H16611944   1.577   0.913   1.468  2.2507  3.2863 -0.9616
   40MOL   C16711945   1.181   0.853   1.382 -0.4178 -0.0659 -0.3478
   40MOL   C16811946   1.175   0.994   1.457 -0.4113 -0.0959 -0.7702
   40MOL   C16911947   1.210   0.968   1.606  0.1075 -0.1250  0.2488
   40MOL   O17011948   1.127   0.982   1.700 -0.0530  0.5201  0.2931
   40MOL   O17111949   1.341   0.928   1.630 -0.4096  0.4953 -0.2120
   40MOL   C17211950   1.380   0.894   1.765  0.7917 -0.1261  0.2180
   40MOL   C17311951   1.532   0.853   1.767 -0.2542 -0.3055 -0.9132
   40MOL   H17411952   1.080   0.813   1.392 -0.3131 -0.9559 -2.4667
   40MOL   H17511953   1.245   0.794   1.448  0.4378  1.9184  0.6171
   40MOL   H17611954   1.255   1.047   1.405 -1.1591 -0.1156 -1.9701
   40MOL   H17711955   1.358   0.975   1.835  0.4131  0.4977 -0.6118
   40MOL   H17811956   1.321   0.810   1.801  1.0761  0.0011  0.9790
   40MOL   H17911957   1.572   0.790   1.688  0.3376  0.7844 -1.4958
   40MOL   H18011958   1.553   0.799   1.859 -1.0028 -1.2788 -1.3088
   40MOL   H18111959   1.586   0.947   1.764 -0.4742 -0.2314 -3.0052
   40MOL   C18211960   1.040   1.054   1.437 -0.1104  0.1217  0.5000
   40MOL   C18311961   1.015   1.206   1.469  0.1722  0.2496 -0.5550
   40MOL   C18411962   0.870   1.251   1.479 -0.4615  0.5211 -0.0666
   40MOL   O18511963   0.829   1.298   1.589  0.5639 -0.3529 -0.0778
   40MOL   O18611964   0.799   1.211   1.367 -0.5600 -0.0441 -0.3501
   40MOL   C18711965   0.660   1.215   1.374 -0.6017  0.5485 -0.5122
   40MOL   C18811966   0.603   1.202   1.231 -0.2352 -0.3152  0.2682
   40MOL   H18911967   1.012   1.053   1.332  3.9789  1.6232 -0.6909
   40MOL   H19011968   0.971   0.998   1.500 -0.1802 -0.3411  0.0171
   40MOL   H19111969   1.055   1.209   1.571 -0.8620 -1.1622 -0.0851
   40MOL   H19211970   0.627   1.128   1.432 -1.3705  2.0604  1.3667
   40MOL   H19311971   0.638   1.304   1.433  1.4030  0.5931  0.2058
   40MOL   H19411972   0.627   1.296   1.182 -0.5337  0.5390  1.7488
   40MOL   H19511973   0.495   1.198   1.240 -0.4659 -0.2062 -2.2680
   40MOL   H19611974   0.635   1.114   1.174  1.8173  1.5057 -1.4524
   40MOL   C19711975   1.103   1.297   1.383  0.1414 -0.4577  0.4789
   40MOL   C19811976   1.179   1.398   1.473  0.5884  0.2437 -0.0505
   40MOL   C19911977   1.287   1.335   1.567 -0.1147 -0.0788  0.1331
   40MOL   O20011978   1.274   1.319   1.692  0.3527  0.2053  0.1196
   40MOL   O20111979   1.392   1.295   1.492 -0.7140  0.0755  0.0957
   40MOL   C20211980   1.488   1.206   1.552 -0.2419  0.6617  0.2155
   40MOL   C20311981   1.622   1.287   1.571  0.0257  0.3797 -0.2111
   40MOL   H20411982   1.178   1.239   1.330  1.4301  0.6417  1.0583
   40MOL   H20511983   1.040   1.355   1.315 -2.1765 -1.1235  1.9712
   40MOL   H20611984   1.248   1.448   1.406 -1.2339  3.3470  0.2773
   40MOL   H20711985   1.463   1.184   1.656  1.3127  2.7851  1.0896
   40MOL   H20811986   1.498   1.109   1.505  0.5700 -0.1214  1.9512
   40MOL   H20911987   1.648   1.338   1.479  2.0327 -0.0892  0.0855
   40MOL   H21011988   1.700   1.220   1.606 -2.2056 -1.5938  1.1515
   40MOL   H21111989   1.603   1.363   1.647  0.6291  1.6326 -1.2980
   40MOL   C21211990   1.102   1.501   1.557 -0.4684 -0.0581  0.1630
   40MOL   C21311991   1.040   1.618   1.471 -0.0180 -0.0185  0.1703
   40MOL   C21411992   1.148   1.718   1.413  0.4667 -0.1725 -0.0944
   40MOL   O21511993   1.202   1.700   1.300 -0.6880  0.3372  0.0995
   40MOL   O21611994   1.169   1.825   1.497 -0.0250  0.3198 -0.3322
   40MOL   C21711995   1.277   1.912   1.464  0.4775  0.3262  0.2043
   40MOL   C21811996   1.248   2.061   1.484 -0.3937 -0.3427  0.3206
   40MOL   H21911997   1.023   1.454   1.615 -0.5955  1.2434  1.0849
   40MOL   H22011998   1.164   1.541   1.638 -0.8220 -3.2160  2.0521
   40MOL   H22111999   1.005   1.564   1.382 -1.9102  2.9893 -0.9805
   40MOL   H22212000   1.358   1.876   1.528  0.0302 -2.4277 -0.6896
   40MOL   H22312001   1.322   1.903   1.366 -0.0417  2.5586 -0.2625
   40MOL   H22412002   1.163   2.095   1.425 -0.3511 -0.4171  0.2177
   40MOL   H22512003   1.337   2.103   1.439  1.2801 -2.4477  1.6027
   40MOL   H22612004   1.231   2.085   1.589 -2.0755  1.9418 -0.4357
   40MOL   C22712005   0.920   1.688   1.534  0.8838  0.1415 -0.1494
   40MOL   C22812006   0.780   1.640   1.477  0.8036  0.2960 -0.8357
   40MOL   C22912007   0.766   1.643   1.327  0.2566 -0.4340 -0.1148
   40MOL   O23012008   0.717   1.552   1.263  0.1122  0.2942 -0.3021
   40MOL   O23112009   0.812   1.758   1.265  0.7768  0.4972  0.2379
   40MOL   C23212010   0.801   1.770   1.124 -0.1985 -0.8121  0.2752
   40MOL   C23312011   0.895   1.883   1.073  0.1002  0.5028 -0.4078
   40MOL   H23412012   0.921   1.681   1.642 -0.8215 -0.2602 -0.1476
   40MOL   H23512013   0.928   1.794   1.509 -0.5725  0.7828  2.0034
   40MOL   H23612014   0.773   1.535   1.504  1.0227  0.7402  1.0500
   40MOL   H23712015   0.850   1.683   1.079 -0.7924 -0.8986 -0.2051
   40MOL   H23812016   0.698   1.784   1.091  0.3134  0.5798 -0.7946
   40MOL   H23912017   0.880   1.896   0.966 -0.2494 -0.9473 -0.5481
   40MOL   H24012018   0.998   1.871   1.105 -0.0496 -0.9650 -0.4364
   40MOL   H24112019   0.861   1.973   1.124  1.6439  0.4137  0.8102
   40MOL   C24212020   0.655   1.719   1.536 -0.1514 -0.1381 -0.3261
   40MOL   C24312021   0.633   1.722   1.688 -0.1417 -0.8343 -0.4629
   40MOL   C24412022   0.640   1.583   1.749 -0.0581 -0.2161  0.0889
   40MOL   O24512023   0.738   1.527   1.802  0.3731  0.4987  0.0055
   40MOL   O24612024   0.521   1.533   1.731  0.8766 -0.1929 -0.1668
   40MOL   C24712025   0.496   1.413   1.801  0.2709  0.4759  0.2683
   40MOL   C24812026   0.481   1.295   1.702  0.4453 -0.1239  0.4831
   40MOL   H24912027   0.654   1.822   1.502  0.5589 -0.2118 -0.5761
   40MOL   H25012028   0.573   1.667   1.485  0.2329 -0.6887 -0.3903
   40MOL   H25112029   0.713   1.782   1.733 -0.5341 -0.8429  0.2567
   40MOL   H25212030   0.566   1.382   1.879  1.9718 -0.2472 -1.4772
   40MOL   H25312031   0.397   1.429   1.841 -0.3646  0.5149 -1.2887
   40MOL   H25412032   0.581   1.264   1.670  1.0017  1.3862  0.6999
   40MOL   H25512033   0.423   1.328   1.616  0.0328 -1.5501  0.2046
   40MOL   H25612034   0.434   1.209   1.749 -0.1818 -1.0039 -1.7130
   40MOL   C25712035   0.504   1.804   1.733 -0.6150  0.4929  0.5432
   40MOL   C25812036   0.479   1.827   1.882 -0.5129  0.3031  0.3261
   40MOL   C25912037   0.328   1.790   1.907 -0.2573  0.3606  1.0586
   40MOL   O26012038   0.236   1.869   1.881  0.2147 -0.2790  0.5194
   40MOL   O26112039   0.308   1.663   1.957 -0.1762 -0.0796  0.0562
   40MOL   C26212040   0.181   1.615   1.987 -0.2220 -0.2330  0.1183
   40MOL   C26312041   0.132   1.527   1.865 -0.2266 -0.3653  0.0370
   40MOL   H26412042   0.490   1.894   1.673  2.0132  0.5503 -0.0693
   40MOL   H26512043   0.422   1.749   1.686  0.5352  0.0672 -1.0451
   40MOL   H26612044   0.542   1.758   1.938  0.6172  0.1689 -1.0937
   40MOL   H26712045   0.192   1.550   2.073 -1.9146 -0.7814 -0.0641
   40MOL   H26812046   0.109   1.690   2.022 -0.0183 -0.3796  0.8608
   40MOL   H26912047   0.182   1.430   1.863  0.3276 -0.0959  0.4555
   40MOL   H27012048   0.172   1.572   1.775 -0.4203 -0.7277 -0.2298
   40MOL   H27112049   0.023   1.521   1.858 -0.1298 -1.4323 -0.5526
   40MOL   C27212050   0.510   1.970   1.931  0.5402 -0.5242 -0.6161
   40MOL   C27312051   0.608   1.976   2.053 -0.0460  0.3473  0.6240
   40MOL   C27412052   0.743   1.916   2.015 -0.7234  0.6360  0.3607
   40MOL   O27512053   0.810   1.831   2.077  0.1304  0.0626 -0.1000
   40MOL   O27612054   0.788   1.978   1.902 -0.0250  0.2163 -0.5505
   40MOL   C27712055   0.913   1.938   1.850  0.3567 -0.0339 -0.1025
   40MOL   C27812056   0.947   2.023   1.727  0.0133 -0.0262 -0.0115
   40MOL   H27912057   0.559   2.023   1.850 -1.6967  0.1147 -1.5617
   40MOL   H28012058   0.428   2.036   1.959  0.2295 -2.1960  2.7091
   40MOL   H28112059   0.641   2.074   2.086 -0.9287  0.6689  0.5415
   40MOL   H28212060   0.982   1.957   1.932  0.3131 -0.3714  0.0100
   40MOL   H28312061   0.914   1.831   1.831  1.8980 -0.1885  0.7828
   40MOL   H28412062   1.051   2.010   1.698  0.0011 -2.4343  0.8996
   40MOL   H28512063   0.932   2.126   1.758  0.6422 -0.2468  1.0251
   40MOL   H28612064   0.880   1.985   1.650 -0.7850  0.0339  0.6446
   40MOL   C28712065   0.555   1.906   2.180  0.7378 -0.3664  0.2206
   40MOL   C28812066   0.481   2.010   2.266  0.2353  0.5778  0.0162
   40MOL   C28912067   0.564   2.089   2.370  0.4579  0.0294 -0.1814
   40MOL   O29012068   0.689   2.092   2.370 -0.5555 -0.1571 -0.2082
   40MOL   O29112069   0.482   2.144   2.467  0.0513  0.0358 -0.1837
   40MOL   C29212070   0.549   2.203   2.581  0.4077  0.0094 -0.4101
   40MOL   C29312071   0.570   2.081   2.685  0.1299 -0.0493  0.0533
   40MOL   H29412072   0.490   1.820   2.161 -0.3900  0.8638 -1.6155
   40MOL   H29512073   0.636   1.870   2.243  1.8152  3.7041  1.2928
   40MOL   H29612074   0.427   2.082   2.205 -0.3791 -0.4475 -0.6660
   40MOL   H29712075   0.637   2.260   2.551  0.2396  0.7450  0.4697
   40MOL   H29812076   0.474   2.265   2.629 -0.5711 -2.2649  1.0484
   40MOL   H29912077   0.508   1.993   2.666 -0.8174  0.2700  1.6135
   40MOL   H30012078   0.570   2.104   2.791  1.3332 -0.2217  0.0941
   40MOL   H30112079   0.664   2.039   2.651 -1.2647 -3.6178  0.3746
   40MOL   H30212080   0.406   1.954   2.322 -0.0319 -0.6806 -1.5757
   41MOL     C112081   1.057   3.540   7.137  0.2606 -0.0175 -0.4262
   41MOL     C212082   1.146   3.659   7.141 -0.0304 -0.3700 -0.0106
   41MOL     C312083   1.222   3.669   7.006 -0.3747  0.4252 -0.2800
   41MOL     O412084   1.317   3.592   6.986  0.1283  0.3147  0.1143
   41MOL     O512085   1.174   3.747   6.907 -0.3922  0.4843 -0.7468
   41MOL     C612086   1.241   3.763   6.782 -0.0763 -0.5656  0.6954
   41MOL     C712087   1.333   3.888   6.801 -0.3153  0.1604 -0.0187
   41MOL     H812088   1.108   3.446   7.116 -2.7403 -1.6813 -0.4490
   41MOL     H912089   0.987   3.562   7.057  1.3605 -1.9527 -1.9368
   41MOL    H1012090   1.074   3.741   7.146  0.9834  0.5667 -0.4071
   41MOL    H1112091   1.299   3.675   6.754 -1.0136 -0.8809 -0.3086
   41MOL    H1212092   1.167   3.763   6.701 -0.9326 -2.1915  1.4653
   41MOL    H1312093   1.263   3.971   6.800 -0.8287 -0.2683 -1.3479
   41MOL    H1412094   1.396   3.896   6.712  3.0933 -0.2013  2.2726
   41MOL    H1512095   1.399   3.883   6.887  0.1131  1.7360 -0.2478
   41MOL    H1612096   1.002   3.532   7.231 -1.1220 -0.2128 -1.2531
   41MOL    C1712097   1.234   3.657   7.267 -0.2347  0.0031  0.0399
   41MOL    C1812098   1.302   3.794   7.299 -0.1887 -0.8193  1.0881
   41MOL    C1912099   1.425   3.841   7.214  0.0156  0.3651  0.4761
   41MOL    O2012100   1.434   3.950   7.157  0.2869  0.1281 -0.5172
   41MOL    O2112101   1.517   3.750   7.196  0.1321 -0.8059 -0.1994
   41MOL    C2212102   1.630   3.780   7.118 -0.0401  0.2297  0.1816
   41MOL    C2312103   1.744   3.696   7.176  0.7007 -0.1973 -0.2888
   41MOL    H2412104   1.169   3.623   7.347 -1.3849  0.7255 -0.5756
   41MOL    H2512105   1.315   3.585   7.253 -0.2532  0.3657 -2.1435
   41MOL    H2612106   1.230   3.873   7.276  2.7553  1.4660 -0.5935
   41MOL    H2712107   1.611   3.766   7.012  0.9055  0.8006 -0.0655
   41MOL    H2812108   1.660   3.883   7.134 -1.4842  0.8176 -0.8071
   41MOL    H2912109   1.716   3.591   7.182 -0.4774  0.1584  0.5869
   41MOL    H3012110   1.757   3.727   7.280 -1.9455  2.0940 -0.5776
   41MOL    H3112111   1.833   3.708   7.114 -0.1908  1.8669 -1.1792
   41MOL    C3212112   1.339   3.797   7.452  0.0160  0.0423  0.0779
   41MOL    C3312113   1.221   3.831   7.543  0.7123  0.4688 -0.2572
   41MOL    C3412114   1.204   3.982   7.543  0.0697  0.1762  0.0414
   41MOL    O3512115   1.300   4.057   7.544 -0.4974  0.2977  0.6664
   41MOL    O3612116   1.076   4.016   7.541  0.5021  0.4554  0.5178
   41MOL    C3712117   1.023   4.147   7.513 -0.0784 -0.2070 -0.0407
   41MOL    C3812118   0.883   4.156   7.575  0.8306 -0.0433 -0.4699
   41MOL    H3912119   1.388   3.705   7.485 -0.0816  0.5155  1.6009
   41MOL    H4012120   1.429   3.856   7.469  2.3844 -3.6102  0.7236
   41MOL    H4112121   1.140   3.788   7.484 -1.1818  1.5925  1.4496
   41MOL    H4212122   1.090   4.220   7.557  0.0302 -0.3144 -0.0288
   41MOL    H4312123   1.029   4.153   7.404 -2.4210  0.3012 -0.1617
   41MOL    H4412124   0.821   4.245   7.559 -1.0676 -1.1559  0.5597
   41MOL    H4512125   0.888   4.150   7.683 -0.8074  1.7540 -0.2695
   41MOL    H4612126   0.823   4.069   7.551  1.4228 -0.6551  0.2631
   41MOL    C4712127   1.230   3.779   7.688 -0.2756  0.2237  0.3270
   41MOL    C4812128   1.188   3.634   7.688 -0.3597  0.2052 -0.4585
   41MOL    C4912129   1.040   3.618   7.673  0.4924 -0.2934 -0.5432
   41MOL    O5012130   0.957   3.659   7.756 -0.2320  0.4095 -0.5281
   41MOL    O5112131   1.003   3.570   7.553 -0.2769  0.1071  0.3519
   41MOL    C5212132   0.870   3.562   7.517 -0.0449 -0.0454 -0.3753
   41MOL    C5312133   0.817   3.698   7.471 -0.2502 -0.5756 -0.1407
   41MOL    H5412134   1.330   3.799   7.728 -0.4253 -1.0110  1.3797
   41MOL    H5512135   1.168   3.832   7.760 -1.4215  0.3621 -0.7601
   41MOL    H5612136   1.228   3.586   7.599 -0.8738  0.0720 -0.6207
   41MOL    H5712137   0.851   3.500   7.428 -1.4432  0.9802 -0.8025
   41MOL    H5812138   0.804   3.514   7.589 -0.6815 -1.4477 -1.8472
   41MOL    H5912139   0.876   3.775   7.522  0.5755 -0.5746 -1.0789
   41MOL    H6012140   0.717   3.719   7.510  1.1514  3.6551  1.4863
   41MOL    H6112141   0.825   3.710   7.363  2.0328 -1.3291 -0.0717
   41MOL    C6212142   1.239   3.562   7.814 -0.7093  0.1741  0.4643
   41MOL    C6312143   1.392   3.556   7.843  1.0336  0.3696  0.5290
   41MOL    C6412144   1.470   3.473   7.738 -0.0587  0.0402 -0.3323
   41MOL    O6512145   1.420   3.411   7.646  0.1765  0.0100 -0.2834
   41MOL    O6612146   1.605   3.478   7.763  0.1190 -0.3554  0.0981
   41MOL    C6712147   1.694   3.407   7.676 -0.2113  0.2752 -0.6099
   41MOL    C6812148   1.716   3.263   7.735  0.2252 -0.3746 -0.2306
   41MOL    H6912149   1.171   3.585   7.895  1.1396 -0.1478  2.1527
   41MOL    H7012150   1.215   3.456   7.806 -1.8482  0.4887 -0.3239
   41MOL    H7112151   1.430   3.658   7.841  1.7736  0.1218  1.9479
   41MOL    H7212152   1.685   3.407   7.567  1.2951  1.4993 -0.7647
   41MOL    H7312153   1.794   3.451   7.681  1.0715 -2.8032  2.8681
   41MOL    H7412154   1.795   3.218   7.675 -0.3575  0.4239 -1.6388
   41MOL    H7512155   1.623   3.207   7.728 -0.3010  0.3720  0.7231
   41MOL    H7612156   1.752   3.274   7.837 -0.2515 -1.9891  0.1197
   41MOL    C7712157   1.411   3.511   0.081  0.0329 -0.0489  0.0209
   41MOL    C7812158   1.360   3.363   0.109 -0.7117  0.4031  0.7048
   41MOL    C7912159   1.209   3.370   0.164 -0.2551  0.1551 -0.2999
   41MOL    O8012160   1.119   3.316   0.101 -1.0972 -0.0676 -0.5884
   41MOL    O8112161   1.199   3.416   0.292  0.1674  0.6871  0.3128
   41MOL    C8212162   1.078   3.407   0.362 -0.7256  0.2769 -0.2990
   41MOL    C8312163   0.993   3.533   0.316 -0.0742  0.2042 -0.2982
   41MOL    H8412164   1.517   3.516   0.106  0.1127 -0.1561 -0.2919
   41MOL    H8512165   1.359   3.585   0.143 -1.3944  0.1108 -1.3466
   41MOL    H8612166   1.349   3.312   0.014  1.0053  0.2357  0.5810
   41MOL    H8712167   1.030   3.314   0.331  0.1413 -0.4537  0.5222
   41MOL    H8812168   1.098   3.408   0.469  0.0050 -0.9146 -0.4198
   41MOL    H8912169   0.894   3.506   0.351  0.7435 -2.0295  0.4066
   41MOL    H9012170   0.997   3.534   0.207 -0.8173  0.5290 -0.3202
   41MOL    H9112171   1.032   3.629   0.350  0.6485  0.6646 -2.3532
   41MOL    C9212172   1.461   3.280   0.204 -0.8257  0.0187  0.1327
   41MOL    C9312173   1.432   3.132   0.222  0.2009 -0.0864  1.0338
   41MOL    C9412174   1.433   3.074   0.079 -0.7615 -0.2298  0.6701
   41MOL    O9512175   1.541   3.030   0.038  0.3587  0.3520 -0.0921
   41MOL    O9612176   1.321   3.065   0.012 -0.2255 -0.0692 -0.1060
   41MOL    C9712177   1.325   3.020   7.791 -0.7396 -0.3016  0.2793
   41MOL    C9812178   1.184   3.040   7.723 -0.1123 -0.6020 -1.3229
   41MOL    H9912179   1.560   3.302   0.164 -0.2407 -3.9738 -0.7417
   41MOL   H10012180   1.458   3.337   0.298  1.7368 -1.9168  1.4269
   41MOL   H10112181   1.517   3.089   0.274  0.7375  0.7266  0.8322
   41MOL   H10212182   1.401   3.073   7.734 -0.4408  0.7286  1.6235
   41MOL   H10312183   1.352   2.914   7.796 -0.0095 -0.0547  1.6604
   41MOL   H10412184   1.162   3.145   7.706 -2.3541 -0.5478  1.4608
   41MOL   H10512185   1.109   3.009   7.796  2.3216 -0.5052  1.2815
   41MOL   H10612186   1.169   2.983   7.631  0.8038 -0.0632 -1.8107
   41MOL   C10712187   1.312   3.105   0.306  0.1144  0.6262 -0.8114
   41MOL   C10812188   1.330   3.000   0.425 -0.1709  0.5934 -0.0186
   41MOL   C10912189   1.354   2.857   0.374  0.1989 -0.6520 -0.3999
   41MOL   O11012190   1.280   2.764   0.405 -0.7085  0.0580 -0.2206
   41MOL   O11112191   1.470   2.852   0.308 -0.3082  0.5562  0.2751
   41MOL   C11212192   1.519   2.730   0.263 -0.8909 -0.0197  0.1895
   41MOL   C11312193   1.528   2.724   0.111 -0.4688 -0.0399 -0.1936
   41MOL   H11412194   1.286   3.195   0.361 -0.6336  0.3494 -0.7097
   41MOL   H11512195   1.221   3.077   0.253 -1.3113  2.9817  0.3370
   41MOL   H11612196   1.421   3.020   0.482 -0.5852 -1.3429  1.3779
   41MOL   H11712197   1.611   2.703   0.316 -1.2367 -1.5844  0.0096
   41MOL   H11812198   1.456   2.642   0.278 -0.0520 -0.4266  1.3881
   41MOL   H11912199   1.444   2.766   0.056 -0.5546 -1.0659 -0.8695
   41MOL   H12012200   1.557   2.626   0.072  0.4957  1.0749 -2.3440
   41MOL   H12112201   1.606   2.797   0.089 -1.9166  1.7883  0.6543
   41MOL   C12212202   1.217   3.009   0.532  0.1781 -0.6038  0.1761
   41MOL   C12312203   1.191   3.145   0.608  0.2979 -0.0471  0.4417
   41MOL   C12412204   1.320   3.215   0.650  0.4420 -0.1046  0.6723
   41MOL   O12512205   1.393   3.179   0.749 -0.3281 -0.3777 -0.1572
   41MOL   O12612206   1.346   3.329   0.573 -0.3470  0.0700 -0.3897
   41MOL   C12712207   1.463   3.410   0.588 -0.3986  0.0300 -0.5388
   41MOL   C12812208   1.434   3.543   0.515 -0.0988  0.0835 -0.1166
   41MOL   H12912209   1.124   2.982   0.481 -0.3669  2.2104 -0.3910
   41MOL   H13012210   1.226   2.934   0.610 -0.1839 -1.9185 -1.0244
   41MOL   H13112211   1.140   3.212   0.539 -0.3846 -2.0023 -1.0060
   41MOL   H13212212   1.490   3.430   0.692 -0.7167 -0.2994 -0.3868
   41MOL   H13312213   1.549   3.350   0.556 -2.7810 -1.5081 -4.4306
   41MOL   H13412214   1.470   3.550   0.412  0.3294 -0.4224 -0.0061
   41MOL   H13512215   1.463   3.636   0.565 -0.7769  0.7674 -0.9773
   41MOL   H13612216   1.326   3.547   0.508 -0.1759  2.3618  1.7623
   41MOL   C13712217   1.087   3.127   0.726 -0.8251 -0.0137  0.0348
   41MOL   C13812218   0.988   3.249   0.750 -0.2279 -0.0847 -0.2875
   41MOL   C13912219   0.883   3.279   0.640 -0.2099  0.3246 -0.3179
   41MOL   O14012220   0.869   3.396   0.605 -0.3676 -0.3152  0.2623
   41MOL   O14112221   0.829   3.170   0.592  0.3396  0.1770 -0.0482
   41MOL   C14212222   0.732   3.175   0.490  0.7763  0.3863 -0.6550
   41MOL   C14312223   0.784   3.135   0.352  0.0515  0.1859  0.2210
   41MOL   H14412224   1.029   3.038   0.703  1.1607 -1.2046 -0.5091
   41MOL   H14512225   1.139   3.096   0.816 -0.2913 -3.6286 -1.4358
   41MOL   H14612226   0.929   3.230   0.840 -1.0581 -0.6632 -0.9417
   41MOL   H14712227   0.650   3.113   0.526  0.9802 -0.3285 -1.3931
   41MOL   H14812228   0.692   3.275   0.475  1.8211  1.1516  1.4947
   41MOL   H14912229   0.880   3.182   0.331  0.2877  0.1673  1.2133
   41MOL   H15012230   0.705   3.157   0.280  0.4558  0.1760 -0.2197
   41MOL   H15112231   0.808   3.029   0.360  1.1539  0.2735 -1.7704
   41MOL   C15212232   1.073   3.377   0.799 -1.2455 -0.3998 -0.8646
   41MOL   C15312233   1.163   3.365   0.929 -0.3319 -0.5422 -0.5436
   41MOL   C15412234   1.061   3.329   1.036 -0.2055  0.7575 -0.0660
   41MOL   O15512235   0.948   3.369   1.036  0.1060 -0.3113  0.4216
   41MOL   O15612236   1.107   3.238   1.129 -0.5662 -0.0683 -0.0154
   41MOL   C15712237   1.021   3.177   1.225 -0.5012 -0.1510 -0.5886
   41MOL   C15812238   1.026   3.025   1.206  0.4130  0.2602 -0.6905
   41MOL   H15912239   1.141   3.418   0.724  0.0582  0.8331  0.9463
   41MOL   H16012240   1.001   3.457   0.812  0.2818  0.7270  0.8698
   41MOL   H16112241   1.236   3.285   0.918  2.4483  1.7446  0.5814
   41MOL   H16212242   1.053   3.196   1.328 -0.4213 -0.0206 -0.6379
   41MOL   H16312243   0.915   3.200   1.216 -0.6642 -0.3925  0.5810
   41MOL   H16412244   1.066   2.997   1.109  0.7813 -1.7678  0.0046
   41MOL   H16512245   0.927   2.979   1.200  0.4807  0.0354 -0.1489
   41MOL   H16612246   1.091   2.977   1.280 -0.3466 -0.5610 -0.5486
   41MOL   C16712247   1.241   3.490   0.973  0.6028 -0.3952 -0.9551
   41MOL   C16812248   1.344   3.459   1.084  0.1474  0.4535 -0.5737
   41MOL   C16912249   1.346   3.584   1.184 -0.3350  0.4389 -0.7258
   41MOL   O17012250   1.438   3.668   1.177  0.1943  0.0517  0.1594
   41MOL   O17112251   1.233   3.596   1.262 -0.2125  1.2153  0.1389
   41MOL   C17212252   1.222   3.682   1.373 -0.0177 -0.3655  0.3740
   41MOL   C17312253   1.283   3.607   1.499 -0.2867  0.1124 -0.7039
   41MOL   H17412254   1.300   3.525   0.888  0.1985 -0.6727 -1.3550
   41MOL   H17512255   1.169   3.567   0.997  0.9373  0.2397 -1.9366
   41MOL   H17612256   1.298   3.383   1.146  0.1644  1.1531  0.3114
   41MOL   H17712257   1.276   3.774   1.347 -0.1584 -0.4807 -0.3463
   41MOL   H17812258   1.118   3.698   1.401 -0.9084 -3.8592 -0.6866
   41MOL   H17912259   1.255   3.652   1.594  2.6129 -0.0203  0.2469
   41MOL   H18012260   1.391   3.609   1.487 -0.0887 -1.9853  0.4126
   41MOL   H18112261   1.239   3.507   1.496  0.0735 -0.2332  3.1218
   41MOL   C18212262   1.480   3.406   1.033 -0.0078  0.9935 -0.5097
   41MOL   C18312263   1.572   3.353   1.147  0.4191 -0.2310  0.1515
   41MOL   C18412264   1.653   3.462   1.226 -0.2917 -0.3075  0.5521
   41MOL   O18512265   1.627   3.486   1.337 -0.4628 -0.3116  0.2231
   41MOL   O18612266   1.751   3.516   1.153 -0.2951 -0.6702 -0.0003
   41MOL   C18712267   1.831   3.621   1.203 -0.4488 -0.6582 -0.4178
   41MOL   C18812268   1.767   3.755   1.164 -0.0987  0.0054  0.1082
   41MOL   H18912269   1.458   3.333   0.954  2.2481  1.4129 -1.5894
   41MOL   H19012270   1.542   3.479   0.980  0.3043  0.1868 -1.2818
   41MOL   H19112271   1.503   3.307   1.219  0.0810  1.3945  0.8769
   41MOL   H19212272   1.856   3.613   1.309 -0.6030  0.8041 -0.2685
   41MOL   H19312273   1.926   3.630   1.151  0.3912 -0.3353  1.1393
   41MOL   H19412274   1.735   3.740   1.061 -1.4503 -0.9259  0.6461
   41MOL   H19512275   1.844   3.832   1.155 -0.5596  0.3714 -0.7084
   41MOL   H19612276   1.683   3.787   1.227  0.3394 -0.3664  0.8906
   41MOL   C19712277   1.665   3.248   1.087 -0.5917  0.6631  0.3852
   41MOL   C19812278   1.614   3.106   1.073  0.6308 -0.2207 -0.0859
   41MOL   C19912279   1.544   3.052   1.202  0.5581 -0.1991  0.1525
   41MOL   O20012280   1.431   3.006   1.207  0.2861  0.7537 -0.1333
   41MOL   O20112281   1.628   3.052   1.311 -0.2506  0.0354  0.2640
   41MOL   C20212282   1.595   2.978   1.427 -0.1910 -0.5081 -0.4228
   41MOL   C20312283   1.713   2.982   1.530 -0.2708 -0.1522  0.1946
   41MOL   H20412284   1.703   3.283   0.991  0.8485 -1.3643  0.1676
   41MOL   H20512285   1.750   3.238   1.155  0.1808  0.5036 -0.6029
   41MOL   H20612286   1.525   3.109   1.010  0.0454 -0.6444  0.7040
   41MOL   H20712287   1.507   3.019   1.477 -0.2954 -1.1697 -0.0643
   41MOL   H20812288   1.583   2.873   1.401 -0.2347 -0.7571  0.5668
   41MOL   H20912289   1.799   2.924   1.497  0.5850  1.0593  0.2701
   41MOL   H21012290   1.682   2.940   1.625 -0.0197 -0.5485  0.1004
   41MOL   H21112291   1.741   3.086   1.547  1.5703 -0.2611 -1.9945
   41MOL   C21212292   1.728   2.997   1.037  0.2137 -0.4419  0.1274
   41MOL   C21312293   1.804   3.016   0.904 -0.6115  0.0795  0.0609
   41MOL   C21412294   1.711   2.990   0.783 -0.0858 -0.9208  0.6287
   41MOL   O21512295   1.703   3.068   0.689 -0.4430 -0.0163 -0.2843
   41MOL   O21612296   1.651   2.868   0.787  0.7351 -1.0176  0.4486
   41MOL   C21712297   1.575   2.822   0.674 -0.3844 -0.2396 -0.4581
   41MOL   C21812298   1.621   2.678   0.638  1.0124  0.2027 -0.3136
   41MOL   H21912299   1.798   3.001   1.120 -1.0599  3.2456  1.1210
   41MOL   H22012300   1.687   2.897   1.052 -0.2828 -0.0136  1.6657
   41MOL   H22112301   1.832   3.122   0.905  0.2396 -0.1162 -1.6821
   41MOL   H22212302   1.471   2.823   0.705 -0.5451  3.6193 -0.8246
   41MOL   H22312303   1.590   2.883   0.585  2.1894 -0.6036 -0.3189
   41MOL   H22412304   1.552   2.636   0.566  0.1714 -2.8802  2.1504
   41MOL   H22512305   1.609   2.617   0.728 -2.4209 -1.3836 -1.7589
   41MOL   H22612306   1.725   2.673   0.604  0.8824 -1.7588 -0.4903
   41MOL   C22712307   1.934   2.932   0.900 -0.2088 -0.4555 -0.0669
   41MOL   C22812308   2.032   2.946   0.785  0.1838 -0.3012  0.3053
   41MOL   C22912309   2.150   2.851   0.829 -0.8279  0.3673 -0.5263
   41MOL   O23012310   2.167   2.739   0.775 -0.1096 -0.1173 -0.2926
   41MOL   O23112311   2.221   2.889   0.940  0.0295 -0.7286  0.0397
   41MOL   C23212312   2.312   2.808   1.007 -0.5245  0.4527 -0.5368
   41MOL   C23312313   2.380   2.912   1.097  0.3370  1.2313 -0.0190
   41MOL   H23412314   1.980   2.953   0.997  0.7046  4.5529 -1.4101
   41MOL   H23512315   1.903   2.828   0.902 -1.6676 -0.0151  1.0352
   41MOL   H23612316   1.986   2.886   0.706  2.9505 -1.8519 -0.2173
   41MOL   H23712317   2.257   2.721   1.042 -0.9293  0.4343 -1.2039
   41MOL   H23812318   2.391   2.770   0.942 -0.2726  1.8704 -1.0853
   41MOL   H23912319   2.441   2.850   1.164 -1.3317  0.9646  1.3031
   41MOL   H24012320   2.306   2.960   1.161  0.1845  0.9509  0.0166
   41MOL   H24112321   2.444   2.984   1.046  0.6435  0.6890 -0.4084
   41MOL   C24212322   2.074   3.086   0.739  0.1764 -0.0457 -0.1195
   41MOL   C24312323   2.139   3.181   0.850  0.1826  0.5512  0.4554
   41MOL   C24412324   2.042   3.286   0.900  0.4126 -0.4037 -0.1497
   41MOL   O24512325   2.008   3.299   1.013  0.2318 -0.2593  0.8080
   41MOL   O24612326   1.994   3.365   0.800 -0.2752  0.3988  0.0972
   41MOL   C24712327   1.912   3.479   0.828  0.3262 -0.6670  0.3858
   41MOL   C24812328   1.844   3.518   0.687 -0.3474  1.0465  0.3927
   41MOL   H24912329   2.150   3.076   0.661 -0.1223 -1.1450 -0.2696
   41MOL   H25012330   1.996   3.135   0.681 -0.4421 -1.3041 -0.3510
   41MOL   H25112331   2.171   3.119   0.934  0.1263 -2.5209 -1.6651
   41MOL   H25212332   1.836   3.462   0.904 -1.6543  0.7503 -1.2169
   41MOL   H25312333   1.983   3.558   0.854  0.2740 -0.5293  0.1101
   41MOL   H25412334   1.916   3.518   0.605 -1.6875  1.2585 -0.7986
   41MOL   H25512335   1.814   3.621   0.703 -0.0577  1.2364 -0.2781
   41MOL   H25612336   1.758   3.452   0.673  1.1887 -1.0486  0.4251
   41MOL   C25712337   2.261   3.248   0.786  0.4773 -0.0547  0.1244
   41MOL   C25812338   2.336   3.334   0.895 -0.9704 -0.2005 -0.1998
   41MOL   C25912339   2.308   3.483   0.898 -0.0870 -0.0119 -0.5538
   41MOL   O26012340   2.245   3.545   0.806  0.4299  0.0424 -0.3152
   41MOL   O26112341   2.354   3.543   1.010  0.3783 -0.1107  0.4882
   41MOL   C26212342   2.312   3.682   1.024 -0.3373  0.5181  0.2741
   41MOL   C26312343   2.180   3.703   1.095  0.2374 -0.3017  0.4651
   41MOL   H26412344   2.323   3.175   0.733  0.0809  0.7199 -1.4491
   41MOL   H26512345   2.225   3.314   0.707 -2.1632 -1.4868  0.0760
   41MOL   H26612346   2.300   3.293   0.989  2.2740  2.8206  2.4566
   41MOL   H26712347   2.390   3.740   1.073  0.3622  0.4937 -0.8038
   41MOL   H26812348   2.300   3.732   0.929 -1.1656 -0.8067 -0.3382
   41MOL   H26912349   2.164   3.811   1.090  1.2832 -0.2281 -1.4331
   41MOL   H27012350   2.179   3.672   1.200  0.0164  2.6207  1.3936
   41MOL   H27112351   2.106   3.650   1.035  3.3025 -1.7821 -2.1392
   41MOL   C27212352   2.489   3.313   0.897  0.7532  0.1716  0.7069
   41MOL   C27312353   2.576   3.367   0.781 -0.3360 -0.6923 -0.0451
   41MOL   C27412354   2.571   3.266   0.660 -0.1174  0.5192  0.2365
   41MOL   O27512355   2.496   3.291   0.565 -0.0784 -0.7288 -0.1813
   41MOL   O27612356   2.639   3.151   0.680 -0.3967 -0.5007  0.2096
   41MOL   C27712357   2.649   3.052   0.579  0.0293  0.5223  0.4510
   41MOL   C27812358   2.605   2.915   0.646 -0.4681  0.3613  0.6606
   41MOL   H27912359   2.519   3.369   0.986 -1.0969  1.7767  0.3494
   41MOL   H28012360   2.509   3.208   0.916  0.8677  0.4155  1.9984
   41MOL   H28112361   2.537   3.460   0.739  0.6961  0.3673  1.2787
   41MOL   H28212362   2.582   3.079   0.497  0.7789 -0.5919 -0.5422
   41MOL   H28312363   2.750   3.046   0.538 -0.6810 -1.0275 -1.1602
   41MOL   H28412364   2.501   2.919   0.678 -1.0692 -0.7125 -1.0704
   41MOL   H28512365   2.668   2.879   0.727 -0.3333 -0.7728  0.0564
   41MOL   H28612366   2.617   2.838   0.571  1.1197  1.9311 -0.7405
   41MOL   C28712367   2.724   3.384   0.822 -0.4648 -0.3358  0.5445
   41MOL   C28812368   2.820   3.435   0.714 -0.1129 -0.2847 -0.0456
   41MOL   C28912369   2.770   3.563   0.634 -0.2881 -0.1395 -0.4554
   41MOL   O29012370   2.793   3.577   0.512 -0.7263  0.0388 -0.2198
   41MOL   O29112371   2.719   3.656   0.714  0.3333  0.1285 -0.3436
   41MOL   C29212372   2.676   3.782   0.660  0.4397  0.0289 -0.6891
   41MOL   C29312373   2.660   3.886   0.773  0.3187 -0.0703 -0.1506
   41MOL   H29412374   2.730   3.452   0.907  0.0495  2.2295 -1.4869
   41MOL   H29512375   2.765   3.292   0.863 -0.6582 -0.2997  0.8183
   41MOL   H29612376   2.916   3.455   0.763 -1.1032  2.1793  1.0030
   41MOL   H29712377   2.726   3.814   0.569  0.4118 -2.0415 -1.4564
   41MOL   H29812378   2.574   3.764   0.625  1.4932 -4.5057 -1.6394
   41MOL   H29912379   2.634   3.986   0.740 -0.8787 -0.6681 -1.0433
   41MOL   H30012380   2.760   3.898   0.815 -0.2222 -2.4893  1.9253
   41MOL   H30112381   2.601   3.852   0.858  0.0515 -1.3621 -0.8341
   41MOL   H30212382   2.836   3.359   0.638  1.6677  0.7995 -0.7973
   42MOL     C112383   5.889   0.012   1.530 -0.1710  0.6175 -0.5952
   42MOL     C212384   5.996   0.097   1.592 -0.3099  0.6689  0.2412
   42MOL     C312385   6.031   0.036   1.726  0.5409  0.5108  0.3162
   42MOL     O412386   5.943   0.002   1.803  0.0970  0.0391  0.0905
   42MOL     O512387   6.157   0.008   1.750  0.4978 -0.4720  0.4938
   42MOL     C612388   6.183   7.840   1.868 -0.1489 -0.0618 -0.9895
   42MOL     C712389   6.242   7.705   1.829 -0.1999 -0.2707 -0.1722
   42MOL     H812390   5.791   0.024   1.577  0.8425  3.0939  0.9662
   42MOL     H912391   5.897   7.811   1.535 -1.4780  0.5120 -0.6751
   42MOL    H1012392   6.092   0.079   1.543 -0.1462  0.7729  0.5251
   42MOL    H1112393   6.255   7.889   1.933 -1.2829  1.2965 -0.7198
   42MOL    H1212394   6.096   7.825   1.932 -1.0381  0.6119 -2.0232
   42MOL    H1312395   6.238   7.649   1.923  1.3919  0.2469  0.2123
   42MOL    H1412396   6.339   7.722   1.782 -0.1777  0.5731  0.1653
   42MOL    H1512397   6.183   7.657   1.751 -2.4119 -1.1152  1.9612
   42MOL    H1612398   5.883   0.047   1.427 -0.6470  1.1764 -0.3800
   42MOL    C1712399   5.965   0.250   1.606  0.7013  0.3858  0.0613
   42MOL    C1812400   5.830   0.289   1.665  0.4226 -0.0383  0.1631
   42MOL    C1912401   5.717   0.271   1.565  0.0588 -0.4990 -0.1580
   42MOL    O2012402   5.736   0.250   1.446 -0.3252 -0.1134 -0.5186
   42MOL    O2112403   5.598   0.262   1.626 -0.0520  0.3705  0.8045
   42MOL    C2212404   5.485   0.218   1.551  0.2821 -0.1915 -0.0998
   42MOL    C2312405   5.411   0.338   1.489  0.0282  0.2682  0.0998
   42MOL    H2412406   6.046   0.284   1.671  1.1052  0.9777 -0.7526
   42MOL    H2512407   5.973   0.311   1.516  0.5052 -0.9314 -0.8549
   42MOL    H2612408   5.809   0.212   1.739  2.3777 -0.2846  0.5045
   42MOL    H2712409   5.512   0.145   1.475  0.7719  0.9731 -1.0575
   42MOL    H2812410   5.412   0.173   1.618  1.2957 -1.0827  0.4298
   42MOL    H2912411   5.481   0.402   1.436  1.2960 -0.9327  0.2828
   42MOL    H3012412   5.363   0.390   1.571  1.4293  0.1054  1.0384
   42MOL    H3112413   5.339   0.302   1.415  0.1242 -0.4858  0.3676
   42MOL    C3212414   5.818   0.444   1.716 -0.1835  0.4640 -0.0719
   42MOL    C3312415   5.710   0.466   1.831 -0.4081 -0.6114  0.7793
   42MOL    C3412416   5.715   0.611   1.875  0.2585  0.0156  0.5370
   42MOL    O3512417   5.817   0.667   1.911  0.1642 -0.1947  0.7948
   42MOL    O3612418   5.584   0.657   1.884  0.7213 -0.0124 -0.0306
   42MOL    C3712419   5.557   0.790   1.912  0.1163  0.2614  0.4241
   42MOL    C3812420   5.490   0.878   1.808 -0.8364 -0.2041 -0.4731
   42MOL    H3912421   5.917   0.478   1.744 -0.0008  0.5357 -0.7901
   42MOL    H4012422   5.785   0.499   1.628  0.7632  0.4397 -0.4453
   42MOL    H4112423   5.608   0.446   1.796  0.0788  0.3100 -1.2122
   42MOL    H4212424   5.493   0.795   2.000 -2.6433 -3.0571 -1.2532
   42MOL    H4312425   5.652   0.838   1.934  1.7056 -1.0329 -3.2275
   42MOL    H4412426   5.422   0.820   1.746 -1.9928 -0.7646  1.2961
   42MOL    H4512427   5.560   0.929   1.742 -1.1778  0.9237  0.0275
   42MOL    H4612428   5.440   0.957   1.863  1.4650  1.7405 -1.0847
   42MOL    C4712429   5.737   0.381   1.958 -0.3300  0.4985 -0.4525
   42MOL    C4812430   5.664   0.246   1.958  0.1308 -0.1738 -0.2141
   42MOL    C4912431   5.510   0.263   1.962 -0.5745 -0.4935  0.2652
   42MOL    O5012432   5.456   0.372   1.994  0.2730  0.0803 -0.1145
   42MOL    O5112433   5.447   0.151   1.929  0.6076 -0.1036  0.6709
   42MOL    C5212434   5.309   0.145   1.930 -0.2712 -0.3470 -0.8544
   42MOL    C5312435   5.257   0.005   1.971 -0.1933 -0.7139 -0.3731
   42MOL    H5412436   5.843   0.369   1.981 -0.1336 -0.9388 -2.0747
   42MOL    H5512437   5.708   0.439   2.045 -2.6423 -0.5503 -0.4994
   42MOL    H5612438   5.692   0.181   1.875  0.9287  0.5098 -0.4867
   42MOL    H5712439   5.265   0.213   2.003  0.2877 -0.6448 -0.2398
   42MOL    H5812440   5.260   0.167   1.835 -1.3419  1.2684  0.0393
   42MOL    H5912441   5.312   7.884   2.061  0.8133  1.5707 -0.2213
   42MOL    H6012442   5.304   7.845   1.900  0.2860 -0.2771 -0.4776
   42MOL    H6112443   5.151   0.000   1.994  0.0932 -1.3722  0.8741
   42MOL    C6212444   5.711   0.150   2.065  0.1949  0.1848 -0.5443
   42MOL    C6312445   5.705   0.196   2.212  0.4356 -0.2481  0.0193
   42MOL    C6412446   5.841   0.193   2.279 -0.0771  0.8369  0.2188
   42MOL    O6512447   5.906   0.296   2.306  0.0413  0.0720  0.4197
   42MOL    O6612448   5.888   0.063   2.276 -0.1300  0.0816  0.4147
   42MOL    C6712449   6.006   0.029   2.352  0.5459 -0.4749  0.2929
   42MOL    C6812450   6.123   0.048   2.252 -0.6204 -0.1345  0.3912
   42MOL    H6912451   5.672   0.048   2.057  0.2142 -0.3360  4.5970
   42MOL    H7012452   5.814   0.129   2.035 -0.1935 -0.0884 -1.7254
   42MOL    H7112453   5.684   0.302   2.216  0.9542 -0.1626  0.5881
   42MOL    H7212454   6.012   0.085   2.446  0.1548 -0.7829  0.5012
   42MOL    H7312455   6.000   7.832   2.379  0.5000 -0.6035 -0.2215
   42MOL    H7412456   6.093   7.899   2.165 -2.1488 -0.9065  1.4086
   42MOL    H7512457   6.216   0.009   2.294  0.3209  1.4532 -0.1504
   42MOL    H7612458   6.156   0.145   2.213 -0.1041 -0.4209  0.1014
   42MOL    C7712459   5.600   0.118   2.282 -0.6391  0.4538 -0.7824
   42MOL    C7812460   5.567   0.169   2.422 -0.5737  0.0148 -0.9380
   42MOL    C7912461   5.570   0.050   2.526 -0.7187  0.0393 -0.0444
   42MOL    O8012462   5.669   7.890   2.549 -0.7213 -0.0749  0.4953
   42MOL    O8112463   5.450   0.028   2.583  0.7289  0.1078 -0.2523
   42MOL    C8212464   5.430   7.835   2.678  0.0764 -0.1171 -0.3075
   42MOL    C8312465   5.319   7.884   2.760  0.1156 -0.3340 -0.0096
   42MOL    H8412466   5.510   0.102   2.223 -1.8156  1.1337  0.7914
   42MOL    H8512467   5.629   0.013   2.275 -0.0486  0.5515  0.1121
   42MOL    H8612468   5.642   0.237   2.460 -2.6133  1.1608  1.1516
   42MOL    H8712469   5.397   7.751   2.617 -1.4280 -0.1132  0.4595
   42MOL    H8812470   5.521   7.820   2.737 -0.0269  2.4248  0.5863
   42MOL    H8912471   5.320   0.081   2.790 -1.7900 -0.2991 -0.0354
   42MOL    H9012472   5.306   7.821   2.848  0.1063  0.9895  0.9673
   42MOL    H9112473   5.229   7.890   2.698  1.2931 -1.1351 -1.8450
   42MOL    C9212474   5.434   0.250   2.426 -0.0378  0.8145 -0.1635
   42MOL    C9312475   5.440   0.381   2.341  0.3637 -0.0528  0.4828
   42MOL    C9412476   5.529   0.482   2.402 -0.6601 -0.0669  0.2967
   42MOL    O9512477   5.514   0.533   2.509  0.4614  0.2122  0.1792
   42MOL    O9612478   5.629   0.510   2.321 -0.4633 -0.2529  0.4627
   42MOL    C9712479   5.731   0.608   2.342  0.2294 -0.1454  0.6040
   42MOL    C9812480   5.700   0.746   2.284 -0.0170 -0.0475  0.2650
   42MOL    H9912481   5.351   0.191   2.389 -0.1451  0.6325  0.3617
   42MOL   H10012482   5.409   0.272   2.530 -0.2857 -0.1169 -0.0186
   42MOL   H10112483   5.472   0.353   2.241  0.4402 -3.4036  1.3831
   42MOL   H10212484   5.743   0.627   2.448  0.4610  1.9577  0.2167
   42MOL   H10312485   5.825   0.571   2.299  0.9400  0.9557  1.1751
   42MOL   H10412486   5.602   0.771   2.326 -0.2281  1.1428 -0.8928
   42MOL   H10512487   5.694   0.752   2.175 -0.4521 -0.6944  0.2534
   42MOL   H10612488   5.759   0.833   2.313 -2.0412  1.3271  0.3856
   42MOL   C10712489   5.298   0.439   2.320  0.0383 -0.5979 -0.7686
   42MOL   C10812490   5.265   0.546   2.208  0.3219  0.1180 -0.2256
   42MOL   C10912491   5.208   0.672   2.278 -0.3209 -0.1514 -0.1458
   42MOL   O11012492   5.093   0.708   2.288  0.9841  0.0800  0.5882
   42MOL   O11112493   5.305   0.742   2.332 -0.5066  0.1411  0.4248
   42MOL   C11212494   5.285   0.848   2.426 -0.1865 -0.5321 -0.5021
   42MOL   C11312495   5.332   0.809   2.561 -0.3306  0.0407  0.3689
   42MOL   H11412496   5.223   0.360   2.314  0.7729 -1.7786  3.5468
   42MOL   H11512497   5.265   0.492   2.409  0.2140 -2.9876  0.7764
   42MOL   H11612498   5.359   0.572   2.159 -0.3136  0.4974 -1.2721
   42MOL   H11712499   5.348   0.930   2.391  0.6620 -0.2715  1.5436
   42MOL   H11812500   5.181   0.879   2.442  0.6093  1.6397  0.6829
   42MOL   H11912501   5.437   0.781   2.559 -0.5111 -0.6260 -0.2956
   42MOL   H12012502   5.279   0.723   2.603 -1.1439  0.2391 -0.2362
   42MOL   H12112503   5.315   0.897   2.622 -0.7619 -0.0133  0.3312
   42MOL   C12212504   5.176   0.504   2.082  0.0637 -0.3415 -0.5882
   42MOL   C12312505   5.204   0.582   1.951 -0.1184  0.3171  0.1028
   42MOL   C12412506   5.115   0.713   1.944  0.0214  0.5545 -0.0649
   42MOL   O12512507   5.171   0.820   1.934  0.3670  0.9281  0.6003
   42MOL   O12612508   4.992   0.692   1.947 -0.2855 -0.2428  0.3019
   42MOL   C12712509   4.897   0.792   1.962  0.1355 -0.0058 -0.0149
   42MOL   C12812510   4.851   0.791   2.106 -0.4884 -0.2059  0.3151
   42MOL   H12912511   5.185   0.396   2.071  2.3272 -0.1381 -0.9798
   42MOL   H13012512   5.069   0.505   2.104 -0.0570 -2.9230 -0.9795
   42MOL   H13112513   5.304   0.622   1.960 -0.4446  1.1410  0.1318
   42MOL   H13212514   4.936   0.893   1.947 -0.0315  0.1070  0.3124
   42MOL   H13312515   4.813   0.765   1.899  0.1105 -3.2121  1.2887
   42MOL   H13412516   4.766   0.859   2.114  0.1242  0.4199  1.5450
   42MOL   H13512517   4.923   0.830   2.177  0.6790  1.5115 -1.7447
   42MOL   H13612518   4.810   0.693   2.131  2.7916 -1.3088  1.5400
   42MOL   C13712519   5.195   0.496   1.826  0.8242 -0.3966  0.1303
   42MOL   C13812520   5.057   0.459   1.768 -0.3653 -0.6977  0.1978
   42MOL   C13912521   4.966   0.391   1.869  0.2248 -0.7498 -0.0523
   42MOL   O14012522   5.007   0.290   1.925  0.0495 -0.0729  0.0812
   42MOL   O14112523   4.845   0.450   1.876  0.5826  0.3858  1.3433
   42MOL   C14212524   4.740   0.382   1.947  0.1922 -0.1392  0.3109
   42MOL   C14312525   4.603   0.463   1.948 -0.2257  0.9483 -0.2362
   42MOL   H14412526   5.254   0.545   1.749  0.9118 -0.6168  0.0556
   42MOL   H14512527   5.238   0.399   1.853  0.0509 -1.0728 -0.9858
   42MOL   H14612528   5.018   0.559   1.749 -0.0869 -0.7416 -0.6244
   42MOL   H14712529   4.737   0.276   1.922 -0.2583 -0.1230  0.2923
   42MOL   H14812530   4.776   0.370   2.049  0.5243  2.4447  0.5394
   42MOL   H14912531   4.609   0.543   2.021 -1.9545  0.0463  0.9328
   42MOL   H15012532   4.516   0.405   1.979  0.4788  0.9931  1.8794
   42MOL   H15112533   4.592   0.502   1.847 -0.2324  0.0074 -0.6037
   42MOL   C15212534   5.063   0.369   1.645 -0.0790  0.0716  0.0193
   42MOL   C15312535   4.923   0.355   1.566 -0.0237 -0.3670 -0.0777
   42MOL   C15412536   4.939   0.261   1.447 -0.1029 -0.1046  0.8905
   42MOL   O15512537   5.050   0.222   1.406  1.0017  0.0570 -0.5839
   42MOL   O15612538   4.830   0.215   1.395  0.2267  0.0661 -0.2118
   42MOL   C15712539   4.841   0.136   1.281  0.1029  0.1859  0.3162
   42MOL   C15812540   4.723   0.182   1.200  0.1462  0.4258  0.0770
   42MOL   H15912541   5.145   0.408   1.585 -1.7920  1.2440 -1.6226
   42MOL   H16012542   5.105   0.273   1.671 -1.5971 -0.4674  0.5526
   42MOL   H16112543   4.853   0.317   1.639 -0.0783 -0.9906 -0.4548
   42MOL   H16212544   4.925   0.158   1.214 -1.3545 -1.1688 -2.0290
   42MOL   H16312545   4.841   0.031   1.310 -1.5883 -0.2552 -1.1691
   42MOL   H16412546   4.685   0.106   1.132  0.3019  0.2697  0.1665
   42MOL   H16512547   4.747   0.271   1.141 -3.0171  1.4826  0.2827
   42MOL   H16612548   4.636   0.202   1.263 -0.9654 -0.0571 -1.2524
   42MOL   C16712549   4.858   0.489   1.521 -0.2749  0.5094  0.3928
   42MOL   C16812550   4.909   0.581   1.404 -0.0853  0.2674 -0.3480
   42MOL   C16912551   5.021   0.678   1.462  0.8420  0.8801  0.1349
   42MOL   O17012552   5.122   0.709   1.404 -0.2463  0.0194  0.0397
   42MOL   O17112553   4.980   0.747   1.569 -0.1459 -0.0208  0.3195
   42MOL   C17212554   5.063   0.846   1.624  0.6100  0.2150 -0.4233
   42MOL   C17312555   5.061   0.972   1.532  0.6726 -0.2868  0.9130
   42MOL   H17412556   4.756   0.455   1.502 -0.0956 -1.1372  2.1727
   42MOL   H17512557   4.830   0.548   1.609  1.8921  1.6234  0.3750
   42MOL   H17612558   4.958   0.529   1.322  0.3410  0.0616  0.0372
   42MOL   H17712559   5.033   0.865   1.727  3.6170  0.7341  0.3876
   42MOL   H17812560   5.162   0.801   1.629 -0.5658 -2.5104 -0.7353
   42MOL   H17912561   5.100   1.063   1.576  3.7050 -0.9458 -0.2911
   42MOL   H18012562   4.959   0.987   1.496  0.7939 -2.6037 -0.5410
   42MOL   H18112563   5.122   0.961   1.442  0.1230 -1.2032  0.6344
   42MOL   C18212564   4.796   0.663   1.338  0.7916 -0.0637  0.1453
   42MOL   C18312565   4.816   0.731   1.201 -0.1471 -0.5809  0.0902
   42MOL   C18412566   4.708   0.841   1.171 -0.8578  0.1407  0.7155
   42MOL   O18512567   4.590   0.800   1.148 -0.4360 -0.7169 -0.1534
   42MOL   O18612568   4.752   0.961   1.189 -0.0164  0.4733 -0.0429
   42MOL   C18712569   4.688   1.077   1.148 -0.0092  0.4420  0.3758
   42MOL   C18812570   4.601   1.121   1.268  0.1856  0.2726 -0.2997
   42MOL   H18912571   4.700   0.612   1.345 -0.7309  2.7852  0.7124
   42MOL   H19012572   4.777   0.745   1.407  2.5820  0.6690 -0.2162
   42MOL   H19112573   4.914   0.778   1.203 -0.4924  0.2397 -1.7492
   42MOL   H19212574   4.753   1.159   1.118  0.0851 -0.5515 -2.2660
   42MOL   H19312575   4.627   1.064   1.059 -0.6937  0.4920  0.8377
   42MOL   H19412576   4.542   1.035   1.301 -0.7631  0.0813 -2.4534
   42MOL   H19512577   4.550   1.213   1.242  1.3450  0.3937 -2.2364
   42MOL   H19612578   4.661   1.153   1.353 -3.6277  1.0934  2.2125
   42MOL   C19712579   4.831   0.627   1.088  0.3443 -0.2787  0.1621
   42MOL   C19812580   4.866   0.670   0.945 -0.0104 -0.5484 -0.0520
   42MOL   C19912581   4.814   0.565   0.851 -0.1401 -0.1563  0.0165
   42MOL   O20012582   4.712   0.585   0.787 -0.1762 -0.0297  1.2669
   42MOL   O20112583   4.888   0.454   0.837 -0.3130  0.2546  0.1473
   42MOL   C20212584   4.849   0.352   0.749 -0.0159 -0.1791  0.5065
   42MOL   C20312585   4.987   0.290   0.709  0.1073  0.3362  0.0254
   42MOL   H20412586   4.914   0.564   1.122 -0.6084 -2.1156 -0.8326
   42MOL   H20512587   4.748   0.557   1.082  0.3845 -0.2118 -1.3558
   42MOL   H20612588   4.803   0.751   0.907  0.4338 -0.9547 -1.6974
   42MOL   H20712589   4.777   0.279   0.785 -0.8367  0.0820 -0.5783
   42MOL   H20812590   4.805   0.400   0.661 -2.1986  0.7671  2.0671
   42MOL   H20912591   5.032   0.211   0.770  1.3388 -0.4376 -1.8548
   42MOL   H21012592   5.061   0.366   0.689 -0.6220  1.1812  0.4993
   42MOL   H21112593   4.982   0.251   0.607 -1.0226 -0.3082  0.3140
   42MOL   C21212594   5.020   0.708   0.940 -0.1128  0.3589 -0.2518
   42MOL   C21312595   5.063   0.768   0.812  0.2953  0.4470 -0.2449
   42MOL   C21412596   5.149   0.678   0.737 -0.1117  0.3553 -0.2136
   42MOL   O21512597   5.147   0.686   0.612 -0.2666  0.5101  0.1605
   42MOL   O21612598   5.242   0.601   0.793 -0.3420  0.6577 -0.1324
   42MOL   C21712599   5.333   0.513   0.721  0.4834  1.1316  0.4576
   42MOL   C21812600   5.470   0.572   0.699 -0.2500 -0.4071  0.7526
   42MOL   H21912601   5.045   0.775   1.021 -2.0881  0.9216 -0.0777
   42MOL   H22012602   5.074   0.616   0.963  0.8044  1.1618  0.8170
   42MOL   H22112603   4.974   0.774   0.749 -0.4953 -1.4681  0.6379
   42MOL   H22212604   5.345   0.426   0.785  1.1230 -0.7799 -2.1956
   42MOL   H22312605   5.286   0.470   0.633 -1.4269  0.7905  1.6238
   42MOL   H22412606   5.522   0.495   0.643  2.2802  1.0196  1.0889
   42MOL   H22512607   5.525   0.593   0.790  1.1293 -1.4379  0.1672
   42MOL   H22612608   5.464   0.662   0.637  1.5154  0.1168  1.3367
   42MOL   C22712609   5.125   0.913   0.827 -0.6792  0.1924  0.4438
   42MOL   C22812610   5.031   1.035   0.861  0.1792 -0.4837  0.2138
   42MOL   C22912611   4.913   1.039   0.760 -0.4301  0.2125 -1.1332
   42MOL   O23012612   4.796   1.017   0.795  0.5863 -0.0744 -0.0880
   42MOL   O23112613   4.954   1.060   0.631  0.1355 -0.3721  0.1322
   42MOL   C23212614   4.858   1.078   0.526  0.1957 -0.1467 -0.1691
   42MOL   C23312615   4.798   0.946   0.475  0.2241  0.1098 -0.0757
   42MOL   H23412616   5.199   0.910   0.907 -0.1348 -1.5906 -0.0955
   42MOL   H23512617   5.183   0.932   0.738 -1.0338 -0.0335  0.1606
   42MOL   H23612618   4.974   1.019   0.952  0.0767  0.7995  0.3774
   42MOL   H23712619   4.776   1.143   0.553  0.4100 -0.9953  2.6907
   42MOL   H23812620   4.915   1.121   0.443 -2.1226  2.6884 -0.3453
   42MOL   H23912621   4.807   0.877   0.559  0.8996  1.2764  0.8280
   42MOL   H24012622   4.850   0.904   0.389 -0.9090  1.6925 -1.5743
   42MOL   H24112623   4.694   0.968   0.448  0.1004 -0.1527  0.1753
   42MOL   C24212624   5.111   1.174   0.868  0.6160 -0.2531  0.1814
   42MOL   C24312625   5.221   1.181   0.977 -0.1587  0.6882 -0.0927
   42MOL   C24412626   5.155   1.153   1.113 -0.8708  0.4929 -0.0199
   42MOL   O24512627   5.208   1.072   1.186 -0.1149  0.4993 -1.0533
   42MOL   O24612628   5.039   1.231   1.137 -0.3510  0.0710  0.0028
   42MOL   C24712629   4.998   1.219   1.278  0.0197 -0.6389 -0.0140
   42MOL   C24812630   4.892   1.318   1.321 -0.6332  0.4549  0.4483
   42MOL   H24912631   5.162   1.191   0.773  2.5412 -0.5665  1.1348
   42MOL   H25012632   5.043   1.258   0.882 -2.0914 -2.6544  2.1561
   42MOL   H25112633   5.288   1.096   0.973 -0.3410  0.4014  2.0894
   42MOL   H25212634   4.964   1.115   1.283 -0.9067 -0.3247  0.3514
   42MOL   H25312635   5.086   1.222   1.343 -1.1239  0.1145  1.5479
   42MOL   H25412636   4.814   1.329   1.245  0.9078 -1.5267 -1.5006
   42MOL   H25512637   4.939   1.411   1.352  0.9967  0.6266 -2.2969
   42MOL   H25612638   4.845   1.271   1.407 -1.1884 -0.6076 -0.4198
   42MOL   C25712639   5.290   1.320   0.964 -0.8116  0.3691  0.7954
   42MOL   C25812640   5.407   1.335   1.061 -0.3474 -0.0708  0.1318
   42MOL   C25912641   5.415   1.478   1.118  0.0104 -0.5905  0.4555
   42MOL   O26012642   5.486   1.567   1.068 -0.5172 -0.4763  0.2683
   42MOL   O26112643   5.332   1.494   1.223  0.5020 -0.4312 -0.7229
   42MOL   C26212644   5.321   1.626   1.282  0.2727  0.2207 -0.5770
   42MOL   C26312645   5.230   1.637   1.401 -0.2022  0.2073  0.5906
   42MOL   H26412646   5.317   1.347   0.862 -1.4283 -0.6479  0.3548
   42MOL   H26512647   5.209   1.389   0.985 -0.6939  1.4767 -2.1032
   42MOL   H26612648   5.402   1.271   1.150 -0.0971  0.7159  0.7185
   42MOL   H26712649   5.420   1.660   1.311  0.3641 -0.0654 -0.5538
   42MOL   H26812650   5.277   1.692   1.207 -0.4009 -0.3883 -0.7241
   42MOL   H26912651   5.128   1.648   1.364  0.2646  0.6752 -0.5538
   42MOL   H27012652   5.243   1.719   1.472 -0.3432 -0.3573  1.2719
   42MOL   H27112653   5.243   1.541   1.451  0.7168 -0.8786 -1.7145
   42MOL   C27212654   5.539   1.288   0.994  0.8901 -0.1075  0.5900
   42MOL   C27312655   5.653   1.267   1.091 -0.1813  0.9455  0.7681
   42MOL   C27412656   5.780   1.209   1.025  0.4057  0.2510  0.8611
   42MOL   O27512657   5.776   1.164   0.912  0.6531  0.5801  0.3984
   42MOL   O27612658   5.887   1.213   1.095  0.0805  0.0578  0.2897
   42MOL   C27712659   6.011   1.172   1.035  0.2591  0.3602  0.3527
   42MOL   C27812660   6.117   1.194   1.140  0.0691 -0.8020 -0.2753
   42MOL   H27912661   5.514   1.204   0.929  1.3236  1.0785 -1.1248
   42MOL   H28012662   5.569   1.364   0.923  1.1883  0.7884  1.6542
   42MOL   H28112663   5.678   1.371   1.110  0.7434  0.9813 -0.5301
   42MOL   H28212664   6.008   1.073   0.990 -0.7839  1.2686 -1.6779
   42MOL   H28312665   6.024   1.253   0.963 -2.4512 -0.2178 -0.8421
   42MOL   H28412666   6.089   1.151   1.236 -0.5333 -0.2919 -0.2192
   42MOL   H28512667   6.133   1.298   1.166 -0.0648 -0.6507 -0.7896
   42MOL   H28612668   6.208   1.139   1.117 -0.6155 -2.2550  0.4270
   42MOL   C28712669   5.625   1.176   1.212 -0.4482  0.1721 -0.0662
   42MOL   C28812670   5.560   1.037   1.184  0.3072  0.3719  0.0713
   42MOL   C28912671   5.528   0.956   1.311  0.1781 -0.2236 -0.2900
   42MOL   O29012672   5.528   1.014   1.415  0.4081 -0.0948 -0.5871
   42MOL   O29112673   5.500   0.830   1.289 -0.2241  0.5166  0.4367
   42MOL   C29212674   5.461   0.730   1.384  0.5499 -0.6541  0.6189
   42MOL   C29312675   5.579   0.685   1.481  0.3922 -0.1396  0.1958
   42MOL   H29412676   5.713   1.158   1.274 -0.5441  1.3471  0.4136
   42MOL   H29512677   5.554   1.231   1.274 -0.9151  1.5571 -1.7877
   42MOL   H29612678   5.472   1.061   1.125  1.0378  2.1401 -0.3389
   42MOL   H29712679   5.370   0.758   1.437 -0.0529 -0.6133 -0.4215
   42MOL   H29812680   5.424   0.643   1.330  0.6018 -0.3872  0.1518
   42MOL   H29912681   5.553   0.595   1.537 -0.0700  1.3059  2.3825
   42MOL   H30012682   5.605   0.760   1.556 -2.1156  0.2423  0.7043
   42MOL   H30112683   5.667   0.664   1.419 -0.8412 -0.9615 -1.2935
   42MOL   H30212684   5.625   0.972   1.126 -1.8435 -0.7525 -1.1350
   43MOL     C112685   0.956   6.646   1.129  0.0089 -0.0900 -0.4149
   43MOL     C212686   1.045   6.725   1.225 -0.1890  0.4291 -0.6997
   43MOL     C312687   1.163   6.626   1.255 -0.2669 -0.0827 -0.5146
   43MOL     O412688   1.279   6.664   1.237  0.0088  0.0305  0.3679
   43MOL     O512689   1.130   6.507   1.313 -0.7237 -0.0537 -0.4618
   43MOL     C612690   1.235   6.412   1.342 -0.0982  0.4565  0.0821
   43MOL     C712691   1.174   6.278   1.393 -0.0260  0.6058  0.1736
   43MOL     H812692   0.869   6.710   1.111 -1.3447 -1.3912  1.4060
   43MOL     H912693   0.929   6.546   1.161  1.5629  0.1152  1.5814
   43MOL    H1012694   1.087   6.813   1.175 -1.6828  0.9901 -0.9890
   43MOL    H1112695   1.303   6.405   1.258  0.5779  2.3954  0.4206
   43MOL    H1212696   1.284   6.472   1.419  0.4735 -0.1844  0.2186
   43MOL    H1312697   1.091   6.290   1.462  0.2366 -0.7269  0.7522
   43MOL    H1412698   1.246   6.211   1.441 -1.0822  0.3004  1.3363
   43MOL    H1512699   1.135   6.218   1.311  0.5792 -0.8885  0.9610
   43MOL    H1612700   1.014   6.629   1.038  1.7237 -1.7982  0.9622
   43MOL    C1712701   0.972   6.763   1.353  0.0346  0.6063  0.1184
   43MOL    C1812702   1.050   6.860   1.451  0.1056 -0.4111 -0.3211
   43MOL    C1912703   1.132   6.963   1.377 -0.1662  0.2890  0.5804
   43MOL    O2012704   1.254   6.959   1.386 -0.8018  0.1124 -0.3518
   43MOL    O2112705   1.064   7.041   1.294  0.1074 -0.2315 -0.2950
   43MOL    C2212706   1.131   7.140   1.214 -0.8809  1.0074 -0.4696
   43MOL    C2312707   1.030   7.245   1.179  0.2627 -1.0295 -0.3127
   43MOL    H2412708   0.877   6.813   1.337  0.2244  0.9429  0.0349
   43MOL    H2512709   0.948   6.669   1.403 -0.1226  0.9029  0.6063
   43MOL    H2612710   0.985   6.915   1.520 -0.9477  0.4301 -1.9592
   43MOL    H2712711   1.207   7.186   1.278 -0.7204  1.7591 -1.1916
   43MOL    H2812712   1.173   7.090   1.127  2.0281  0.4127  1.2123
   43MOL    H2912713   0.981   7.215   1.086 -0.8077  0.3396 -0.1980
   43MOL    H3012714   1.078   7.335   1.143 -0.4389 -0.9021 -0.9614
   43MOL    H3112715   0.944   7.246   1.246 -0.2786 -2.2967 -0.9521
   43MOL    C3212716   1.137   6.782   1.558  0.2630  0.7866  0.0003
   43MOL    C3312717   1.050   6.712   1.661  0.3719 -0.4004  0.6191
   43MOL    C3412718   1.043   6.786   1.796 -1.2986  0.5181 -0.0774
   43MOL    O3512719   1.106   6.743   1.894 -0.2500 -0.2699  0.0394
   43MOL    O3612720   0.972   6.896   1.800 -0.2311 -0.2758  0.0477
   43MOL    C3712721   0.973   6.980   1.915  0.0202 -0.1623 -0.5324
   43MOL    C3812722   0.864   6.942   2.011 -0.2212  0.1810  0.0172
   43MOL    H3912723   1.207   6.707   1.520 -1.3692 -0.3599 -0.8262
   43MOL    H4012724   1.207   6.849   1.606  0.3680  0.6870 -0.0132
   43MOL    H4112725   0.947   6.719   1.624  0.1727 -0.0282  1.2226
   43MOL    H4212726   1.071   6.986   1.963 -0.2524  0.9186 -0.0895
   43MOL    H4312727   0.961   7.084   1.883 -1.0656 -0.1585 -0.1177
   43MOL    H4412728   0.868   6.996   2.106  0.0125  0.0156  0.1034
   43MOL    H4512729   0.880   6.838   2.042  0.0049  0.2223  0.0422
   43MOL    H4612730   0.764   6.940   1.968 -0.3862 -2.2564  0.4082
   43MOL    C4712731   1.081   6.563   1.679  0.0449  0.5199 -0.0986
   43MOL    C4812732   0.963   6.480   1.733  0.5057  0.4013  0.2821
   43MOL    C4912733   1.022   6.345   1.782 -0.0940 -0.9077 -0.0674
   43MOL    O5012734   1.126   6.294   1.741 -0.1628  0.7954  0.1116
   43MOL    O5112735   0.941   6.289   1.863  0.1299  0.8004  0.0887
   43MOL    C5212736   0.973   6.163   1.915 -0.1904  0.7384 -0.0096
   43MOL    C5312737   0.881   6.070   1.846  0.7245  0.2923 -0.0310
   43MOL    H5412738   1.099   6.514   1.584  0.4018 -2.3932  1.3969
   43MOL    H5512739   1.169   6.553   1.744  0.0845 -0.3925 -0.2882
   43MOL    H5612740   0.933   6.539   1.820 -1.1346 -0.1361  0.0889
   43MOL    H5712741   1.076   6.127   1.913 -0.3506  0.3318 -1.2871
   43MOL    H5812742   0.940   6.168   2.019  0.0589  0.9513  0.0591
   43MOL    H5912743   0.890   5.965   1.874  0.4909  0.4541  0.6721
   43MOL    H6012744   0.891   6.078   1.738 -0.9019  1.0064 -0.1481
   43MOL    H6112745   0.774   6.091   1.858  1.1045  1.7855  0.8808
   43MOL    C6212746   0.854   6.469   1.619  0.1007  0.3785 -0.6268
   43MOL    C6312747   0.714   6.472   1.682  0.3402  0.0726 -0.0679
   43MOL    C6412748   0.601   6.425   1.584 -0.6104 -0.8845 -0.6828
   43MOL    O6512749   0.536   6.323   1.598 -0.0213  0.4949 -0.5284
   43MOL    O6612750   0.596   6.511   1.475  0.0847 -0.0452  0.5134
   43MOL    C6712751   0.509   6.481   1.365 -0.3578  0.0917 -0.0399
   43MOL    C6812752   0.576   6.497   1.227  0.4106 -0.7092 -0.0662
   43MOL    H6912753   0.851   6.555   1.553 -1.0553  0.0794 -0.9739
   43MOL    H7012754   0.855   6.378   1.559 -1.3968 -0.6819  0.8927
   43MOL    H7112755   0.711   6.395   1.759 -0.6831  0.0824 -0.0946
   43MOL    H7212756   0.474   6.378   1.371 -2.9245  1.0681  2.4142
   43MOL    H7312757   0.414   6.533   1.367  0.4462  1.6239 -0.3291
   43MOL    H7412758   0.580   6.604   1.212 -0.4197 -1.0436 -2.9582
   43MOL    H7512759   0.518   6.457   1.144 -0.1600  1.3018 -0.6393
   43MOL    H7612760   0.667   6.437   1.230  0.1634 -1.0409  1.3531
   43MOL    C7712761   0.679   6.614   1.737  0.0013  0.3437  0.1649
   43MOL    C7812762   0.578   6.631   1.860  0.2989  0.1549  0.1573
   43MOL    C7912763   0.647   6.592   1.991 -0.0289 -0.0552  0.8146
   43MOL    O8012764   0.608   6.632   2.099 -0.4132  0.5122  0.1596
   43MOL    O8112765   0.756   6.502   1.976 -0.1821 -0.2115  0.1461
   43MOL    C8212766   0.797   6.431   2.092  0.1109 -0.6110 -0.1293
   43MOL    C8312767   0.694   6.315   2.119 -0.3568  0.4474 -0.7405
   43MOL    H8412768   0.768   6.672   1.758  1.6208 -2.0126 -0.0340
   43MOL    H8512769   0.633   6.674   1.658 -0.3850  0.7708  0.7082
   43MOL    H8612770   0.570   6.740   1.855  2.3777  0.2876 -0.7937
   43MOL    H8712771   0.890   6.375   2.077 -0.0064 -0.3124 -2.0992
   43MOL    H8812772   0.822   6.499   2.173 -0.1609 -0.2917 -0.3121
   43MOL    H8912773   0.588   6.335   2.131 -0.7371 -1.8257 -0.0557
   43MOL    H9012774   0.727   6.250   2.200 -0.8778 -1.7546 -2.2330
   43MOL    H9112775   0.687   6.249   2.032  0.2844  0.1409 -0.5609
   43MOL    C9212776   0.435   6.570   1.843 -0.2624 -0.2571  0.0825
   43MOL    C9312777   0.346   6.627   1.737  0.1853 -0.2350  0.5887
   43MOL    C9412778   0.304   6.770   1.771  0.0052 -0.0007  0.5352
   43MOL    O9512779   0.357   6.863   1.712  0.1082 -0.0985  0.0063
   43MOL    O9612780   0.206   6.783   1.864 -0.4555 -0.0003  0.2972
   43MOL    C9712781   0.175   6.902   1.930  0.5311 -1.2164  0.3947
   43MOL    C9812782   0.109   6.868   2.064  0.4183 -0.3805  0.6179
   43MOL    H9912783   0.431   6.461   1.843 -0.1194 -0.2965  2.3759
   43MOL   H10012784   0.381   6.592   1.935 -0.1203  3.1753 -0.5828
   43MOL   H10112785   0.412   6.651   1.654  0.8023  1.1412  1.4480
   43MOL   H10212786   0.264   6.965   1.941 -0.7346  0.5587  0.8330
   43MOL   H10312787   0.101   6.963   1.879  0.7679 -2.1053 -1.0133
   43MOL   H10412788   0.182   6.812   2.122  0.1342 -0.4234  0.9372
   43MOL   H10512789   0.017   6.809   2.058  0.8489 -1.1566  1.4619
   43MOL   H10612790   0.083   6.950   2.131 -0.5433  0.7814 -1.1312
   43MOL   C10712791   0.225   6.532   1.706 -0.8194  0.0745 -0.1187
   43MOL   C10812792   0.161   6.531   1.565 -0.0298 -0.1358 -0.5852
   43MOL   C10912793   0.098   6.670   1.534 -0.2855 -0.1489 -0.2324
   43MOL   O11012794   0.143   6.738   1.439 -0.0672 -0.5139 -0.2805
   43MOL   O11112795   0.004   6.707   1.620 -0.4512  0.5606  0.6940
   43MOL   C11212796   7.838   6.825   1.587 -0.1695 -0.0475  0.2878
   43MOL   C11312797   7.715   6.787   1.509 -0.0261  0.5188 -0.2274
   43MOL   H11412798   0.247   6.427   1.725 -1.0109 -0.2229 -1.4978
   43MOL   H11512799   0.147   6.554   1.779  0.4021  1.4446  0.8258
   43MOL   H11612800   0.243   6.514   1.496  0.9202 -2.1734  0.9843
   43MOL   H11712801   7.807   6.871   1.681 -0.7557  1.3903 -0.5837
   43MOL   H11812802   7.900   6.903   1.544 -0.8577  0.4971  0.2763
   43MOL   H11912803   7.655   6.872   1.477 -1.8353 -0.9105 -0.7379
   43MOL   H12012804   7.656   6.705   1.549 -0.0596  0.7823  0.2763
   43MOL   H12112805   7.752   6.744   1.416 -0.0680  0.2790 -0.1322
   43MOL   C12212806   0.055   6.430   1.538  0.2304 -0.0591 -0.5091
   43MOL   C12312807   0.105   6.288   1.504 -0.9722 -0.0791  0.1175
   43MOL   C12412808   0.185   6.282   1.373  0.1838 -1.0275 -0.1948
   43MOL   O12512809   0.188   6.370   1.283 -0.5262 -0.3113  0.6309
   43MOL   O12612810   0.253   6.172   1.371 -0.1719  0.5278 -0.3744
   43MOL   C12712811   0.333   6.148   1.256 -0.2190 -0.0488  0.3266
   43MOL   C12812812   0.427   6.028   1.283 -0.0559  0.0303  0.7373
   43MOL   H12912813   7.906   6.408   1.628  0.9245 -4.0012 -0.9594
   43MOL   H13012814   7.888   6.462   1.466 -0.1463 -0.7972 -0.4506
   43MOL   H13112815   0.174   6.256   1.582 -1.4181 -3.6686 -0.9055
   43MOL   H13212816   0.278   6.143   1.162  2.7367  1.5256 -1.5526
   43MOL   H13312817   0.398   6.234   1.239  0.0893 -0.1041  1.2054
   43MOL   H13412818   0.472   6.034   1.382 -2.6597  3.5946  1.8100
   43MOL   H13512819   0.511   6.029   1.213 -0.2789  1.0358  0.4795
   43MOL   H13612820   0.377   5.931   1.277 -0.3715  0.2184  0.2550
   43MOL   C13712821   7.908   6.172   1.496 -0.3750 -0.3951 -1.0528
   43MOL   C13812822   7.770   6.203   1.431  0.2122  0.3013  1.2216
   43MOL   C13912823   7.676   6.268   1.535  1.2896 -0.2125  0.2187
   43MOL   O14012824   7.675   6.220   1.644 -0.3332 -0.0727 -0.1286
   43MOL   O14112825   7.618   6.378   1.492 -0.8236 -0.1842  0.0037
   43MOL   C14212826   7.528   6.454   1.568  0.0356  0.0071 -0.2341
   43MOL   C14312827   7.450   6.537   1.467  0.3559  0.0579 -0.0704
   43MOL   H14412828   0.044   6.087   1.444  0.8821 -1.4915  1.7358
   43MOL   H14512829   7.905   6.120   1.592 -1.9550  0.0809 -0.8201
   43MOL   H14612830   7.784   6.272   1.348  0.9191 -0.3164  0.8194
   43MOL   H14712831   7.461   6.392   1.628  0.6386 -0.7425 -0.3260
   43MOL   H14812832   7.593   6.505   1.639  0.6389 -1.9271  0.6365
   43MOL   H14912833   7.387   6.467   1.412 -0.0790  0.5682 -0.2308
   43MOL   H15012834   7.506   6.601   1.400 -0.3491  2.1734  1.3007
   43MOL   H15112835   7.374   6.596   1.519  0.1406 -1.6717  1.6526
   43MOL   C15212836   7.694   6.084   1.363 -0.3693 -0.3266 -0.0379
   43MOL   C15312837   7.763   6.032   1.241 -0.1570  0.0751  0.3261
   43MOL   C15412838   7.800   6.130   1.139  0.4093 -0.3024 -0.5145
   43MOL   O15512839   7.908   6.129   1.090 -0.5819 -0.0795 -0.2680
   43MOL   O15612840   7.697   6.211   1.119 -0.2839  1.3275  0.5382
   43MOL   C15712841   7.695   6.334   1.044  0.4731  0.0560 -0.3354
   43MOL   C15812842   7.686   6.453   1.137 -0.7280  0.2606 -0.3425
   43MOL   H15912843   7.689   6.002   1.434 -0.9757  0.2777  0.6177
   43MOL   H16012844   7.589   6.109   1.355  0.0538  1.7729  0.7240
   43MOL   H16112845   7.865   6.008   1.271  0.3376  1.6733 -0.0474
   43MOL   H16212846   7.789   6.347   0.990  0.8383  1.0900  0.5341
   43MOL   H16312847   7.609   6.340   0.977 -0.5678 -0.6159  0.9122
   43MOL   H16412848   7.603   6.444   1.206 -1.1404  1.1274 -0.7194
   43MOL   H16512849   7.675   6.543   1.076 -0.5823  0.9842  0.6906
   43MOL   H16612850   7.776   6.462   1.197 -0.8075 -0.9000 -0.0302
   43MOL   C16712851   7.691   5.904   1.184 -0.0541 -0.6140 -0.2376
   43MOL   C16812852   7.577   5.920   1.081 -0.1481  0.8647 -0.0056
   43MOL   C16912853   7.449   5.983   1.146  0.2822 -0.1449 -0.3018
   43MOL   O17012854   7.402   5.941   1.246  0.7260 -0.2839 -0.7777
   43MOL   O17112855   7.394   6.074   1.076  0.3642 -0.0666 -0.0762
   43MOL   C17212856   7.286   6.154   1.119  0.0403 -0.9279 -0.2862
   43MOL   C17312857   7.343   6.282   1.184  0.5561 -0.0432  0.0497
   43MOL   H17412858   7.770   5.838   1.147 -0.7165 -1.6823  0.2342
   43MOL   H17512859   7.654   5.841   1.265 -2.7318 -2.5963 -2.9102
   43MOL   H17612860   7.615   5.993   1.010  0.3344  1.4397  0.8404
   43MOL   H17712861   7.242   6.197   1.029  2.1415  0.4329 -0.7016
   43MOL   H17812862   7.220   6.104   1.189  0.1219  1.0666  1.2326
   43MOL   H17912863   7.409   6.342   1.123  0.3031  0.7456  0.5432
   43MOL   H18012864   7.396   6.255   1.276  0.4514 -1.1773 -0.2114
   43MOL   H18112865   7.257   6.345   1.210  0.8237  0.1039  0.5960
   43MOL   C18212866   7.540   5.789   1.015  0.2403  0.2467  0.5359
   43MOL   C18312867   7.651   5.732   0.919 -0.1940 -0.6109  0.9409
   43MOL   C18412868   7.675   5.829   0.800  0.7599  0.1853 -0.3964
   43MOL   O18512869   7.582   5.882   0.738 -0.0087 -0.1664 -0.1339
   43MOL   O18612870   7.800   5.846   0.785 -0.3281  0.3265 -0.2961
   43MOL   C18712871   7.848   5.926   0.676 -0.1433  0.1258  0.1511
   43MOL   C18812872   0.078   5.988   0.706 -0.6099 -0.5173  0.3641
   43MOL   H18912873   7.534   5.711   1.091  0.9283  0.5632  0.9255
   43MOL   H19012874   7.446   5.790   0.960  0.4052  1.5504  0.2624
   43MOL   H19112875   7.742   5.715   0.975  0.3303 -0.9185  0.0039
   43MOL   H19212876   7.861   5.858   0.591  0.3401  2.7868 -1.9901
   43MOL   H19312877   7.779   6.006   0.648  1.4813  1.1515 -1.0723
   43MOL   H19412878   0.115   6.041   0.618  1.8230 -1.3300  0.8628
   43MOL   H19512879   0.147   5.909   0.735  2.3137  1.1889 -1.6687
   43MOL   H19612880   0.064   6.050   0.794  1.7508  0.5353  0.0199
   43MOL   C19712881   7.613   5.597   0.875  1.2605 -0.5408  0.2444
   43MOL   C19812882   7.725   5.522   0.804 -0.4689  0.5119  0.5739
   43MOL   C19912883   7.697   5.477   0.662 -0.1338 -0.2669 -0.2440
   43MOL   O20012884   7.620   5.384   0.635 -0.4774  0.4068  0.3731
   43MOL   O20112885   7.778   5.531   0.575 -0.7316 -0.1501 -0.0868
   43MOL   C20212886   7.753   5.513   0.438  0.4921 -0.4121  0.4106
   43MOL   C20312887   7.811   5.390   0.362  0.0837 -0.0900  0.0880
   43MOL   H20412888   7.570   5.543   0.958  0.1263 -2.3555 -1.4803
   43MOL   H20512889   7.532   5.610   0.802  3.5171 -0.3598 -2.3335
   43MOL   H20612890   7.814   5.585   0.798  0.8823 -1.5164 -1.5856
   43MOL   H20712891   7.646   5.519   0.420  0.7038  1.2277 -0.3625
   43MOL   H20812892   7.793   5.605   0.395  0.0939 -1.1994 -1.6989
   43MOL   H20912893   7.806   5.400   0.254  0.6370  0.9918  0.1512
   43MOL   H21012894   7.771   5.298   0.404  0.8642 -0.4879 -0.0150
   43MOL   H21112895   0.011   5.389   0.379  0.0525 -0.7666  0.2592
   43MOL   C21212896   7.778   5.398   0.880  0.2371 -0.0371 -0.1533
   43MOL   C21312897   7.822   5.436   1.026 -0.1061 -0.3838 -0.8001
   43MOL   C21412898   0.054   5.500   1.039  0.7516 -0.0612  0.6816
   43MOL   O21512899   0.152   5.434   1.079  0.7740  0.0129  0.5664
   43MOL   O21612900   0.053   5.619   0.987 -0.0491  0.2808 -0.3916
   43MOL   C21712901   0.176   5.688   0.980 -0.4936 -0.5487 -0.0478
   43MOL   C21812902   0.174   5.815   1.070  0.4879  0.2473  0.0439
   43MOL   H21912903   7.702   5.320   0.878 -2.9670  2.9867 -3.7752
   43MOL   H22012904   7.853   5.341   0.824  0.6442 -0.4490  0.7948
   43MOL   H22112905   7.750   5.503   1.073  0.1866  0.0015 -0.9055
   43MOL   H22212906   0.268   5.630   0.979  0.7163  1.3144 -0.2500
   43MOL   H22312907   0.170   5.726   0.878 -0.5045 -1.1093 -0.2597
   43MOL   H22412908   0.199   5.782   1.171 -1.3889 -1.3728 -0.0101
   43MOL   H22512909   0.081   5.871   1.061  0.7496  0.9143  1.3631
   43MOL   H22612910   0.255   5.885   1.049  0.7263  0.3721  1.3322
   43MOL   C22712911   7.806   5.311   1.128  0.0320  0.1525  0.0713
   43MOL   C22812912   7.788   5.336   1.279 -0.7193  1.2344 -0.6351
   43MOL   C22912913   7.695   5.446   1.317 -0.2684  0.0208 -0.6370
   43MOL   O23012914   7.731   5.565   1.313 -0.2208  0.4150  0.5015
   43MOL   O23112915   7.563   5.410   1.318 -0.1934  0.0191  0.1676
   43MOL   C23212916   7.453   5.491   1.355 -0.2448 -0.4328 -0.6623
   43MOL   C23312917   7.320   5.466   1.274 -0.0552  0.6570  0.4670
   43MOL   H23412918   7.712   5.273   1.087 -0.1988  1.7625 -0.9452
   43MOL   H23512919   7.886   5.238   1.115  0.0608 -0.0103  1.1156
   43MOL   H23612920   7.728   5.248   1.305 -0.2662  0.6125 -1.6725
   43MOL   H23712921   7.448   5.476   1.463  2.8968 -0.8612 -0.5374
   43MOL   H23812922   7.481   5.596   1.349 -0.6275 -0.3287 -0.6878
   43MOL   H23912923   7.239   5.535   1.297 -0.7415  1.0518 -2.9016
   43MOL   H24012924   7.277   5.369   1.301 -0.3375  0.4963 -0.5547
   43MOL   H24112925   7.335   5.464   1.166  1.6117 -1.1657  0.6942
   43MOL   C24212926   0.016   5.349   1.353  0.0642  0.3664  0.3507
   43MOL   C24312927   0.017   5.288   1.497 -0.3714 -0.1069 -0.1748
   43MOL   C24412928   0.039   5.134   1.486 -0.5690  0.2478  0.3335
   43MOL   O24512929   7.881   5.047   1.544 -0.8413 -0.1504  0.0527
   43MOL   O24612930   0.148   5.102   1.401 -0.1505 -0.0310  0.7396
   43MOL   C24712931   0.165   4.956   1.390 -0.4976 -0.6184 -0.0987
   43MOL   C24812932   0.267   4.909   1.498 -0.4196  0.0988  0.3154
   43MOL   H24912933   0.098   5.305   1.297 -2.2246 -1.7017 -1.5051
   43MOL   H25012934   0.041   5.455   1.360 -1.6977  0.9847 -2.0765
   43MOL   H25112935   0.108   5.324   1.543  0.4406 -0.4851 -1.4737
   43MOL   H25212936   0.074   4.898   1.404  1.0995 -2.8869  1.2036
   43MOL   H25312937   0.195   4.935   1.287  0.2083  1.4343 -0.3326
   43MOL   H25412938   0.355   4.970   1.479 -0.4133  0.1990  0.6631
   43MOL   H25512939   0.286   4.804   1.476 -1.4343  0.6789 -3.7379
   43MOL   H25612940   0.232   4.940   1.596 -0.1794 -0.5270  0.5964
   43MOL   C25712941   7.807   5.306   1.601 -1.2711  0.2056  0.4665
   43MOL   C25812942   7.793   5.454   1.644 -0.7757  0.0651  0.0495
   43MOL   C25912943   7.896   5.478   1.761  0.5868  0.0450  0.1329
   43MOL   O26012944   0.039   5.389   1.826  0.4793  0.1992 -0.0908
   43MOL   O26112945   0.014   5.612   1.779 -0.6214 -0.0045  0.1245
   43MOL   C26212946   0.102   5.660   1.883 -0.7285  0.0356 -0.7337
   43MOL   C26312947   0.209   5.741   1.822  0.3061  0.4829  0.0924
   43MOL   H26412948   7.713   5.280   1.553 -1.6312  0.8690  0.8144
   43MOL   H26512949   7.818   5.251   1.695  1.4422  1.3608  0.8857
   43MOL   H26612950   7.827   5.515   1.561  2.5727 -1.9899 -0.1470
   43MOL   H26712951   0.058   5.714   1.966 -0.3970 -1.3475  0.3577
   43MOL   H26812952   0.152   5.573   1.926 -0.9254  0.5348  0.5354
   43MOL   H26912953   0.279   5.766   1.902  2.2714 -3.3987 -0.2930
   43MOL   H27012954   0.177   5.833   1.773 -2.6197 -0.1344  0.7510
   43MOL   H27112955   0.272   5.688   1.751 -0.3400 -0.5099  0.2420
   43MOL   C27212956   7.653   5.504   1.679  0.7990 -0.6026 -0.0185
   43MOL   C27312957   7.578   5.443   1.801  0.0083 -0.2098  0.6100
   43MOL   C27412958   7.531   5.292   1.784 -0.4421 -0.6392 -0.4810
   43MOL   O27512959   7.436   5.256   1.719  0.0474  0.0629 -0.0001
   43MOL   O27612960   7.605   5.215   1.857 -0.1056 -0.6717 -0.3753
   43MOL   C27712961   7.568   5.078   1.867 -0.2698  1.1862 -1.1643
   43MOL   C27812962   7.694   4.999   1.925 -0.2734 -0.5477 -0.3637
   43MOL   H27912963   7.669   5.610   1.696 -3.0445 -0.3435  2.5603
   43MOL   H28012964   7.599   5.490   1.586  1.3919  2.3564 -0.8433
   43MOL   H28112965   7.656   5.442   1.877  1.9196  1.9718 -1.2727
   43MOL   H28212966   7.484   5.048   1.930  0.5200 -2.4150 -1.7135
   43MOL   H28312967   7.552   5.046   1.764  0.2205  0.9321 -1.1631
   43MOL   H28412968   7.724   5.004   2.029  3.0581 -1.7685 -1.2054
   43MOL   H28512969   7.774   5.037   1.861 -0.3385 -0.3302 -0.3172
   43MOL   H28612970   7.682   4.891   1.921 -0.9622 -0.5051  0.3082
   43MOL   C28712971   7.460   5.537   1.828 -0.1145  0.2446  0.4296
   43MOL   C28812972   7.388   5.507   1.956 -0.7175  0.3075  0.3421
   43MOL   C28912973   7.464   5.525   2.087  0.1665  0.1398 -0.5139
   43MOL   O29012974   7.499   5.429   2.154 -0.0117 -0.1820 -0.1219
   43MOL   O29112975   7.498   5.649   2.117 -0.2166 -0.1047 -0.4787
   43MOL   C29212976   7.597   5.681   2.218 -0.0999  1.0302  0.8818
   43MOL   C29312977   7.524   5.713   2.340  0.2948 -0.0543 -0.9655
   43MOL   H29412978   7.506   5.634   1.847 -2.4400  1.0794  1.9619
   43MOL   H29512979   7.396   5.544   1.739  0.1322 -0.0934  0.2234
   43MOL   H29612980   7.302   5.573   1.962 -0.4283  0.7344 -0.2377
   43MOL   H29712981   7.667   5.599   2.233  2.8765  3.6647  2.0611
   43MOL   H29812982   7.653   5.768   2.185 -0.1978  0.8965  0.3590
   43MOL   H29912983   7.478   5.812   2.334 -0.4526 -0.3453 -0.1320
   43MOL   H30012984   7.598   5.710   2.420  0.6478 -0.6603 -1.3142
   43MOL   H30112985   7.455   5.638   2.377  1.7070 -0.3505  1.1489
   43MOL   H30212986   7.316   5.425   1.958  1.2332 -1.4846 -0.3144
   44MOL     C112987   1.983   5.705   5.987  0.5628 -0.6568 -0.1457
   44MOL     C212988   2.010   5.854   5.975 -0.2486  0.5313  0.1339
   44MOL     C312989   1.880   5.930   6.003 -0.0289 -0.3831  0.0317
   44MOL     O412990   1.772   5.866   6.014  0.6268 -0.6502 -0.3730
   44MOL     O512991   1.901   6.057   6.031 -0.4104 -0.1627  0.3531
   44MOL     C612992   1.795   6.142   6.051  0.7835 -0.3972 -0.0811
   44MOL     C712993   1.833   6.257   5.962 -0.1829 -0.1788  0.1233
   44MOL     H812994   1.908   5.670   5.916 -1.0208 -1.0436  1.6710
   44MOL     H912995   1.946   5.673   6.084 -0.7134 -2.7501 -1.2899
   44MOL    H1012996   2.089   5.876   6.046  1.0652 -1.6800 -0.5775
   44MOL    H1112997   1.709   6.091   6.007  0.0815  0.6757  0.0265
   44MOL    H1212998   1.767   6.165   6.154 -0.0028 -3.9221  0.5776
   44MOL    H1312999   1.755   6.333   5.953  0.5828  0.6514  0.4783
   44MOL    H1413000   1.869   6.217   5.867 -0.6778  0.4655 -0.3437
   44MOL    H1513001   1.916   6.311   6.007  1.0088 -0.5417 -1.5680
   44MOL    H1613002   2.073   5.645   5.968  1.5588  0.7969 -0.0668
   44MOL    C1713003   2.061   5.890   5.831 -0.0553 -0.8089  0.0656
   44MOL    C1813004   2.121   6.026   5.811  0.2857  0.3030  0.2628
   44MOL    C1913005   2.102   6.078   5.669 -0.5468  0.0800  1.1059
   44MOL    O2013006   2.046   6.009   5.583 -0.1962  0.8130 -0.5805
   44MOL    O2113007   2.164   6.194   5.639 -0.1614 -0.0256 -0.2372
   44MOL    C2213008   2.164   6.238   5.507  0.0096  0.6314  0.6032
   44MOL    C2313009   2.237   6.369   5.489 -0.4507 -0.3104 -0.6537
   44MOL    H2413010   2.138   5.819   5.802  0.1483 -0.4323 -0.3431
   44MOL    H2513011   1.982   5.872   5.758  0.7002  0.8866 -1.2201
   44MOL    H2613012   2.067   6.100   5.871 -0.1187  1.0767 -1.0454
   44MOL    H2713013   2.191   6.154   5.444 -0.9812  0.8157 -0.0844
   44MOL    H2813014   2.062   6.251   5.470  0.3313  0.0927 -0.4908
   44MOL    H2913015   2.219   6.406   5.388 -0.7062 -1.7990 -1.1677
   44MOL    H3013016   2.343   6.359   5.514 -0.8481 -1.6475  0.5959
   44MOL    H3113017   2.196   6.443   5.557 -1.5697 -2.2172  0.8136
   44MOL    C3213018   2.264   6.030   5.853 -0.4059 -0.5767  0.2773
   44MOL    C3313019   2.375   5.970   5.757 -0.5937 -0.7282 -0.1168
   44MOL    C3413020   2.401   5.818   5.792  0.0793 -0.8882 -1.1784
   44MOL    O3513021   2.334   5.726   5.741  0.2906 -0.1014  0.1146
   44MOL    O3613022   2.482   5.802   5.902  0.1258 -0.6173 -0.2131
   44MOL    C3713023   2.495   5.675   5.965 -0.6308  0.3100  1.1551
   44MOL    C3813024   2.373   5.611   6.030 -0.4352 -0.0525 -0.2343
   44MOL    H3913025   2.280   6.137   5.864  2.1932 -0.8194 -0.7406
   44MOL    H4013026   2.265   5.977   5.949  0.0823  1.3286  1.3483
   44MOL    H4113027   2.335   5.975   5.656 -1.4204  1.5930  0.3119
   44MOL    H4213028   2.527   5.615   5.879 -0.2515  2.4259 -0.2075
   44MOL    H4313029   2.579   5.673   6.034 -0.1828 -2.0607  0.5863
   44MOL    H4413030   2.294   5.583   5.959 -0.6760 -2.0682  0.7940
   44MOL    H4513031   2.337   5.681   6.105 -1.7231 -0.5649 -0.3596
   44MOL    H4613032   2.410   5.517   6.071  1.5133  1.0921  0.6983
   44MOL    C4713033   2.501   6.048   5.746  0.2290 -0.2635 -0.1819
   44MOL    C4813034   2.586   5.998   5.622 -0.2050 -0.1027 -1.5496
   44MOL    C4913035   2.743   6.010   5.654 -0.2489  0.2103 -0.6450
   44MOL    O5013036   2.795   6.036   5.767  0.0554 -0.0094  0.4335
   44MOL    O5113037   2.813   5.979   5.541  0.1287  0.1403 -0.9071
   44MOL    C5213038   2.954   5.980   5.542  0.0973 -0.0541 -0.4294
   44MOL    C5313039   3.012   5.895   5.429 -0.4593 -0.2294  0.1357
   44MOL    H5413040   2.476   6.153   5.741 -3.1380 -0.9924  0.2552
   44MOL    H5513041   2.563   6.046   5.836  1.9944 -2.8335 -1.3916
   44MOL    H5613042   2.562   5.892   5.622 -0.9169 -0.1038  3.3599
   44MOL    H5713043   2.974   6.086   5.527  0.2497  0.0392  0.3935
   44MOL    H5813044   2.995   5.946   5.637 -4.5520 -1.2393  1.2860
   44MOL    H5913045   2.998   5.788   5.447 -0.9056  0.0029  1.1905
   44MOL    H6013046   3.119   5.904   5.409 -0.8311  1.2656 -1.1836
   44MOL    H6113047   2.950   5.925   5.345 -1.8082  1.5558  1.7187
   44MOL    C6213048   2.535   6.066   5.493 -0.3750  0.4774  0.1275
   44MOL    C6313049   2.561   6.001   5.352 -0.3795  0.0974  1.0081
   44MOL    C6413050   2.525   6.106   5.247 -0.7281  0.0505 -0.0448
   44MOL    O6513051   2.620   6.163   5.191 -0.3492  0.1412 -0.4694
   44MOL    O6613052   2.403   6.116   5.208 -0.1337  0.1544 -0.1010
   44MOL    C6713053   2.370   6.203   5.096  0.7296 -0.0270  0.2466
   44MOL    C6813054   2.220   6.231   5.101 -0.4026 -0.5581 -0.5287
   44MOL    H6913055   2.427   6.078   5.497 -0.5572 -0.4461 -1.5270
   44MOL    H7013056   2.542   6.174   5.504  1.1810  0.2745  1.3995
   44MOL    H7113057   2.670   6.001   5.350 -0.3749  0.9266  0.9515
   44MOL    H7213058   2.419   6.299   5.076  0.6591 -0.2374 -0.9729
   44MOL    H7313059   2.389   6.156   5.000 -0.5616  2.9381 -1.5621
   44MOL    H7413060   2.194   6.259   5.203  0.3658  0.1079 -0.5121
   44MOL    H7513061   2.152   6.147   5.086 -1.1003 -0.4443  1.7817
   44MOL    H7613062   2.183   6.315   5.043 -1.2957 -0.5447  0.0478
   44MOL    C7713063   2.492   5.857   5.331  0.1441 -0.2791  0.3600
   44MOL    C7813064   2.581   5.735   5.370 -0.2212  0.0232 -0.8975
   44MOL    C7913065   2.691   5.707   5.272 -0.2387 -0.1394 -0.1238
   44MOL    O8013066   2.806   5.708   5.314  0.2409  0.2978  0.3527
   44MOL    O8113067   2.647   5.697   5.141 -0.1862 -0.3171 -0.1011
   44MOL    C8213068   2.748   5.661   5.055  0.1575  0.2432 -0.1700
   44MOL    C8313069   2.695   5.672   4.907 -0.1635 -0.2976  0.0603
   44MOL    H8413070   2.390   5.854   5.370 -0.6925  0.1594 -1.7158
   44MOL    H8513071   2.458   5.848   5.228  1.3533  1.9214 -0.2505
   44MOL    H8613072   2.632   5.771   5.459  1.6393 -0.2530 -1.8351
   44MOL    H8713073   2.835   5.723   5.078  0.4382 -0.3071  0.2533
   44MOL    H8813074   2.779   5.557   5.064  0.9199  0.6493  2.3790
   44MOL    H8913075   2.776   5.638   4.843 -0.4272 -1.5062  0.3577
   44MOL    H9013076   2.664   5.775   4.890 -0.2718 -0.0926  1.4211
   44MOL    H9113077   2.607   5.613   4.882 -0.6985  0.8427 -0.7410
   44MOL    C9213078   2.494   5.613   5.410  0.2031 -0.9223  0.8879
   44MOL    C9313079   2.567   5.495   5.471  0.3623  0.2692  0.6367
   44MOL    C9413080   2.489   5.363   5.451  0.6723 -0.7750 -0.1288
   44MOL    O9513081   2.531   5.262   5.396  0.7988  0.1757  0.6471
   44MOL    O9613082   2.362   5.375   5.485 -0.5292  0.5792 -0.5065
   44MOL    C9713083   2.269   5.274   5.460  0.3049  0.1257  0.4281
   44MOL    C9813084   2.282   5.148   5.541 -0.1058 -0.3908  0.6390
   44MOL    H9913085   2.415   5.655   5.472  0.4083  0.0401  0.5178
   44MOL   H10013086   2.440   5.571   5.326 -0.2500  0.2379  0.5955
   44MOL   H10113087   2.665   5.495   5.423 -0.1681 -2.2121 -0.5639
   44MOL   H10213088   2.173   5.318   5.486 -0.4818 -0.1214 -1.9478
   44MOL   H10313089   2.264   5.246   5.355 -0.5306  0.3320  0.4114
   44MOL   H10413090   2.376   5.096   5.523  0.5943  1.0985 -0.0382
   44MOL   H10513091   2.201   5.078   5.518 -1.3419  1.0558  0.4716
   44MOL   H10613092   2.266   5.165   5.647 -2.3919  0.4397  0.1998
   44MOL   C10713093   2.611   5.536   5.615  0.0979  0.2918 -0.6462
   44MOL   C10813094   2.752   5.471   5.673  0.0889 -0.2280  0.7946
   44MOL   C10913095   2.788   5.522   5.810  0.2785 -0.4226 -0.0932
   44MOL   O11013096   2.773   5.451   5.908 -0.3339  1.0213 -0.4161
   44MOL   O11113097   2.837   5.642   5.801 -0.2785  0.0984 -0.0589
   44MOL   C11213098   2.883   5.702   5.922  0.4247  1.0706  0.5874
   44MOL   C11313099   3.035   5.720   5.916 -0.0959 -0.3005  0.3191
   44MOL   H11413100   2.616   5.643   5.637  2.1651 -0.1072  0.9616
   44MOL   H11513101   2.530   5.506   5.682  1.4475  0.5197  1.1345
   44MOL   H11613102   2.732   5.363   5.674 -0.1596 -0.1799  2.6365
   44MOL   H11713103   2.847   5.805   5.921  0.5676  1.1059 -1.7774
   44MOL   H11813104   2.858   5.645   6.012  0.1402  0.6078  0.2153
   44MOL   H11913105   3.072   5.781   5.999  1.2866 -0.3613 -0.2332
   44MOL   H12013106   3.064   5.771   5.824  0.8732  0.2812  0.9391
   44MOL   H12113107   3.077   5.619   5.914  2.1534  0.5938  0.3869
   44MOL   C12213108   2.874   5.486   5.579  1.3966 -0.4508  0.0506
   44MOL   C12313109   3.017   5.457   5.638  0.1356 -0.4040  0.7639
   44MOL   C12413110   3.127   5.531   5.551 -0.0444  0.1140  0.7640
   44MOL   O12513111   3.210   5.611   5.601 -0.4794 -0.1368  0.1809
   44MOL   O12613112   3.122   5.487   5.422 -0.2443 -0.2763 -0.4426
   44MOL   C12713113   3.217   5.537   5.334 -0.5946  0.2095 -1.3954
   44MOL   C12813114   3.332   5.434   5.322 -0.0134  0.3240 -0.0323
   44MOL   H12913115   2.868   5.423   5.490 -0.4111 -0.5445  0.2331
   44MOL   H13013116   2.879   5.592   5.552 -1.2144 -0.9324 -2.5517
   44MOL   H13113117   3.018   5.505   5.735 -0.0331  2.0561 -0.4222
   44MOL   H13213118   3.160   5.555   5.244 -2.9301 -1.6892 -0.3560
   44MOL   H13313119   3.246   5.634   5.375  0.9718 -1.0290  0.5165
   44MOL   H13413120   3.404   5.446   5.404 -0.6852 -0.8480  0.7396
   44MOL   H13513121   3.382   5.461   5.229 -1.5684 -0.0263 -0.9718
   44MOL   H13613122   3.295   5.332   5.328  0.2709  0.2396  0.3652
   44MOL   C13713123   3.055   5.306   5.655 -0.0085  0.2978 -0.4433
   44MOL   C13813124   2.996   5.224   5.773  0.7221  0.1329 -0.2960
   44MOL   C13913125   3.048   5.284   5.906 -0.6516 -0.5209 -0.4933
   44MOL   O14013126   3.162   5.331   5.915 -0.4470 -0.4464  0.7841
   44MOL   O14113127   2.968   5.265   6.011  0.0866 -0.0184  0.1905
   44MOL   C14213128   2.990   5.340   6.131  0.2176 -0.1451  0.1926
   44MOL   C14313129   2.866   5.320   6.222 -0.5151  0.3857  0.3690
   44MOL   H14413130   3.015   5.264   5.563 -1.5737  3.1473 -1.1323
   44MOL   H14513131   3.161   5.279   5.655 -0.7941 -3.0371 -0.5185
   44MOL   H14613132   2.888   5.227   5.774  0.6405 -1.1162 -2.0339
   44MOL   H14713133   3.076   5.297   6.182  0.4953  0.8573  0.5569
   44MOL   H14813134   3.012   5.442   6.101  3.6297 -0.9315 -0.2484
   44MOL   H14913135   2.842   5.213   6.231 -2.0525  0.7600  1.0039
   44MOL   H15013136   2.774   5.360   6.179 -0.0197  1.6697  0.4820
   44MOL   H15113137   2.896   5.360   6.319  0.8977 -0.4965  0.3010
   44MOL   C15213138   3.028   5.072   5.749 -0.0595 -0.0520  0.3805
   44MOL   C15313139   2.978   4.973   5.857  0.3163  0.5279  0.1849
   44MOL   C15413140   3.092   4.908   5.932 -0.1987  0.0077  0.5092
   44MOL   O15513141   3.110   4.788   5.949 -0.0301  0.0274  0.0860
   44MOL   O15613142   3.179   4.997   5.982  0.7304 -0.3751  0.7141
   44MOL   C15713143   3.292   4.952   6.054 -0.3499  0.0773 -0.1576
   44MOL   C15813144   3.375   5.072   6.097 -0.0176 -0.0628 -0.1336
   44MOL   H15913145   2.988   5.040   5.653 -0.2060  0.8660  0.1349
   44MOL   H16013146   3.135   5.055   5.737 -0.5600 -2.2910 -1.3537
   44MOL   H16113147   2.926   5.036   5.929  0.5872  1.6123 -0.5566
   44MOL   H16213148   3.257   4.900   6.144  2.5059 -1.0897  0.3255
   44MOL   H16313149   3.356   4.884   5.997 -0.7314 -0.4034 -0.0136
   44MOL   H16413150   3.325   5.162   6.133  4.1994  1.7192  1.5581
   44MOL   H16513151   3.421   5.106   6.004  0.1879 -0.3139 -0.1233
   44MOL   H16613152   3.444   5.042   6.176  0.0340  0.7335  0.1236
   44MOL   C16713153   2.890   4.869   5.794 -0.4583  0.0679 -0.5243
   44MOL   C16813154   2.753   4.934   5.755 -0.6254  0.6101 -0.1591
   44MOL   C16913155   2.662   4.951   5.879  0.1858 -0.5143  0.0514
   44MOL   O17013156   2.649   4.862   5.964 -0.9652  0.0214 -0.0415
   44MOL   O17113157   2.602   5.074   5.883  0.2113  0.2032  0.2908
   44MOL   C17213158   2.533   5.119   6.000 -0.0034  0.0899  0.1188
   44MOL   C17313159   2.412   5.205   5.960  0.3610  0.3865  0.8366
   44MOL   H17413160   2.929   4.814   5.709  0.6450  1.4950 -0.9514
   44MOL   H17513161   2.859   4.792   5.865 -0.2142  0.1380 -0.3412
   44MOL   H17613162   2.770   5.030   5.706 -0.1691  0.1105 -0.9808
   44MOL   H17713163   2.506   5.039   6.068  2.1399 -0.8145 -0.0649
   44MOL   H17813164   2.605   5.186   6.048  0.2570  1.0516 -1.5892
   44MOL   H17913165   2.381   5.252   6.053 -1.7671 -0.2184  0.4690
   44MOL   H18013166   2.326   5.151   5.918  0.4988  1.0394 -0.2906
   44MOL   H18113167   2.448   5.282   5.892 -1.4067 -1.1535 -2.0090
   44MOL   C18213168   2.677   4.846   5.645 -1.0230  0.1248  0.3802
   44MOL   C18313169   2.747   4.832   5.507 -0.2459 -0.0188 -0.1807
   44MOL   C18413170   2.834   4.947   5.458  0.5335 -0.1278  0.4385
   44MOL   O18513171   2.955   4.932   5.441  0.1183 -0.4432  0.3635
   44MOL   O18613172   2.763   5.057   5.430  0.1660 -0.2371 -0.5517
   44MOL   C18713173   2.817   5.160   5.339 -0.7630 -0.3170  0.2062
   44MOL   C18813174   2.772   5.114   5.198 -0.0759  0.5542  0.4142
   44MOL   H18913175   2.656   4.745   5.680  1.0217  0.2740  2.1091
   44MOL   H19013176   2.576   4.879   5.619 -1.9893 -2.7223  0.3367
   44MOL   H19113177   2.830   4.764   5.526 -0.8009 -0.1052  2.1326
   44MOL   H19213178   2.781   5.262   5.346 -2.5486 -0.8964 -0.3133
   44MOL   H19313179   2.924   5.166   5.358 -0.0430 -1.9828 -2.9066
   44MOL   H19413180   2.666   5.131   5.183  0.2482  3.0482  0.7420
   44MOL   H19513181   2.795   5.013   5.164  0.2955  0.2144  1.6250
   44MOL   H19613182   2.823   5.173   5.122  1.2974  0.4687  1.2418
   44MOL   C19713183   2.660   4.793   5.394  0.7565  0.4553 -0.3189
   44MOL   C19813184   2.593   4.651   5.411 -0.4977  0.2836  0.4639
   44MOL   C19913185   2.703   4.553   5.428  0.1752  0.9152  0.4041
   44MOL   O20013186   2.712   4.484   5.533 -0.2866 -0.6753 -0.1887
   44MOL   O20113187   2.781   4.533   5.321 -0.0325 -0.3525  0.3908
   44MOL   C20213188   2.868   4.425   5.313  0.2664 -0.0909 -0.3961
   44MOL   C20313189   2.872   4.386   5.165  0.1904 -0.2330  0.0409
   44MOL   H20413190   2.586   4.873   5.382 -1.8557 -1.7959  0.2099
   44MOL   H20513191   2.719   4.794   5.302  2.6449  1.7859  0.8728
   44MOL   H20613192   2.528   4.641   5.497 -1.7371  0.3108 -0.4591
   44MOL   H20713193   2.969   4.437   5.353 -0.1447 -1.1152  0.9732
   44MOL   H20813194   2.825   4.340   5.364 -0.3794  1.0546  1.0005
   44MOL   H20913195   2.769   4.375   5.132 -0.3390  0.1084  1.5274
   44MOL   H21013196   2.911   4.284   5.155  0.9948 -0.0332  1.0042
   44MOL   H21113197   2.925   4.456   5.101 -0.6661 -2.0082 -2.7025
   44MOL   C21213198   2.499   4.611   5.291  0.3655 -0.2559 -0.0997
   44MOL   C21313199   2.355   4.652   5.300  0.2922 -0.3013  0.3391
   44MOL   C21413200   2.344   4.802   5.266  0.0620 -0.3463  0.4710
   44MOL   O21513201   2.321   4.888   5.349  0.0650 -0.1094 -0.3189
   44MOL   O21613202   2.370   4.820   5.130  0.0280 -0.2659  0.4230
   44MOL   C21713203   2.387   4.951   5.091  0.6047 -0.0061  0.2119
   44MOL   C21813204   2.441   4.963   4.949  0.2254 -0.1671  0.2245
   44MOL   H21913205   2.546   4.643   5.198  0.0004 -0.8485 -0.4956
   44MOL   H22013206   2.494   4.502   5.288  2.4334 -0.3542 -0.6564
   44MOL   H22113207   2.311   4.602   5.215 -0.8763 -1.0748  1.3787
   44MOL   H22213208   2.291   5.003   5.100  1.4317  1.2360  2.1265
   44MOL   H22313209   2.452   5.002   5.162 -0.1642 -0.0957  1.0011
   44MOL   H22413210   2.451   5.068   4.924 -0.2384  0.0368  0.8818
   44MOL   H22513211   2.379   4.912   4.875 -0.5411 -2.1892  2.1845
   44MOL   H22613212   2.540   4.917   4.943  0.0360 -1.0889  2.9946
   44MOL   C22713213   2.260   4.616   5.423 -0.0774  0.2969  0.0750
   44MOL   C22813214   2.237   4.470   5.446  0.5653  0.7608 -0.8197
   44MOL   C22913215   2.182   4.400   5.321  0.3996  0.1957  0.4663
   44MOL   O23013216   2.070   4.416   5.277  0.3344 -0.5054  0.5071
   44MOL   O23113217   2.276   4.324   5.265 -0.4249  0.3215  0.2372
   44MOL   C23213218   2.246   4.227   5.167  0.1895  0.0514  0.0161
   44MOL   C23313219   2.205   4.090   5.218  0.5997 -0.4572  0.2332
   44MOL   H23413220   2.294   4.673   5.510  2.5400  1.3141 -1.5563
   44MOL   H23513221   2.161   4.658   5.406 -0.5463 -1.0373 -0.5539
   44MOL   H23613222   2.335   4.426   5.464  0.0216  0.0150  0.4155
   44MOL   H23713223   2.186   4.261   5.083 -0.8720  1.8542  1.4602
   44MOL   H23813224   2.335   4.205   5.108 -1.5639 -1.8679 -2.0018
   44MOL   H23913225   2.178   4.023   5.136 -1.0165 -0.6597  0.9168
   44MOL   H24013226   2.126   4.103   5.291 -0.4454 -2.2951 -0.5269
   44MOL   H24113227   2.296   4.055   5.268  1.4561 -0.9780 -1.6219
   44MOL   C24213228   2.152   4.443   5.570 -0.4835 -0.8807  0.6824
   44MOL   C24313229   2.183   4.323   5.657 -0.6494  0.1430  0.8378
   44MOL   C24413230   2.132   4.198   5.590 -0.7824 -0.4464  1.1420
   44MOL   O24513231   2.207   4.101   5.565  0.1425  0.0001  0.0762
   44MOL   O24613232   1.993   4.195   5.583  0.2365 -0.3909  0.5238
   44MOL   C24713233   1.937   4.084   5.516 -0.4062  0.9360 -0.4837
   44MOL   C24813234   1.792   4.070   5.540 -0.5188 -0.0295  0.0112
   44MOL   H24913235   2.171   4.526   5.638 -1.5080  0.9861 -1.2318
   44MOL   H25013236   2.046   4.458   5.548 -0.3750  0.2728  0.9378
   44MOL   H25113237   2.291   4.324   5.662 -0.4393  0.1531 -2.5405
   44MOL   H25213238   1.952   4.099   5.409  1.7560  2.2861 -0.0420
   44MOL   H25313239   1.989   3.992   5.540 -0.2273  1.0729 -0.3401
   44MOL   H25413240   1.741   4.077   5.636 -2.1587 -1.9665 -0.6714
   44MOL   H25513241   1.757   3.972   5.506 -2.4177  0.8305 -0.5838
   44MOL   H25613242   1.737   4.145   5.482 -2.0046 -1.0401  0.0836
   44MOL   C25713243   2.131   4.337   5.807 -0.6339  0.5767 -0.5079
   44MOL   C25813244   2.215   4.246   5.907 -0.2501 -0.1102 -0.3577
   44MOL   C25913245   2.159   4.236   6.057 -0.2327 -0.6105 -0.4416
   44MOL   O26013246   2.081   4.319   6.096  0.2918 -0.1981  0.0871
   44MOL   O26113247   2.208   4.122   6.125  0.5835 -0.0978  0.0074
   44MOL   C26213248   2.138   4.086   6.241 -0.4975 -0.3792  0.1342
   44MOL   C26313249   2.219   4.006   6.331  0.5452  0.5325  0.1232
   44MOL   H26413250   2.145   4.436   5.851  0.0570  0.6877 -0.9601
   44MOL   H26513251   2.023   4.330   5.813 -0.4176 -2.1684  0.7157
   44MOL   H26613252   2.203   4.143   5.873 -2.7542 -0.1051  0.4606
   44MOL   H26713253   2.110   4.180   6.288 -0.8297 -0.2205 -0.3843
   44MOL   H26813254   2.041   4.045   6.216 -0.7447 -0.3621  1.0343
   44MOL   H26913255   2.263   3.920   6.280 -1.4194 -0.4411 -0.0015
   44MOL   H27013256   2.156   3.968   6.412  0.9868 -2.2156 -0.7442
   44MOL   H27113257   2.308   4.056   6.369  0.5269  1.0627 -0.5324
   44MOL   C27213258   2.370   4.278   5.906  0.3795  0.1908 -0.2509
   44MOL   C27313259   2.434   4.422   5.938 -0.4853 -0.0300  0.1252
   44MOL   C27413260   2.411   4.529   5.826  0.2017 -0.2349 -0.3562
   44MOL   O27513261   2.464   4.526   5.717 -0.3230  0.6784 -0.0062
   44MOL   O27613262   2.323   4.629   5.860  0.3044  0.1210  0.1189
   44MOL   C27713263   2.305   4.744   5.772  0.8531 -0.5741 -0.0857
   44MOL   C27813264   2.261   4.846   5.869 -0.3932  0.0007 -0.2916
   44MOL   H27913265   2.406   4.206   5.979 -0.2668  1.3166  1.1880
   44MOL   H28013266   2.405   4.246   5.808  0.9233  0.1653 -0.0466
   44MOL   H28113267   2.380   4.463   6.023  0.8736 -0.1540  1.0655
   44MOL   H28213268   2.400   4.774   5.728  0.2310 -0.5955 -1.5022
   44MOL   H28313269   2.231   4.731   5.693  1.2132  0.9343 -0.6965
   44MOL   H28413270   2.341   4.855   5.942  1.6118  1.5832 -2.6086
   44MOL   H28513271   2.164   4.809   5.904  0.7322 -1.1253  1.7305
   44MOL   H28613272   2.245   4.937   5.811 -1.7294 -0.3435 -0.4901
   44MOL   C28713273   2.587   4.404   5.974  0.2511 -0.0706  0.1340
   44MOL   C28813274   2.640   4.504   6.082 -0.3197  0.8011 -0.4400
   44MOL   C28913275   2.610   4.458   6.221  0.1985 -0.7065 -0.2937
   44MOL   O29013276   2.679   4.378   6.283  0.5718  0.2052 -0.0084
   44MOL   O29113277   2.491   4.510   6.274  0.0645 -0.5606 -0.4443
   44MOL   C29213278   2.454   4.491   6.411 -0.1752 -0.1783 -0.4864
   44MOL   C29313279   2.318   4.415   6.417 -0.1627  0.7162 -0.6965
   44MOL   H29413280   2.606   4.303   6.011 -3.7005 -0.8159  0.4290
   44MOL   H29513281   2.649   4.420   5.886  1.9511  0.3206  1.3844
   44MOL   H29613282   2.746   4.525   6.065  0.0279 -0.0091  0.6239
   44MOL   H29713283   2.527   4.426   6.460 -0.5758  0.0347  0.3843
   44MOL   H29813284   2.441   4.589   6.455  0.0078  0.2235 -1.3182
   44MOL   H29913285   2.312   4.395   6.524  1.7046  0.1499 -0.6625
   44MOL   H30013286   2.335   4.319   6.368  0.5498  0.4999 -0.0465
   44MOL   H30113287   2.228   4.447   6.365 -1.1151 -0.9587 -0.0800
   44MOL   H30213288   2.594   4.601   6.066  1.0124  1.4151 -0.6136
   45MOL     C113289   2.059   5.600   6.754 -0.6273  0.1362 -1.2952
   45MOL     C213290   1.979   5.561   6.636 -0.9301  0.1215  0.4201
   45MOL     C313291   1.839   5.604   6.658  0.4795 -0.4456 -0.0655
   45MOL     O413292   1.753   5.530   6.694 -0.0571  0.5703  0.0253
   45MOL     O513293   1.828   5.737   6.638 -0.2352 -0.2925 -0.1166
   45MOL     C613294   1.717   5.813   6.684 -0.3429 -0.3394 -0.4129
   45MOL     C713295   1.676   5.903   6.572  0.0745  0.4577  0.4794
   45MOL     H813296   2.158   5.636   6.725 -0.1573 -0.1460 -0.0718
   45MOL     H913297   2.084   5.516   6.819 -0.6607 -0.1798 -1.6933
   45MOL    H1013298   2.015   5.618   6.550 -1.6410  1.9920  1.3217
   45MOL    H1113299   1.633   5.750   6.715 -0.0283  0.0252  1.2111
   45MOL    H1213300   1.747   5.878   6.765 -2.7852  0.2777  0.0130
   45MOL    H1313301   1.639   5.851   6.484 -1.5834  1.9443  0.2777
   45MOL    H1413302   1.757   5.972   6.546 -0.1670  0.6840  0.3212
   45MOL    H1513303   1.591   5.968   6.593 -0.9397  0.4190 -3.1619
   45MOL    H1613304   2.019   5.676   6.822 -0.2570 -0.3004 -0.5750
   45MOL    C1713305   1.991   5.410   6.614  0.6664  0.0052  0.5829
   45MOL    C1813306   2.124   5.363   6.557  0.2212 -0.2221  0.1696
   45MOL    C1913307   2.144   5.432   6.424 -0.7564  1.0250  0.3767
   45MOL    O2013308   2.204   5.540   6.406 -0.1929 -0.9267  1.0915
   45MOL    O2113309   2.093   5.352   6.327 -0.6452  0.7001  0.4147
   45MOL    C2213310   2.122   5.371   6.190  0.0778  0.8486  0.4158
   45MOL    C2313311   2.043   5.268   6.106  0.4629  0.9240  0.8589
   45MOL    H2413312   1.964   5.359   6.706 -2.4354 -0.8407 -0.7362
   45MOL    H2513313   1.914   5.376   6.545  1.4492 -2.5990  0.9678
   45MOL    H2613314   2.200   5.402   6.624  0.6565  0.8992 -0.9566
   45MOL    H2713315   2.106   5.472   6.153 -1.1707  0.0195 -1.3842
   45MOL    H2813316   2.229   5.349   6.183 -0.4525 -1.7054 -0.1344
   45MOL    H2913317   2.078   5.273   6.003  0.5484 -2.3695  0.6551
   45MOL    H3013318   1.934   5.274   6.103  0.2789 -2.0641 -1.2185
   45MOL    H3113319   2.068   5.167   6.139 -1.6194 -0.0120 -0.3120
   45MOL    C3213320   2.143   5.212   6.552 -0.0756  0.2981  0.6703
   45MOL    C3313321   2.287   5.155   6.518 -0.2361  0.4418 -0.0120
   45MOL    C3413322   2.297   5.095   6.377  0.0480 -0.2557 -0.0718
   45MOL    O3513323   2.349   5.165   6.292 -0.1465 -0.0618  0.4792
   45MOL    O3613324   2.246   4.972   6.359 -0.2864 -0.2392 -0.2884
   45MOL    C3713325   2.242   4.908   6.231  0.4045  0.6464 -0.5582
   45MOL    C3813326   2.308   4.773   6.252  0.9771  0.5629 -0.7018
   45MOL    H3913327   2.121   5.175   6.652 -0.6462 -0.3766  0.2970
   45MOL    H4013328   2.071   5.157   6.491  0.1047 -0.7036  1.3461
   45MOL    H4113329   2.358   5.237   6.530  0.8036 -0.3101 -0.9090
   45MOL    H4213330   2.145   4.894   6.183 -0.1290 -0.0430  0.7134
   45MOL    H4313331   2.306   4.968   6.166  1.4152  0.0612 -0.1065
   45MOL    H4413332   2.366   4.767   6.344 -1.9050 -0.2185  1.1106
   45MOL    H4513333   2.379   4.746   6.174  2.7270  1.1502  0.6381
   45MOL    H4613334   2.242   4.690   6.275  2.3601 -0.2463  0.4501
   45MOL    C4713335   2.337   5.059   6.627  1.2223  0.5077  0.2633
   45MOL    C4813336   2.382   5.124   6.757  0.0352 -0.6183 -0.1123
   45MOL    C4913337   2.496   5.226   6.738  1.1708 -0.3370  0.5451
   45MOL    O5013338   2.611   5.196   6.717  0.4677 -0.4345 -0.6162
   45MOL    O5113339   2.449   5.347   6.758 -0.4096 -0.4146  0.1702
   45MOL    C5213340   2.514   5.472   6.735 -0.3442  0.1714 -0.1417
   45MOL    C5313341   2.416   5.586   6.737  0.3978  0.1705  0.0824
   45MOL    H5413342   2.261   4.984   6.651  2.1541 -0.7792 -0.7305
   45MOL    H5513343   2.415   4.995   6.586 -0.7719 -1.3328 -0.7381
   45MOL    H5613344   2.299   5.171   6.809  0.7411 -1.2943  1.6386
   45MOL    H5713345   2.585   5.476   6.817 -0.4990  0.3344 -0.0148
   45MOL    H5813346   2.575   5.484   6.645  1.6753  0.4209  1.2442
   45MOL    H5913347   2.349   5.580   6.652 -0.6691  3.8686  0.5446
   45MOL    H6013348   2.471   5.680   6.728 -0.7363  0.9335  0.9314
   45MOL    H6113349   2.361   5.587   6.831 -0.0845 -0.3158 -0.1949
   45MOL    C6213350   2.448   5.016   6.850  0.0462 -0.0325 -1.1584
   45MOL    C6313351   2.477   5.058   7.000 -0.1937  0.0720  0.2822
   45MOL    C6413352   2.602   4.976   7.049 -0.3093  0.1681 -0.1162
   45MOL    O6513353   2.715   5.023   7.079 -0.1425  0.1981 -0.1658
   45MOL    O6613354   2.572   4.843   7.068 -0.6133  0.0461  0.2970
   45MOL    C6713355   2.667   4.755   7.128  0.2538 -0.5294  0.7980
   45MOL    C6813356   2.595   4.685   7.253 -0.1345 -0.3422  0.0223
   45MOL    H6913357   2.366   4.945   6.863  0.6769 -0.7085 -0.8341
   45MOL    H7013358   2.530   4.963   6.801  1.2140  0.9782 -0.3367
   45MOL    H7113359   2.512   5.161   6.992  0.9048 -0.3859 -1.1218
   45MOL    H7213360   2.694   4.680   7.054 -1.5648  0.7294 -1.2087
   45MOL    H7313361   2.756   4.802   7.170 -0.5950  0.4230  1.5600
   45MOL    H7413362   2.495   4.654   7.222 -0.2360 -2.4260  2.2557
   45MOL    H7513363   2.588   4.752   7.338 -0.6696  0.9697 -1.0396
   45MOL    H7613364   2.649   4.594   7.281 -2.5838 -1.7837  0.2191
   45MOL    C7713365   2.370   5.046   7.107 -0.1393 -0.0204 -0.0820
   45MOL    C7813366   2.232   5.109   7.071 -0.7966 -0.6420  0.5795
   45MOL    C7913367   2.240   5.267   7.059  0.4876  0.7986 -0.9860
   45MOL    O8013368   2.190   5.337   6.969 -0.1843 -0.1710  0.6380
   45MOL    O8113369   2.291   5.319   7.171 -0.3183 -0.5206  0.0862
   45MOL    C8213370   2.293   5.458   7.182 -0.1215 -0.2681 -0.0101
   45MOL    C8313371   2.427   5.504   7.146  0.3127 -0.0165  0.1018
   45MOL    H8413372   2.348   4.939   7.111  0.5319 -0.0994  1.5314
   45MOL    H8513373   2.410   5.081   7.202  1.4523 -0.5441 -0.5436
   45MOL    H8613374   2.218   5.068   6.971  0.3293  1.4787 -0.4712
   45MOL    H8713375   2.215   5.516   7.133 -0.7848 -0.2095  1.0906
   45MOL    H8813376   2.276   5.477   7.288 -0.6104  2.4313 -0.5539
   45MOL    H8913377   2.460   5.480   7.044  1.5265 -0.7696  0.6493
   45MOL    H9013378   2.509   5.463   7.205  1.8246  0.3349 -1.7028
   45MOL    H9113379   2.438   5.612   7.153 -1.8523  0.2051  0.1548
   45MOL    C9213380   2.112   5.070   7.155 -0.2684  0.0596 -0.9847
   45MOL    C9313381   1.974   5.074   7.085  0.4390  0.0088  0.0652
   45MOL    C9413382   1.870   5.069   7.194 -0.8341  0.2163 -0.6263
   45MOL    O9513383   1.800   4.969   7.213  0.2244 -0.4185 -0.1463
   45MOL    O9613384   1.867   5.186   7.259  0.0944 -0.4112  0.0409
   45MOL    C9713385   1.769   5.224   7.363  0.9986  0.0164  0.2385
   45MOL    C9813386   1.841   5.326   7.454  0.0863 -0.1357 -0.6973
   45MOL    H9913387   2.139   4.971   7.191 -1.4431  1.4719  4.3290
   45MOL   H10013388   2.116   5.127   7.248  1.4432 -1.1734 -0.2983
   45MOL   H10113389   1.953   5.161   7.023 -2.2065 -2.0650 -2.0916
   45MOL   H10213390   1.683   5.259   7.306  1.2810 -1.0253 -0.8463
   45MOL   H10313391   1.739   5.140   7.424 -1.1500 -0.6105 -1.6092
   45MOL   H10413392   1.928   5.275   7.495  0.1487  0.7337  0.2628
   45MOL   H10513393   1.790   5.347   7.548 -0.6565 -0.5589 -1.0039
   45MOL   H10613394   1.869   5.420   7.407  1.8154 -0.0562  0.4465
   45MOL   C10713395   1.963   4.945   6.996  0.0271 -0.1296 -0.2460
   45MOL   C10813396   1.834   4.942   6.899 -0.8713  0.3722 -0.0468
   45MOL   C10913397   1.843   4.806   6.822 -0.0686 -0.0284  0.4650
   45MOL   O11013398   1.746   4.733   6.823  0.4746 -0.0114 -0.0697
   45MOL   O11113399   1.953   4.799   6.751  0.6652  0.2497 -0.2710
   45MOL   C11213400   1.961   4.702   6.649 -0.1842 -0.3062  0.7767
   45MOL   C11313401   2.094   4.726   6.571 -0.0584  0.0557  0.1742
   45MOL   H11413402   2.048   4.946   6.927  1.6170 -1.5105  1.6443
   45MOL   H11513403   1.968   4.853   7.054 -0.8708 -1.1190 -1.7097
   45MOL   H11613404   1.750   4.938   6.968  1.4372 -0.4122  2.8142
   45MOL   H11713405   1.952   4.604   6.694 -1.5797 -0.6337 -0.1880
   45MOL   H11813406   1.873   4.708   6.585 -0.3182  0.0363  0.9906
   45MOL   H11913407   2.116   4.830   6.547 -0.6494 -0.0965 -1.0256
   45MOL   H12013408   2.112   4.666   6.482 -2.7844  1.5335 -1.4467
   45MOL   H12113409   2.178   4.714   6.639 -1.6246 -0.1097  2.1234
   45MOL   C12213410   1.806   5.067   6.806 -0.3424 -0.4889 -0.4621
   45MOL   C12313411   1.673   5.077   6.727 -1.3093 -0.2590 -0.0944
   45MOL   C12413412   1.674   4.976   6.615  0.3792 -0.0449 -0.0270
   45MOL   O12513413   1.596   4.882   6.608 -0.0191  0.4355 -0.5425
   45MOL   O12613414   1.769   5.009   6.521  0.0424  0.5079 -0.5714
   45MOL   C12713415   1.770   4.937   6.400  0.8922  0.2208 -0.1040
   45MOL   C12813416   1.881   4.983   6.313  0.3678  0.2686 -0.4769
   45MOL   H12913417   1.805   5.155   6.870 -1.2760  0.5678 -1.8997
   45MOL   H13013418   1.892   5.092   6.743  0.5445  1.4973  1.4443
   45MOL   H13113419   1.601   5.041   6.800 -1.2093  3.0148  1.6792
   45MOL   H13213420   1.778   4.829   6.412 -1.2650 -0.0648 -0.9612
   45MOL   H13313421   1.679   4.946   6.339  0.1314  0.5936  1.0767
   45MOL   H13413422   1.878   5.091   6.299 -0.7077  0.3941  0.6407
   45MOL   H13513423   1.866   4.936   6.217 -0.7999 -1.4265  0.5161
   45MOL   H13613424   1.978   4.946   6.347  0.0576  0.9331  1.2120
   45MOL   C13713425   1.626   5.214   6.691 -0.6568  0.1557 -0.6503
   45MOL   C13813426   1.482   5.245   6.670  0.0594  0.9219  0.1686
   45MOL   C13913427   1.393   5.197   6.789  0.1178 -0.7023 -0.1305
   45MOL   O14013428   1.318   5.100   6.784 -0.2650  0.9063 -0.0766
   45MOL   O14113429   1.413   5.269   6.901  0.3276 -0.8624 -0.2441
   45MOL   C14213430   1.366   5.211   7.026 -0.4007 -0.0894  0.0706
   45MOL   C14313431   1.478   5.140   7.093 -0.4533 -0.0118 -0.2681
   45MOL   H14413432   1.663   5.273   6.775 -0.1440 -3.2666  1.6390
   45MOL   H14513433   1.681   5.241   6.601  2.3968 -1.9020  0.5128
   45MOL   H14613434   1.468   5.354   6.669  0.9451  1.0382 -0.5495
   45MOL   H14713435   1.330   5.285   7.097 -0.0709 -1.5233  1.7626
   45MOL   H14813436   1.289   5.136   7.009 -0.9181  0.5540 -0.4457
   45MOL   H14913437   1.558   5.210   7.115  0.1007  0.1296 -2.5601
   45MOL   H15013438   1.522   5.057   7.037  1.0725  0.0629  0.8204
   45MOL   H15113439   1.434   5.093   7.181 -0.1811 -1.1385 -0.7186
   45MOL   C15213440   1.419   5.201   6.537 -0.1256 -0.1920 -0.3237
   45MOL   C15313441   1.488   5.238   6.400 -0.0698 -0.0108 -0.4055
   45MOL   C15413442   1.501   5.391   6.388 -0.4010  0.6673 -0.3462
   45MOL   O15513443   1.410   5.468   6.415 -0.0671 -0.1961  0.7235
   45MOL   O15613444   1.623   5.421   6.352 -0.2862  0.1146 -0.2227
   45MOL   C15713445   1.664   5.558   6.352 -0.3027  0.0093 -0.0686
   45MOL   C15813446   1.799   5.575   6.283  0.5237 -0.2020 -0.5674
   45MOL   H15913447   1.392   5.096   6.545 -3.3969  0.4909 -1.6329
   45MOL   H16013448   1.324   5.254   6.539 -0.2482 -0.3661 -1.5465
   45MOL   H16113449   1.587   5.193   6.405 -0.4473 -0.7504  0.5497
   45MOL   H16213450   1.582   5.624   6.325 -2.8836 -1.5885  3.4558
   45MOL   H16313451   1.681   5.592   6.454  0.3576  2.6503 -1.0188
   45MOL   H16413452   1.877   5.525   6.341  0.3338  0.1511 -0.0077
   45MOL   H16513453   1.839   5.676   6.277 -1.0005  0.4411 -0.0916
   45MOL   H16613454   1.805   5.531   6.183 -1.9450  0.7297 -1.1521
   45MOL   C16713455   1.407   5.170   6.283 -0.6535 -1.1158  0.4567
   45MOL   C16813456   1.503   5.131   6.165 -0.1596 -0.4091 -0.2519
   45MOL   C16913457   1.559   5.252   6.098  0.0104 -0.3131 -0.3388
   45MOL   O17013458   1.676   5.249   6.071 -0.1745  0.0037  0.1937
   45MOL   O17113459   1.473   5.341   6.061  0.5438  0.7303 -0.0465
   45MOL   C17213460   1.525   5.453   5.996 -0.0616 -0.0622 -0.5126
   45MOL   C17313461   1.434   5.568   6.030 -0.0890  0.5314  0.1535
   45MOL   H17413462   1.358   5.080   6.319 -2.2843  0.1155  1.3868
   45MOL   H17513463   1.321   5.227   6.248  0.7365  1.8665  1.7592
   45MOL   H17613464   1.586   5.081   6.216  1.5392  1.4107 -1.1374
   45MOL   H17713465   1.622   5.483   6.035 -0.5337  2.9415 -1.5657
   45MOL   H17813466   1.538   5.445   5.888  2.4028 -0.4266 -0.2114
   45MOL   H17913467   1.340   5.567   5.975 -0.7163  2.1231  1.1443
   45MOL   H18013468   1.473   5.668   6.013 -0.9344  0.9575  0.6507
   45MOL   H18113469   1.413   5.562   6.137  2.0122 -0.4399  0.5287
   45MOL   C18213470   1.430   5.046   6.060 -0.3492 -0.1028  0.2845
   45MOL   C18313471   1.519   4.987   5.947 -0.1309 -0.3293 -0.0284
   45MOL   C18413472   1.438   4.964   5.823  0.0100 -0.2240  0.4063
   45MOL   O18513473   1.466   5.020   5.715  0.3405  0.3667  0.1939
   45MOL   O18613474   1.331   4.895   5.858  0.3621 -0.6391 -0.3422
   45MOL   C18713475   1.237   4.861   5.763  0.0655  0.3774  0.3110
   45MOL   C18813476   1.111   4.799   5.824  0.5306  0.5849  0.5311
   45MOL   H18913477   1.375   4.968   6.113 -1.6141  1.4199  1.2809
   45MOL   H19013478   1.349   5.101   6.012 -0.2330 -1.6774 -1.7763
   45MOL   H19113479   1.589   5.063   5.914 -0.4532  0.3999  0.9439
   45MOL   H19213480   1.221   4.953   5.706  0.2495  0.7487  0.8525
   45MOL   H19313481   1.271   4.800   5.680 -1.6195  0.1001 -0.1939
   45MOL   H19413482   1.061   4.863   5.897 -1.0780 -0.1001  0.0683
   45MOL   H19513483   1.133   4.699   5.861  0.2209  0.6503  0.9001
   45MOL   H19613484   1.032   4.792   5.748 -0.4612 -1.5816  1.6982
   45MOL   C19713485   1.605   4.875   6.004 -0.4405 -0.9965 -0.5876
   45MOL   C19813486   1.715   4.826   5.912  0.0118 -0.1852 -0.4867
   45MOL   C19913487   1.767   4.683   5.964  0.0602  0.0630  0.6541
   45MOL   O20013488   1.743   4.588   5.899 -0.1800  0.4278 -0.3981
   45MOL   O20113489   1.840   4.695   6.079  0.1631  0.0910 -0.1736
   45MOL   C20213490   1.939   4.603   6.097 -0.0780  0.5113 -0.5074
   45MOL   C20313491   1.988   4.616   6.234 -1.1998 -0.0669  0.5754
   45MOL   H20413492   1.655   4.904   6.096 -2.1573  1.5241 -0.4050
   45MOL   H20513493   1.533   4.801   6.040  0.0363 -1.5631 -0.8035
   45MOL   H20613494   1.661   4.817   5.818 -0.8680  4.6593 -0.5733
   45MOL   H20713495   1.897   4.502   6.093  0.6920  0.2103 -0.9763
   45MOL   H20813496   2.021   4.612   6.026  2.1110  0.4413  1.9275
   45MOL   H20913497   2.082   4.565   6.256 -0.6182  1.4597  1.7478
   45MOL   H21013498   1.921   4.587   6.315  1.2991 -1.3004  2.2732
   45MOL   H21113499   2.018   4.720   6.243  1.6348 -0.7696 -0.1717
   45MOL   C21213500   1.829   4.929   5.905 -0.3748 -0.1251  0.5110
   45MOL   C21313501   1.820   5.013   5.771  1.0802  0.3186 -0.2074
   45MOL   C21413502   1.894   4.935   5.660  0.8323 -0.2880 -0.3559
   45MOL   O21513503   2.008   4.951   5.632 -0.3614 -0.2237 -0.0246
   45MOL   O21613504   1.816   4.834   5.607 -0.2703 -0.3043 -0.3579
   45MOL   C21713505   1.887   4.731   5.541  0.1112 -0.8969 -0.2882
   45MOL   C21813506   1.901   4.772   5.392  0.6369  0.1724  0.0255
   45MOL   H21913507   1.829   4.986   5.998 -1.4519 -0.5454  0.7752
   45MOL   H22013508   1.926   4.879   5.900 -0.1202  0.2865  1.3671
   45MOL   H22113509   1.717   5.029   5.742  1.1130 -1.1996 -1.2041
   45MOL   H22213510   1.983   4.701   5.583 -0.5474 -0.3137  1.7346
   45MOL   H22313511   1.825   4.642   5.553 -0.7348 -0.6015 -2.3947
   45MOL   H22413512   1.976   4.849   5.381 -0.4236  0.9414 -2.0400
   45MOL   H22513513   1.806   4.795   5.343  1.0044 -0.5935 -1.0582
   45MOL   H22613514   1.933   4.682   5.341 -1.5548 -1.6831  1.7633
   45MOL   C22713515   1.878   5.151   5.797 -0.3104  0.1257  0.7101
   45MOL   C22813516   1.872   5.248   5.678 -0.3248  0.0304  0.1789
   45MOL   C22913517   1.942   5.380   5.706 -0.7711  0.1892 -0.3892
   45MOL   O23013518   1.959   5.420   5.822 -0.3195 -0.7390  1.1385
   45MOL   O23113519   1.957   5.445   5.589  0.3040  0.4875  0.1371
   45MOL   C23213520   1.997   5.583   5.590  0.3231 -0.4309  0.8417
   45MOL   C23313521   2.136   5.593   5.544 -0.0370 -1.0621  0.4676
   45MOL   H23413522   1.834   5.197   5.885 -3.0116 -3.0664  1.1109
   45MOL   H23513523   1.983   5.140   5.823 -0.5420  0.6570  1.8828
   45MOL   H23613524   1.932   5.203   5.600 -0.2393  0.5610 -0.0648
   45MOL   H23713525   1.929   5.644   5.530  2.2814  0.6450 -0.3458
   45MOL   H23813526   1.982   5.616   5.693 -0.3870 -0.9082  0.8936
   45MOL   H23913527   2.197   5.536   5.614  0.8738 -1.5341 -0.6859
   45MOL   H24013528   2.161   5.695   5.515  0.5832 -1.5981 -0.9692
   45MOL   H24113529   2.137   5.537   5.450  2.2917 -0.3812  0.0615
   45MOL   C24213530   1.721   5.289   5.640 -0.7785 -0.2561  0.1774
   45MOL   C24313531   1.697   5.366   5.504 -0.1214 -0.2543 -0.0435
   45MOL   C24413532   1.555   5.407   5.481 -0.0346  0.2078 -0.1558
   45MOL   O24513533   1.466   5.376   5.559 -0.3924  0.2990 -0.1338
   45MOL   O24613534   1.534   5.470   5.362  0.4872  0.6255 -0.8293
   45MOL   C24713535   1.410   5.529   5.325  0.0993  0.2289  0.1270
   45MOL   C24813536   1.423   5.674   5.294  0.0380 -0.1961 -0.2989
   45MOL   H24913537   1.664   5.196   5.633 -0.2508 -0.5628 -0.1137
   45MOL   H25013538   1.677   5.341   5.724 -3.0406  0.8609 -1.6603
   45MOL   H25113539   1.740   5.466   5.509 -2.6743  1.0536 -2.4836
   45MOL   H25213540   1.361   5.474   5.245  1.5004  0.4513 -0.9092
   45MOL   H25313541   1.352   5.525   5.417  3.4270 -3.8192  2.2161
   45MOL   H25413542   1.340   5.736   5.326 -0.2537 -0.5309 -0.4015
   45MOL   H25513543   1.417   5.692   5.187  0.4075  1.9637  0.0232
   45MOL   H25613544   1.510   5.721   5.341 -1.2909 -0.0226  2.0819
   45MOL   C25713545   1.758   5.285   5.382 -0.9367  0.5209 -0.1903
   45MOL   C25813546   1.769   5.362   5.246 -0.0271 -0.0577 -0.1178
   45MOL   C25913547   1.836   5.275   5.140  0.3276 -0.6429 -0.4588
   45MOL   O26013548   1.772   5.235   5.038  0.4237  0.2098 -0.0295
   45MOL   O26113549   1.953   5.220   5.173 -0.6122 -0.4401  0.0040
   45MOL   C26213550   2.015   5.115   5.100 -0.5505  0.0306 -0.2213
   45MOL   C26313551   2.121   5.179   5.003 -0.1336 -0.0015  0.1484
   45MOL   H26413552   1.856   5.241   5.399 -1.5852 -0.9375 -0.0729
   45MOL   H26513553   1.703   5.192   5.364  0.3260 -0.0855 -0.9957
   45MOL   H26613554   1.668   5.381   5.210 -0.3036  1.0351  1.1823
   45MOL   H26713555   2.068   5.053   5.171  1.1632 -1.5894 -2.8391
   45MOL   H26813556   1.941   5.060   5.042 -0.1024 -0.4431 -0.3479
   45MOL   H26913557   2.073   5.263   4.952  0.3885 -0.2702 -0.8010
   45MOL   H27013558   2.134   5.106   4.923 -1.7453 -0.8783  0.6714
   45MOL   H27113559   2.213   5.226   5.037 -0.4010  1.1420 -0.6665
   45MOL   C27213560   1.843   5.499   5.263 -0.0795 -0.4797 -0.1146
   45MOL   C27313561   1.888   5.577   5.139 -0.1836  0.0215  0.2531
   45MOL   C27413562   1.990   5.689   5.171 -0.1879  0.1450 -0.1705
   45MOL   O27513563   2.106   5.680   5.139 -0.4301 -0.1698 -0.6628
   45MOL   O27613564   1.928   5.793   5.224 -0.0071  0.4361 -0.5022
   45MOL   C27713565   2.002   5.907   5.254  0.4932 -0.1847 -0.1179
   45MOL   C27813566   1.904   6.020   5.245 -0.2059  0.2418  0.4937
   45MOL   H27913567   1.783   5.564   5.327 -2.1952 -0.4462 -2.0870
   45MOL   H28013568   1.937   5.478   5.315 -0.5934 -2.3289  0.1068
   45MOL   H28113569   1.945   5.516   5.069  0.4803  2.7602 -1.6776
   45MOL   H28213570   2.039   5.908   5.357 -1.3263  3.1929  0.5855
   45MOL   H28313571   2.082   5.935   5.186 -0.1634  2.3381  0.0990
   45MOL   H28413572   1.824   6.015   5.318 -1.4084 -1.4185 -0.8838
   45MOL   H28513573   1.873   6.030   5.141  0.2736  0.8093  0.4043
   45MOL   H28613574   1.958   6.111   5.269  0.6428 -0.3203  0.7612
   45MOL   C28713575   1.757   5.630   5.073  0.0565 -0.2535 -0.3226
   45MOL   C28813576   1.765   5.712   4.951 -0.0690  0.2595 -0.0966
   45MOL   C28913577   1.630   5.769   4.911 -0.6203  1.0472 -0.1574
   45MOL   O29013578   1.567   5.730   4.808 -0.1498 -0.4477  0.9395
   45MOL   O29113579   1.586   5.862   4.997  0.0498 -0.1610 -0.5738
   45MOL   C29213580   1.461   5.918   4.974  0.0561  0.0508 -0.0492
   45MOL   C29313581   1.407   5.993   5.097 -0.0992  0.1260  0.3958
   45MOL   H29413582   1.688   5.546   5.060 -0.7009  0.5361 -1.4481
   45MOL   H29513583   1.708   5.686   5.153  0.4291 -0.7437  0.2542
   45MOL   H29613584   1.833   5.797   4.952 -1.9950  1.8406  0.3402
   45MOL   H29713585   1.468   5.982   4.886 -0.1351 -0.6472 -0.5761
   45MOL   H29813586   1.387   5.842   4.952 -0.5641  0.8382 -0.7139
   45MOL   H29913587   1.426   5.938   5.189  2.6142  0.7968  0.2724
   45MOL   H30013588   1.300   6.014   5.098 -0.3365 -0.9970 -0.0049
   45MOL   H30113589   1.464   6.086   5.093  2.0767 -1.2505 -2.4160
   45MOL   H30213590   1.801   5.644   4.873  2.1187  0.9187  0.3007
   46MOL     C113591   5.275   0.435   7.105 -0.0780 -0.7732  0.0934
   46MOL     C213592   5.182   0.314   7.065 -0.8596  0.4418 -0.0618
   46MOL     C313593   5.235   0.195   7.145 -0.0400  0.3913  0.4623
   46MOL     O413594   5.294   0.099   7.091  0.5862  0.2833 -0.1408
   46MOL     O513595   5.197   0.200   7.277  0.1399 -0.1495 -0.4058
   46MOL     C613596   5.251   0.106   7.370 -0.1271 -0.0244 -0.7520
   46MOL     C713597   5.351   0.183   7.455  0.5960  0.8726 -0.1529
   46MOL     H813598   5.241   0.485   7.196 -0.7707  1.3197 -1.2857
   46MOL     H913599   5.272   0.512   7.028  0.5785 -0.3555  0.4811
   46MOL    H1013600   5.079   0.337   7.092 -1.6198 -2.3817 -0.4475
   46MOL    H1113601   5.171   0.071   7.436 -0.5437  0.3114 -1.0740
   46MOL    H1213602   5.302   0.020   7.326  2.9636 -0.2567  3.0013
   46MOL    H1313603   5.307   0.253   7.526 -0.2403  0.8307 -0.6146
   46MOL    H1413604   5.434   0.212   7.391  0.9015 -1.6768 -0.9591
   46MOL    H1513605   5.401   0.105   7.512  0.4605 -0.9213 -2.3927
   46MOL    H1613606   5.377   0.401   7.124  0.7444  0.0149 -2.6182
   46MOL    C1713607   5.196   0.283   6.912  0.4057 -0.3127 -0.5597
   46MOL    C1813608   5.143   0.391   6.816 -0.0836 -0.4115 -0.2671
   46MOL    C1913609   4.993   0.427   6.847 -1.3764 -0.2568 -0.5902
   46MOL    O2013610   4.952   0.543   6.848 -0.1483  0.5032 -0.3337
   46MOL    O2113611   4.920   0.317   6.858 -0.2047 -0.1015 -0.4718
   46MOL    C2213612   4.780   0.333   6.825 -0.2808 -0.4016 -0.0120
   46MOL    C2313613   4.741   0.205   6.743 -0.0544  0.3337 -0.4135
   46MOL    H2413614   5.300   0.255   6.893  0.0995 -2.2722  0.4857
   46MOL    H2513615   5.142   0.189   6.896  0.6625 -0.6934  0.7699
   46MOL    H2613616   5.190   0.488   6.830  0.2786 -0.8760  1.8413
   46MOL    H2713617   4.718   0.342   6.915  1.2867  0.2308  1.0183
   46MOL    H2813618   4.753   0.414   6.758  2.7612 -1.2190 -2.2908
   46MOL    H2913619   4.634   0.207   6.720 -0.1251 -1.3417 -0.3169
   46MOL    H3013620   4.773   0.114   6.795  0.0410 -0.4360 -1.8058
   46MOL    H3113621   4.790   0.199   6.646  1.1817 -0.9867  0.2738
   46MOL    C3213622   5.164   0.341   6.667 -0.4078  0.6799 -0.2684
   46MOL    C3313623   5.088   0.413   6.551 -0.3039 -0.0788  0.1356
   46MOL    C3413624   5.089   0.331   6.417  0.1882  0.4007 -0.2167
   46MOL    O3513625   5.181   0.340   6.333 -0.3340 -0.3873 -0.3146
   46MOL    O3613626   4.974   0.261   6.401 -0.1696 -0.1616 -0.7653
   46MOL    C3713627   4.959   0.175   6.294 -0.4424  0.2507  0.1740
   46MOL    C3813628   5.046   0.050   6.320 -0.3291  0.1594 -0.1150
   46MOL    H3913629   5.270   0.360   6.647 -0.3868 -0.1369 -0.9609
   46MOL    H4013630   5.145   0.234   6.658 -1.6989  0.9810 -1.3898
   46MOL    H4113631   4.987   0.435   6.585 -0.0055  1.2880  0.1591
   46MOL    H4213632   4.856   0.139   6.296 -0.4145  0.2107  1.1252
   46MOL    H4313633   4.970   0.234   6.203  0.5254 -1.0444 -0.5753
   46MOL    H4413634   5.012   0.014   6.418  1.1530  0.2005  0.4261
   46MOL    H4513635   5.151   0.076   6.328 -0.7370  2.0487 -0.7137
   46MOL    H4613636   5.026   7.888   6.239 -2.0100  0.7230 -0.2133
   46MOL    C4713637   5.136   0.561   6.527 -0.0397  0.3241  0.0948
   46MOL    C4813638   5.285   0.592   6.511 -0.0421  0.6223 -0.2207
   46MOL    C4913639   5.346   0.624   6.644  0.1562 -0.1396  0.1277
   46MOL    O5013640   5.432   0.553   6.684 -0.6827 -0.3026  0.1075
   46MOL    O5113641   5.295   0.732   6.705  0.1561 -0.4414 -0.2521
   46MOL    C5213642   5.331   0.752   6.839 -0.9939 -0.4903 -0.2406
   46MOL    C5313643   5.209   0.787   6.923 -0.2045 -0.4339  0.0111
   46MOL    H5413644   5.073   0.607   6.451  0.2493  0.6645  0.0630
   46MOL    H5513645   5.101   0.609   6.618 -0.1904 -1.0356  0.7794
   46MOL    H5613646   5.330   0.499   6.475  0.0525  1.4004 -2.1387
   46MOL    H5713647   5.368   0.661   6.885 -1.4194 -1.1209 -1.1383
   46MOL    H5813648   5.403   0.831   6.861 -0.2142 -0.8611 -1.4413
   46MOL    H5913649   5.241   0.815   7.023  0.1781 -0.7396 -0.0263
   46MOL    H6013650   5.130   0.713   6.937 -1.9154  0.9087 -2.2236
   46MOL    H6113651   5.155   0.870   6.878  0.4671  0.0716  0.1445
   46MOL    C6213652   5.314   0.702   6.411  0.2698  0.0805 -0.3935
   46MOL    C6313653   5.262   0.684   6.262 -0.0198 -0.5679  0.9453
   46MOL    C6413654   5.343   0.566   6.189  0.6503 -0.3544  0.3147
   46MOL    O6513655   5.452   0.525   6.232 -0.0691 -0.0661 -0.0905
   46MOL    O6613656   5.283   0.516   6.085  0.5803  0.4484 -0.3071
   46MOL    C6713657   5.339   0.414   6.011  0.0794 -0.4281 -0.4332
   46MOL    C6813658   5.239   0.326   5.939  0.7923 -0.3829  0.5161
   46MOL    H6913659   5.257   0.784   6.455 -3.2664 -2.0359 -0.9203
   46MOL    H7013660   5.418   0.736   6.403 -0.0867  1.8516  1.8286
   46MOL    H7113661   5.156   0.662   6.269  0.1813 -1.9170  0.0343
   46MOL    H7213662   5.423   0.452   5.952  0.9508  1.4378  1.9062
   46MOL    H7313663   5.389   0.341   6.074 -2.3114 -1.6823  0.0407
   46MOL    H7413664   5.153   0.288   5.994 -0.2685  0.2156 -0.6838
   46MOL    H7513665   5.301   0.247   5.897  2.9098  1.1338  0.7231
   46MOL    H7613666   5.185   0.377   5.858 -0.1753  1.1027  2.0570
   46MOL    C7713667   5.273   0.818   6.186 -0.3546 -0.4950 -0.1408
   46MOL    C7813668   5.199   0.845   6.054  0.3118 -0.5886 -0.2533
   46MOL    C7913669   5.274   0.786   5.933  0.1013  0.7164  0.2415
   46MOL    O8013670   5.219   0.725   5.841 -0.0583  0.1013  0.4275
   46MOL    O8113671   5.416   0.813   5.937  0.3871  0.2912  0.4471
   46MOL    C8213672   5.497   0.754   5.836 -0.6641  1.0447 -0.3831
   46MOL    C8313673   5.507   0.840   5.712 -0.7977 -0.0903  0.2470
   46MOL    H8413674   5.229   0.889   6.256 -0.4481  0.2720 -0.9625
   46MOL    H8513675   5.377   0.849   6.189 -0.7038  0.6937 -0.0935
   46MOL    H8613676   5.099   0.803   6.059 -0.1988  0.7298  1.8233
   46MOL    H8713677   5.599   0.753   5.873 -0.4571  1.6979 -0.9211
   46MOL    H8813678   5.476   0.647   5.834 -0.1943  0.8870  2.2353
   46MOL    H8913679   5.532   0.943   5.737 -1.2193 -0.0629  0.5469
   46MOL    H9013680   5.408   0.860   5.672 -0.5315  3.8389  1.2928
   46MOL    H9113681   5.561   0.786   5.633 -2.1114 -0.4687 -0.3998
   46MOL    C9213682   5.186   0.997   6.036  0.1824  0.0759 -0.2660
   46MOL    C9313683   5.080   1.066   6.118 -0.4961 -0.5004 -0.4281
   46MOL    C9413684   4.944   1.026   6.082  0.1193 -0.7380 -0.1279
   46MOL    O9513685   4.911   1.006   5.969 -0.3887  0.4721  0.0376
   46MOL    O9613686   4.863   0.998   6.191 -0.0834  0.4322  0.1376
   46MOL    C9713687   4.746   0.916   6.180 -0.5116 -0.0967 -0.1981
   46MOL    C9813688   4.660   0.940   6.306  0.1077  0.3549  0.0108
   46MOL    H9913689   5.283   1.041   6.060 -0.0842 -0.1099  1.1820
   46MOL   H10013690   5.160   1.019   5.933 -0.1315  3.9861  0.5668
   46MOL   H10113691   5.098   1.036   6.221  2.9626  1.4399 -0.3889
   46MOL   H10213692   4.689   0.932   6.089 -0.8053 -0.2427 -0.0416
   46MOL   H10313693   4.792   0.817   6.175  0.8729  0.5386 -0.3985
   46MOL   H10413694   4.708   0.920   6.402  1.2453 -1.5580 -0.9319
   46MOL   H10513695   4.580   0.867   6.302  0.5016 -0.0113 -1.4573
   46MOL   H10613696   4.616   1.040   6.305  0.1716  0.3702 -1.9653
   46MOL   C10713697   5.098   1.215   6.087  0.1413 -0.2411 -0.2974
   46MOL   C10813698   5.018   1.312   6.178  0.1458 -0.3422 -0.1095
   46MOL   C10913699   5.012   1.447   6.103 -0.6560  0.3322 -0.4589
   46MOL   O11013700   4.910   1.487   6.046  0.1850  0.1177 -0.7317
   46MOL   O11113701   5.136   1.504   6.093 -0.2913  0.2628 -0.2834
   46MOL   C11213702   5.164   1.585   5.986  0.9414 -0.4125 -0.2882
   46MOL   C11313703   5.205   1.499   5.861  0.0877  0.2686  0.5398
   46MOL   H11413704   5.204   1.239   6.090 -0.0939  0.7036  0.7573
   46MOL   H11513705   5.084   1.235   5.981  0.2796  0.4521 -0.1907
   46MOL   H11613706   4.915   1.279   6.166  0.8302 -1.7534 -2.2286
   46MOL   H11713707   5.079   1.647   5.959  0.3975 -0.8571  0.3881
   46MOL   H11813708   5.235   1.659   6.023 -0.2317 -0.3891  1.9616
   46MOL   H11913709   5.203   1.566   5.775 -0.3037 -1.4211 -0.7808
   46MOL   H12013710   5.132   1.423   5.835  0.6626 -0.1037 -0.0304
   46MOL   H12113711   5.299   1.447   5.880  0.8167  1.3606 -0.0315
   46MOL   C12213712   5.064   1.328   6.327 -0.4316  0.1888  0.0640
   46MOL   C12313713   4.979   1.248   6.431  0.3277  0.5076 -0.4711
   46MOL   C12413714   4.840   1.315   6.434 -0.7090 -0.7770  0.0396
   46MOL   O12513715   4.741   1.248   6.409  1.2695  0.1316 -0.0042
   46MOL   O12613716   4.843   1.445   6.468  0.0649 -0.0456 -0.4817
   46MOL   C12713717   4.718   1.519   6.486  0.1051  0.4289 -0.5370
   46MOL   C12813718   4.691   1.610   6.370  0.4600  0.9486 -0.4527
   46MOL   H12913719   5.161   1.279   6.332 -1.0981 -1.5397 -2.5425
   46MOL   H13013720   5.092   1.429   6.355  3.7208 -1.4262  2.2089
   46MOL   H13113721   4.958   1.149   6.392  0.4830  0.6788 -0.9940
   46MOL   H13213722   4.631   1.457   6.508  0.8603 -0.5045 -0.1264
   46MOL   H13313723   4.737   1.584   6.572 -1.0665  0.4653 -0.3051
   46MOL   H13413724   4.588   1.645   6.383 -0.4977 -0.7431 -2.9414
   46MOL   H13513725   4.671   1.538   6.290 -0.1344  0.2004  0.3602
   46MOL   H13613726   4.769   1.680   6.342  1.4181  0.3676  0.7464
   46MOL   C13713727   5.048   1.232   6.567  0.0740  0.0736  0.3441
   46MOL   C13813728   5.145   1.106   6.565  0.2705 -0.1040 -0.1844
   46MOL   C13913729   5.060   0.976   6.575  0.0438  0.7577  0.3972
   46MOL   O14013730   5.038   0.905   6.473  0.3135 -0.6092  0.4220
   46MOL   O14113731   5.009   0.953   6.691  0.0167 -0.1096  0.2344
   46MOL   C14213732   4.913   0.865   6.724  0.2881  0.5584  0.1000
   46MOL   C14313733   4.795   0.946   6.771  0.5650 -1.1878 -0.0978
   46MOL   H14413734   5.095   1.327   6.593 -1.2431  0.7935  0.1270
   46MOL   H14513735   4.968   1.213   6.639 -1.5195  0.3372 -1.3076
   46MOL   H14613736   5.194   1.090   6.469 -2.0924 -4.0654 -0.8287
   46MOL   H14713737   4.875   0.813   6.636  1.4241 -1.6908  0.8977
   46MOL   H14813738   4.942   0.796   6.803 -1.1214  0.9698  1.0001
   46MOL   H14913739   4.752   0.990   6.680  0.6118 -1.4438 -0.2419
   46MOL   H15013740   4.822   1.029   6.837 -1.2385  0.7779 -1.7441
   46MOL   H15113741   4.705   0.902   6.815  0.5724 -1.4845 -0.3787
   46MOL   C15213742   5.251   1.118   6.675  0.1044 -0.5620  0.8357
   46MOL   C15313743   5.378   1.209   6.647  0.2908 -0.6150 -0.5888
   46MOL   C15413744   5.479   1.144   6.547 -0.7930 -0.2735 -0.1597
   46MOL   O15513745   5.454   1.044   6.477 -0.1045 -0.3846  0.3406
   46MOL   O15613746   5.593   1.216   6.534  0.8599 -0.0235 -0.5263
   46MOL   C15713747   5.692   1.189   6.443 -0.4807  0.1874  0.5452
   46MOL   C15813748   5.814   1.273   6.485  0.3113 -0.0211  0.2108
   46MOL   H15913749   5.197   1.170   6.755 -1.6425  1.6499 -1.6839
   46MOL   H16013750   5.288   1.019   6.701 -0.0622 -1.0875 -0.8476
   46MOL   H16113751   5.350   1.298   6.592 -2.1932  0.6934  2.5990
   46MOL   H16213752   5.726   1.085   6.448  1.4258  0.8615  2.0511
   46MOL   H16313753   5.661   1.209   6.340 -1.3885 -2.4177  0.2580
   46MOL   H16413754   5.905   1.241   6.434  1.5516 -1.4895  3.2455
   46MOL   H16513755   5.847   1.249   6.586 -0.7284 -0.3697  0.4739
   46MOL   H16613756   5.798   1.380   6.470 -0.0043 -0.4633 -3.0451
   46MOL   C16713757   5.445   1.257   6.782 -0.0146 -0.3047 -0.5254
   46MOL   C16813758   5.511   1.147   6.859 -0.1069 -0.1931  0.9981
   46MOL   C16913759   5.437   1.117   6.987 -0.1910 -0.3792  0.6411
   46MOL   O17013760   5.318   1.094   6.992 -0.6766  0.6386  0.6989
   46MOL   O17113761   5.512   1.139   7.095 -0.4750 -0.4727  0.1087
   46MOL   C17213762   5.455   1.113   7.216  0.4979 -0.1712  0.7604
   46MOL   C17313763   5.550   1.126   7.328 -0.1738 -0.0615  0.2060
   46MOL   H17413764   5.521   1.335   6.772  0.6085 -0.6483  1.4125
   46MOL   H17513765   5.365   1.301   6.841  0.7725  0.3669  0.0416
   46MOL   H17613766   5.504   1.057   6.799  1.5433 -0.2688  0.8868
   46MOL   H17713767   5.379   1.186   7.243  0.5364  0.1067  0.1190
   46MOL   H17813768   5.404   1.017   7.215 -0.1881  0.1914 -1.5716
   46MOL   H17913769   5.585   1.228   7.341  1.8061 -1.0035  2.9787
   46MOL   H18013770   5.632   1.054   7.329  1.3091  1.5945  1.4340
   46MOL   H18113771   5.498   1.104   7.422 -0.2600 -0.8647 -0.0231
   46MOL   C18213772   5.667   1.159   6.860 -0.2168  0.0538 -0.4640
   46MOL   C18313773   5.742   1.024   6.884 -0.0911  1.3878  0.5584
   46MOL   C18413774   5.879   1.054   6.950 -0.6085  0.2574  0.3442
   46MOL   O18513775   5.946   1.156   6.924 -0.1542  0.6103  0.3428
   46MOL   O18613776   5.924   0.967   7.046  0.8818 -0.1008 -0.3689
   46MOL   C18713777   6.026   0.995   7.137 -0.6021  0.5742 -0.3853
   46MOL   C18813778   5.963   1.012   7.273  0.0923  0.1210  0.6650
   46MOL   H18913779   5.695   1.209   6.768  0.9033  0.0949 -0.1050
   46MOL   H19013780   5.690   1.221   6.947 -0.4695  2.4745 -2.0706
   46MOL   H19113781   5.691   0.963   6.959 -0.3279  0.2847 -0.4812
   46MOL   H19213782   6.107   0.923   7.141 -0.5299  0.5494 -1.7882
   46MOL   H19313783   6.079   1.084   7.103  0.2194 -0.1715 -1.0761
   46MOL   H19413784   5.884   1.086   7.271 -1.1106 -1.1437  0.3584
   46MOL   H19513785   6.033   1.028   7.355  2.4677  1.0518 -1.4448
   46MOL   H19613786   5.916   0.919   7.304  0.4543 -0.1047  0.5403
   46MOL   C19713787   5.745   0.933   6.758 -1.0043  0.5903 -0.2520
   46MOL   C19813788   5.827   0.801   6.776  0.1684  0.5168 -0.0899
   46MOL   C19913789   5.862   0.743   6.640 -0.4343 -0.1476 -0.5413
   46MOL   O20013790   5.976   0.713   6.614 -0.3007 -0.0620 -0.1731
   46MOL   O20113791   5.762   0.717   6.561  0.0001  0.4843 -0.2872
   46MOL   C20213792   5.782   0.645   6.440  0.1349  0.1016  0.1366
   46MOL   C20313793   5.796   0.489   6.466  0.7674 -0.8385 -0.5779
   46MOL   H20413794   5.644   0.919   6.720 -1.6199 -0.6591  1.7411
   46MOL   H20513795   5.794   0.996   6.684 -0.0998 -0.3405 -0.4738
   46MOL   H20613796   5.918   0.818   6.832 -0.3328  0.8266  0.6393
   46MOL   H20713797   5.710   0.676   6.364 -1.1548 -1.2534  0.7773
   46MOL   H20813798   5.872   0.684   6.394  1.0907 -1.0115  1.0131
   46MOL   H20913799   5.699   0.452   6.496  1.3717 -1.4633  0.6276
   46MOL   H21013800   5.876   0.465   6.537  1.7413  0.3434 -1.2557
   46MOL   H21113801   5.821   0.437   6.373  1.0768 -0.8866 -0.4683
   46MOL   C21213802   5.742   0.706   6.863  0.0922 -0.2690  0.4711
   46MOL   C21313803   5.800   0.560   6.876  0.0135  0.1964  0.0671
   46MOL   C21413804   5.688   0.450   6.876  0.3980  0.2982  0.2880
   46MOL   O21513805   5.608   0.445   6.970 -0.6822 -0.4190 -0.3958
   46MOL   O21613806   5.706   0.356   6.773 -0.3646 -0.0402  0.7700
   46MOL   C21713807   5.608   0.260   6.747 -0.1630 -0.0619 -0.0420
   46MOL   C21813808   5.663   0.137   6.681  0.9240 -0.1096 -0.4076
   46MOL   H21913809   5.722   0.743   6.963 -1.1107  1.9331 -0.5514
   46MOL   H22013810   5.650   0.691   6.807 -0.0508  0.4413  0.5138
   46MOL   H22113811   5.857   0.533   6.787 -3.6554 -0.4873 -2.1927
   46MOL   H22213812   5.563   0.233   6.842  1.0272  0.0544  0.5555
   46MOL   H22313813   5.528   0.300   6.684  0.7506  2.3555  0.2762
   46MOL   H22413814   5.745   0.098   6.742  2.3608  0.5140 -1.9186
   46MOL   H22513815   5.689   0.144   6.575  1.1574  0.6417 -0.2991
   46MOL   H22613816   5.604   0.046   6.676  3.4869 -1.7781 -1.8906
   46MOL   C22713817   5.890   0.537   6.994  0.1998  0.3737 -0.3251
   46MOL   C22813818   5.992   0.412   6.991 -0.0354 -0.4852 -0.2374
   46MOL   C22913819   6.103   0.410   6.884  0.4748 -0.1682  0.1454
   46MOL   O23013820   6.086   0.433   6.767 -1.0699  0.3691  0.3873
   46MOL   O23113821   6.227   0.384   6.933 -1.0141  0.2868  0.6853
   46MOL   C23213822   6.336   0.383   6.837  0.2390  0.7057  0.1951
   46MOL   C23313823   6.468   0.375   6.903  0.2398 -0.1608  0.0597
   46MOL   H23413824   5.941   0.631   7.015 -2.3183  1.4446  1.1377
   46MOL   H23513825   5.828   0.517   7.081 -0.7456 -4.1512 -1.8940
   46MOL   H23613826   6.054   0.427   7.080  0.4418  0.7933 -0.7739
   46MOL   H23713827   6.313   0.300   6.770  1.3614 -0.8028  1.6251
   46MOL   H23813828   6.325   0.473   6.776  0.3693 -0.0714 -0.9882
   46MOL   H23913829   6.549   0.376   6.829 -0.5451  0.4686 -0.7914
   46MOL   H24013830   6.475   0.281   6.958 -0.4415 -1.0960 -1.4270
   46MOL   H24113831   6.487   0.458   6.970  2.0692 -0.2352 -0.3241
   46MOL   C24213832   5.931   0.271   7.009 -0.1544 -0.1287  0.7545
   46MOL   C24313833   5.992   0.179   7.129 -0.9189 -0.1318  0.0910
   46MOL   C24413834   5.994   0.252   7.266 -0.5930  0.3330  0.2260
   46MOL   O24513835   6.099   0.289   7.323  0.6711  0.1424 -0.1119
   46MOL   O24613836   5.865   0.266   7.317 -0.4241 -0.0079  0.1311
   46MOL   C24713837   5.851   0.348   7.427 -0.2703 -0.2460 -0.0260
   46MOL   C24813838   5.703   0.372   7.443 -0.2815  0.0778 -0.3696
   46MOL   H24913839   5.825   0.276   7.033 -0.2120 -0.5715  0.6090
   46MOL   H25013840   5.921   0.231   6.908  0.4684 -0.5445  0.8492
   46MOL   H25113841   5.933   0.088   7.135  0.2344 -0.8789  0.1392
   46MOL   H25213842   5.885   0.306   7.522 -1.8535  0.1326  0.7353
   46MOL   H25313843   5.907   0.441   7.420 -0.5188  0.1469  2.4497
   46MOL   H25413844   5.651   0.418   7.359  2.0501 -1.2289 -2.6171
   46MOL   H25513845   5.698   0.435   7.531  1.1223 -2.6159  1.7219
   46MOL   H25613846   5.654   0.279   7.474  1.8421 -0.7726  0.4687
   46MOL   C25713847   6.133   0.112   7.089 -0.6320  0.0020 -0.0689
   46MOL   C25813848   6.153   0.072   6.947  0.0094  0.1301 -0.2314
   46MOL   C25913849   6.046   7.878   6.903 -0.3776 -0.2650 -0.2390
   46MOL   O26013850   5.994   7.882   6.791 -0.5673 -0.5898  0.3869
   46MOL   O26113851   6.014   7.788   7.001  0.3168  0.2216 -0.1248
   46MOL   C26213852   5.919   7.686   6.981 -0.0010 -0.5938  0.0668
   46MOL   C26313853   5.990   7.579   6.900  0.1129  0.2178 -0.1998
   46MOL   H26413854   6.213   0.182   7.112 -2.2812  1.9748 -0.2493
   46MOL   H26513855   6.157   0.031   7.158 -1.3184  1.4050  1.8414
   46MOL   H26613856   6.120   0.155   6.884 -0.3720  1.8978  2.2653
   46MOL   H26713857   5.885   7.650   7.078 -0.5214  0.7132  0.3838
   46MOL   H26813858   5.820   7.716   6.946 -0.0343  2.0176  2.2146
   46MOL   H26913859   6.013   7.607   6.797 -2.2023  2.1167 -0.2337
   46MOL   H27013860   5.927   7.491   6.888  0.2633  0.3298 -1.8867
   46MOL   H27113861   6.081   7.552   6.954  0.0436  1.0426  0.3419
   46MOL   C27213862   6.296   0.019   6.916 -0.4894 -0.0239  0.2862
   46MOL   C27313863   6.355   0.004   6.775 -0.8598  0.2991  0.9378
   46MOL   C27413864   6.329   7.768   6.725  0.1340  0.6319 -0.1510
   46MOL   O27513865   6.338   7.669   6.805  0.2040 -0.4110  0.0233
   46MOL   O27613866   6.301   7.758   6.590 -0.1383 -0.3652  0.6883
   46MOL   C27713867   6.281   7.632   6.525 -1.0469 -0.0402  0.3044
   46MOL   C27813868   6.221   7.653   6.383  0.5744  0.1986  0.5146
   46MOL   H27913869   6.357   0.102   6.951  0.0426  0.4637 -1.7245
   46MOL   H28013870   6.327   7.849   6.985  0.5902  0.4471  0.3421
   46MOL   H28113871   6.309   0.086   6.720 -1.6227  0.3874  1.7041
   46MOL   H28213872   6.383   7.595   6.521 -0.8836  0.4163  0.1248
   46MOL   H28313873   6.215   7.573   6.588 -0.4410  0.6389  1.5879
   46MOL   H28413874   6.226   7.558   6.331 -0.6773 -0.2788  1.2456
   46MOL   H28513875   6.257   7.732   6.317 -0.2929 -0.0310 -0.2394
   46MOL   H28613876   6.116   7.674   6.405 -0.0531  0.4444 -2.5095
   46MOL   C28713877   6.506   0.022   6.765  0.2521  0.4659 -0.1437
   46MOL   C28813878   6.579   0.012   6.628  0.7832 -0.4528 -0.1507
   46MOL   C28913879   6.538   0.122   6.528  0.2028 -0.2411 -0.0889
   46MOL   O29013880   6.490   0.227   6.570 -0.0666  0.5545 -1.0004
   46MOL   O29113881   6.560   0.083   6.401  0.8404  0.5764 -0.1003
   46MOL   C29213882   6.522   0.172   6.297 -0.0403  0.1207  0.1441
   46MOL   C29313883   6.630   0.282   6.270  0.3405 -0.1620 -0.3996
   46MOL   H29413884   6.535   0.121   6.803  1.5300 -0.4742  1.4167
   46MOL   H29513885   6.555   7.868   6.840 -1.2436  0.7665  1.1146
   46MOL   H29613886   6.687   0.026   6.637  0.4928  1.3270  0.7255
   46MOL   H29713887   6.501   0.117   6.204  1.5688  0.4099 -0.4020
   46MOL   H29813888   6.429   0.226   6.315  0.0447  0.2798  0.0996
   46MOL   H29913889   6.602   0.332   6.177  1.2043  1.4202  0.1619
   46MOL   H30013890   6.730   0.242   6.258  1.1867  2.0860 -1.0930
   46MOL   H30113891   6.634   0.355   6.351 -1.1812  2.0487 -2.2538
   46MOL   H30213892   6.566   7.819   6.592  0.8161  0.2980 -2.3884
   47MOL     C113893   5.430   6.900   2.991  0.2972  0.3651  0.5804
   47MOL     C213894   5.528   6.991   2.908 -0.1025 -0.3022  0.2815
   47MOL     C313895   5.619   6.895   2.827  1.1339  0.3128  0.0615
   47MOL     O413896   5.735   6.858   2.865 -0.1302  0.4613  0.5871
   47MOL     O513897   5.561   6.864   2.718 -0.2438  0.5935 -0.1475
   47MOL     C613898   5.627   6.783   2.623  0.4514 -0.3094 -0.4046
   47MOL     C713899   5.687   6.862   2.502  0.2282  0.6700  0.4927
   47MOL     H813900   5.377   6.836   2.920 -0.3025  2.1990 -0.6796
   47MOL     H913901   5.356   6.955   3.050 -0.2054  0.0924  0.2152
   47MOL    H1013902   5.472   7.048   2.833  2.1145  0.6362 -0.6882
   47MOL    H1113903   5.693   6.710   2.670 -0.8764  0.2705  2.4965
   47MOL    H1213904   5.542   6.735   2.575  0.3138  1.5689 -2.1062
   47MOL    H1313905   5.611   6.922   2.451  0.6624 -1.2003 -2.4809
   47MOL    H1413906   5.714   6.791   2.424  2.1714  1.7302  0.1920
   47MOL    H1513907   5.773   6.927   2.515  0.5182  0.5906 -0.9978
   47MOL    H1613908   5.473   6.841   3.071 -2.1849  1.7525  3.0495
   47MOL    C1713909   5.591   7.097   3.012 -0.2269 -0.7201 -1.1783
   47MOL    C1813910   5.653   7.226   2.954 -0.5770  0.3953  0.3648
   47MOL    C1913911   5.764   7.209   2.843  0.0157  0.7058  0.5871
   47MOL    O2013912   5.729   7.207   2.724 -0.1351 -0.1913  0.2790
   47MOL    O2113913   5.885   7.186   2.890 -0.8069  0.5540 -0.1593
   47MOL    C2213914   5.999   7.169   2.803 -0.4235 -0.3843  0.4763
   47MOL    C2313915   5.996   7.033   2.742 -0.6690  0.7677 -0.3474
   47MOL    H2413916   5.518   7.123   3.089  0.6152  1.6806 -1.1493
   47MOL    H2513917   5.671   7.050   3.070  0.3986 -0.7136 -2.0295
   47MOL    H2613918   5.572   7.267   2.894 -0.3795 -0.0564 -0.2225
   47MOL    H2713919   5.989   7.251   2.731 -1.7785 -2.2299 -1.4958
   47MOL    H2813920   6.097   7.192   2.846 -0.4804 -1.0526  0.9621
   47MOL    H2913921   6.084   7.025   2.679 -0.3338 -0.2137  0.2481
   47MOL    H3013922   5.918   7.027   2.666 -2.2031  2.0086  1.0775
   47MOL    H3113923   6.001   6.944   2.805 -1.4605  0.8814 -0.1193
   47MOL    C3213924   5.696   7.329   3.054 -0.3337 -0.4555 -0.4957
   47MOL    C3313925   5.726   7.473   3.001  0.1344 -0.2444 -0.2443
   47MOL    C3413926   5.807   7.555   3.107 -0.0994 -0.0587  0.4690
   47MOL    O3513927   5.861   7.503   3.204 -0.1324  0.1979  0.8565
   47MOL    O3613928   5.828   7.685   3.071  0.0233  0.3008 -0.1825
   47MOL    C3713929   5.911   7.762   3.151  0.3699 -0.0771  0.0982
   47MOL    C3813930   5.831   7.844   3.257 -0.3945  0.3995  0.1569
   47MOL    H3913931   5.626   7.337   3.138  0.3425 -0.4382  0.0774
   47MOL    H4013932   5.789   7.290   3.095 -0.1098  1.9182  1.4115
   47MOL    H4113933   5.794   7.462   2.916 -0.3243  0.1124 -0.6666
   47MOL    H4213934   5.998   7.715   3.197  0.8785  1.4569  0.7304
   47MOL    H4313935   5.964   7.832   3.086 -2.1655  1.3199 -0.4998
   47MOL    H4413936   5.895   0.007   3.308 -1.1642  1.8882 -0.9227
   47MOL    H4513937   5.781   7.774   3.324 -0.7637  1.9203  1.5058
   47MOL    H4613938   5.749   7.895   3.208  0.3934  0.2600 -1.3385
   47MOL    C4713939   5.596   7.545   2.954 -0.4001  0.3506 -0.3951
   47MOL    C4813940   5.486   7.569   3.056 -0.5369 -0.1319  0.3495
   47MOL    C4913941   5.353   7.525   2.998  1.0707  0.8355 -0.0248
   47MOL    O5013942   5.281   7.441   3.053  0.0607 -0.0337  0.3152
   47MOL    O5113943   5.320   7.591   2.885 -0.3071 -0.1424  0.3038
   47MOL    C5213944   5.210   7.551   2.803 -0.4563 -0.0276 -0.4172
   47MOL    C5313945   5.081   7.617   2.852 -0.1790 -0.3765  0.3568
   47MOL    H5413946   5.624   7.642   2.912  0.2458 -0.9628 -3.0848
   47MOL    H5513947   5.561   7.494   2.865  1.3204 -1.1199 -0.2623
   47MOL    H5613948   5.497   7.499   3.138  0.7579  1.6615  1.7490
   47MOL    H5713949   5.220   7.575   2.697  1.4177 -0.7178 -0.4263
   47MOL    H5813950   5.193   7.443   2.813  0.4685 -0.2782 -1.3582
   47MOL    H5913951   5.041   7.576   2.945 -1.0241 -1.5476 -0.5286
   47MOL    H6013952   5.016   7.596   2.768 -0.1534  2.4812 -0.4282
   47MOL    H6113953   5.076   7.726   2.860  0.7604 -0.4595  2.7180
   47MOL    C6213954   5.479   7.709   3.123  0.2039  0.0593  0.2383
   47MOL    C6313955   5.449   7.703   3.274  0.0868  0.4487 -0.2473
   47MOL    C6413956   5.316   7.619   3.304 -0.1108  0.4581  0.2803
   47MOL    O6513957   5.309   7.511   3.366 -0.6557  0.5467  0.2343
   47MOL    O6613958   5.213   7.683   3.270  0.4260  0.4885  0.1930
   47MOL    C6713959   5.084   7.625   3.282 -0.2547  0.7803 -0.2571
   47MOL    C6813960   4.989   7.744   3.266 -0.0682 -0.2134 -0.3251
   47MOL    H6913961   5.574   7.760   3.107  0.3092 -0.3549 -0.4685
   47MOL    H7013962   5.414   7.780   3.071  2.5861  1.3816 -0.9945
   47MOL    H7113963   5.524   7.644   3.327 -0.3754 -1.6868 -1.8883
   47MOL    H7213964   5.053   7.538   3.224 -0.2904  1.6887 -1.5987
   47MOL    H7313965   5.073   7.603   3.388 -0.4457 -0.2262 -0.4796
   47MOL    H7413966   4.979   7.767   3.160  1.8938  0.7725 -0.3030
   47MOL    H7513967   5.015   7.831   3.326 -1.0341 -0.4928  0.5197
   47MOL    H7613968   4.893   7.712   3.308 -0.4978  2.0297  0.5013
   47MOL    C7713969   5.446   7.845   3.331  0.0291  0.1569  0.4600
   47MOL    C7813970   5.438   7.853   3.481  0.1461 -0.8859 -0.2634
   47MOL    C7913971   5.358   0.074   3.515 -0.2468  0.5445  0.9682
   47MOL    O8013972   5.240   0.056   3.549  0.1681  0.9556  0.0135
   47MOL    O8113973   5.426   0.189   3.502 -0.1174 -0.2221  0.0087
   47MOL    C8213974   5.350   0.308   3.526 -0.2750  0.5231  0.0692
   47MOL    C8313975   5.327   0.346   3.675 -0.3711 -0.0346 -0.0251
   47MOL    H8413976   5.532   7.900   3.292 -0.5964  2.0215  1.6810
   47MOL    H8513977   5.356   7.891   3.291 -0.2171 -1.3983 -0.8666
   47MOL    H8613978   5.384   7.769   3.524 -1.0988  0.8542  1.6910
   47MOL    H8713979   5.407   0.389   3.480 -1.4389  1.3039 -0.0160
   47MOL    H8813980   5.248   0.321   3.489  0.2237  2.1564 -0.7772
   47MOL    H8913981   5.424   0.379   3.713 -0.0687 -1.1074  0.1330
   47MOL    H9013982   5.280   0.271   3.738  1.4855 -2.2629 -1.2534
   47MOL    H9113983   5.264   0.435   3.686  1.0855  1.0427 -0.1817
   47MOL    C9213984   5.569   7.852   3.557 -0.4352  0.8438 -0.4310
   47MOL    C9313985   5.591   7.767   3.683  0.4264  0.1760  0.1101
   47MOL    C9413986   5.633   7.631   3.641  0.0365  0.3573 -0.2787
   47MOL    O9513987   5.746   7.582   3.672 -0.2339 -0.1914  0.2778
   47MOL    O9613988   5.531   7.559   3.589  0.2827  0.2261 -0.0492
   47MOL    C9713989   5.554   7.421   3.555 -0.1986  0.1092  0.3632
   47MOL    C9813990   5.624   7.397   3.417  1.0409 -0.2547 -0.7076
   47MOL    H9913991   5.653   7.852   3.487 -0.1489  2.1818 -0.1103
   47MOL   H10013992   5.583   0.044   3.599 -2.2209 -0.5978  3.9098
   47MOL   H10113993   5.677   7.814   3.730  1.5682 -1.7568 -0.0033
   47MOL   H10213994   5.605   7.366   3.634  1.8350 -0.1910 -1.1362
   47MOL   H10313995   5.455   7.376   3.549  0.3903 -1.3591  1.4115
   47MOL   H10413996   5.638   7.289   3.408  0.0977 -0.4539  0.1297
   47MOL   H10513997   5.728   7.431   3.417  0.4260  1.7104  0.7114
   47MOL   H10613998   5.558   7.457   3.355  0.2211  0.7049  1.0409
   47MOL   C10713999   5.478   7.765   3.792  0.3659 -0.4803  0.2209
   47MOL   C10814000   5.528   7.802   3.928  0.1162  0.9274  0.6728
   47MOL   C10914001   5.627   7.694   3.970 -0.1025 -0.4105  0.0665
   47MOL   O11014002   5.594   7.579   3.989  0.6806  0.3030 -0.1022
   47MOL   O11114003   5.753   7.744   3.997 -0.2875  0.0838  0.2146
   47MOL   C11214004   5.846   7.649   4.058 -0.0047 -0.5616  0.5489
   47MOL   C11314005   5.935   7.723   4.156 -0.0113 -0.8409  0.5479
   47MOL   H11414006   5.395   7.821   3.750 -0.2257 -1.3162  0.2723
   47MOL   H11514007   5.426   7.670   3.797  0.5152 -0.7537 -2.6799
   47MOL   H11614008   5.586   7.893   3.913 -0.6412  1.3149  0.0562
   47MOL   H11714009   5.798   7.567   4.113 -2.5854  0.7425  0.3340
   47MOL   H11814010   5.903   7.602   3.979  0.5909  0.4327  0.3827
   47MOL   H11914011   5.876   7.778   4.229  1.3159  1.9003 -0.3896
   47MOL   H12014012   6.002   7.792   4.106  0.5487 -2.1864 -0.5765
   47MOL   H12114013   5.998   7.654   4.213  0.9993  0.5285  1.1063
   47MOL   C12214014   5.428   7.830   4.043  0.6712 -0.7776  0.1300
   47MOL   C12314015   5.351   0.056   4.029 -0.4511  0.0113 -0.1108
   47MOL   C12414016   5.212   0.047   3.970 -0.4781 -0.7056 -0.2002
   47MOL   O12514017   5.128   0.136   3.995 -0.3265  0.1404  0.1402
   47MOL   O12614018   5.185   7.852   3.888  0.1768  0.4095  0.2822
   47MOL   C12714019   5.061   7.844   3.827  0.2146  0.2561 -0.3989
   47MOL   C12814020   5.065   7.733   3.728  0.1918  0.2596 -0.3556
   47MOL   H12914021   5.365   7.742   4.051 -0.8983  0.3082  0.0189
   47MOL   H13014022   5.473   7.831   4.142  2.4138 -1.0580 -0.6249
   47MOL   H13114023   5.330   0.091   4.130  1.2892 -1.0480  0.6486
   47MOL   H13214024   4.983   7.829   3.901  1.4762 -1.7259  0.5933
   47MOL   H13314025   5.032   0.033   3.788  0.9953  1.2281  1.3754
   47MOL   H13414026   5.091   7.640   3.778 -0.2134  0.3682  0.0686
   47MOL   H13514027   5.136   7.755   3.649  1.2161  0.4568  0.5959
   47MOL   H13614028   4.971   7.711   3.677  1.8951 -4.4871 -1.6658
   47MOL   C13714029   5.432   0.173   3.973  0.2486  0.1829  0.8551
   47MOL   C13814030   5.557   0.214   4.050 -0.1807 -0.2275 -0.7784
   47MOL   C13914031   5.539   0.251   4.201  0.0598 -0.4562  0.6946
   47MOL   O14014032   5.431   0.245   4.262 -0.2061  0.5021  0.4717
   47MOL   O14114033   5.652   0.282   4.269 -0.1109  0.1614 -0.1402
   47MOL   C14214034   5.647   0.311   4.409  0.5011  0.1789 -0.7116
   47MOL   C14314035   5.790   0.363   4.445  0.5348  0.7797  0.1504
   47MOL   H14414036   5.452   0.140   3.871  2.4697 -0.9415  1.6188
   47MOL   H14514037   5.362   0.256   3.962  0.4805  0.4331  1.2517
   47MOL   H14614038   5.621   0.127   4.054 -1.6217 -1.2220  1.6992
   47MOL   H14714039   5.569   0.379   4.444 -1.4757 -3.5738  2.4809
   47MOL   H14814040   5.618   0.215   4.450  5.1921 -0.5571  1.2470
   47MOL   H14914041   5.786   0.381   4.553 -3.6575  1.3973 -0.0082
   47MOL   H15014042   5.804   0.461   4.400 -0.9505  0.1650 -1.7025
   47MOL   H15114043   5.862   0.286   4.421 -0.0941  0.5137 -0.8934
   47MOL   C15214044   5.627   0.323   3.973  0.0665  0.3988 -0.1199
   47MOL   C15314045   5.690   0.285   3.843  1.1042  0.5418 -0.2956
   47MOL   C15414046   5.818   0.200   3.864 -0.3407 -0.3283 -0.3173
   47MOL   O15514047   5.827   0.087   3.821  0.0763  0.1774 -0.5212
   47MOL   O15614048   5.903   0.262   3.954 -0.2737 -0.0378 -0.4572
   47MOL   C15714049   6.002   0.174   4.013  0.5506 -0.2519 -0.0119
   47MOL   C15814050   5.964   0.147   4.160 -0.1394 -0.6093 -0.1904
   47MOL   H15914051   5.554   0.399   3.945 -0.4134  0.0255  0.1254
   47MOL   H16014052   5.700   0.377   4.034 -0.4580  0.9441  0.0301
   47MOL   H16114053   5.624   0.221   3.786  1.3681 -0.5309  0.5948
   47MOL   H16214054   6.005   0.077   3.963 -1.0783 -0.3034 -0.0421
   47MOL   H16314055   6.097   0.224   3.995  0.7502 -0.5174  0.3027
   47MOL   H16414056   5.937   0.237   4.215  0.4852  1.1348 -2.6370
   47MOL   H16514057   6.048   0.099   4.209 -0.7678 -0.5775  0.9467
   47MOL   H16614058   5.874   0.087   4.175  0.0417 -1.3530 -1.9666
   47MOL   C16714059   5.724   0.409   3.751  0.1266 -0.4503 -0.5415
   47MOL   C16814060   5.727   0.393   3.595 -0.5399  0.4310 -0.2503
   47MOL   C16914061   5.821   0.286   3.539 -0.0359  0.1629  0.3252
   47MOL   O17014062   5.782   0.207   3.457  0.1461  0.6148 -0.4851
   47MOL   O17114063   5.949   0.298   3.588  0.8338  0.1942  0.2636
   47MOL   C17214064   6.037   0.195   3.557 -0.2890 -0.1353 -0.3031
   47MOL   C17314065   6.178   0.238   3.600 -0.0438  0.5226 -1.3039
   47MOL   H17414066   5.643   0.480   3.764 -0.9110 -1.6030 -0.6788
   47MOL   H17514067   5.813   0.461   3.787  0.0239 -0.3388 -0.4496
   47MOL   H17614068   5.626   0.360   3.574 -0.5613 -0.4826  1.2401
   47MOL   H17714069   6.008   0.102   3.605  1.0997  0.8783  2.6389
   47MOL   H17814070   6.046   0.171   3.451  1.3766  2.5316 -0.8194
   47MOL   H17914071   6.261   0.170   3.582  1.1667  2.0701 -1.7065
   47MOL   H18014072   6.190   0.255   3.707 -0.3240 -1.9719 -0.8630
   47MOL   H18114073   6.210   0.331   3.553  0.0163  0.0106 -2.2872
   47MOL   C18214074   5.753   0.525   3.522  0.4501  0.5731  0.6957
   47MOL   C18314075   5.748   0.529   3.365 -0.7592  1.3338 -0.1721
   47MOL   C18414076   5.766   0.678   3.314  0.7161  0.7010 -0.2822
   47MOL   O18514077   5.667   0.752   3.291  0.0511 -0.8769  0.1086
   47MOL   O18614078   5.893   0.714   3.296  0.4328 -0.0488  0.0846
   47MOL   C18714079   5.926   0.837   3.236 -0.3570 -0.7220  0.2576
   47MOL   C18814080   5.914   0.823   3.084 -0.2625 -0.5527 -0.2552
   47MOL   H18914081   5.686   0.607   3.546  2.2291  3.1302 -2.6163
   47MOL   H19014082   5.854   0.555   3.549 -0.0805  1.9936  1.1685
   47MOL   H19114083   5.833   0.479   3.317 -1.3301  1.1071 -0.9527
   47MOL   H19214084   5.887   0.927   3.284  0.5104 -0.0670 -0.2444
   47MOL   H19314085   6.031   0.840   3.266 -0.7045  1.2583  1.3481
   47MOL   H19414086   5.940   0.915   3.030  0.1199  0.7862  2.1285
   47MOL   H19514087   5.816   0.793   3.048 -0.0799  1.2435 -2.3835
   47MOL   H19614088   5.989   0.753   3.047 -2.7444 -2.5376 -1.5850
   47MOL   C19714089   5.624   0.462   3.309  0.6092  0.3517 -0.0999
   47MOL   C19814090   5.627   0.444   3.154 -0.3789 -0.2901  0.4233
   47MOL   C19914091   5.495   0.414   3.096  1.1199  0.0233  0.4658
   47MOL   O20014092   5.405   0.364   3.166  0.8279 -0.4313 -0.8545
   47MOL   O20114093   5.478   0.437   2.972  0.0086  0.3643  0.2832
   47MOL   C20214094   5.365   0.378   2.907  0.6668 -0.0774  0.1423
   47MOL   C20314095   5.351   0.437   2.768 -0.2796 -0.0788  0.2311
   47MOL   H20414096   5.605   0.366   3.358  0.2915  0.4396 -0.0505
   47MOL   H20514097   5.534   0.519   3.331 -0.9901 -2.1965  0.2006
   47MOL   H20614098   5.665   0.536   3.111 -1.8744 -0.1865 -0.7131
   47MOL   H20714099   5.383   0.271   2.894  1.9474  0.0356  0.9777
   47MOL   H20814100   5.270   0.396   2.958 -0.7442  0.4674 -2.5313
   47MOL   H20914101   5.275   0.382   2.713  1.0140 -0.6583 -0.9829
   47MOL   H21014102   5.446   0.425   2.717  0.8381 -0.7979  2.4232
   47MOL   H21114103   5.316   0.540   2.762 -0.4177 -0.2127 -1.4952
   47MOL   C21214104   5.720   0.323   3.120 -0.1720  0.0464  0.0878
   47MOL   C21314105   5.864   0.361   3.081 -0.0132 -0.7441  0.2482
   47MOL   C21414106   5.877   0.414   2.941 -0.4142  0.0591  0.6293
   47MOL   O21514107   5.865   0.533   2.921 -0.1675 -0.3507 -0.1756
   47MOL   O21614108   5.905   0.319   2.848  0.0579 -0.2868  0.4008
   47MOL   C21714109   5.948   0.349   2.714  0.5702 -0.4039 -0.3080
   47MOL   C21814110   5.827   0.367   2.614 -0.1634  0.4588 -0.2942
   47MOL   H21914111   5.720   0.265   3.212  0.3035 -0.1801 -0.0504
   47MOL   H22014112   5.685   0.264   3.036  2.0069  1.4432 -1.8605
   47MOL   H22114113   5.904   0.447   3.134 -1.4012  1.1174 -1.6613
   47MOL   H22214114   6.014   0.435   2.708 -0.9660  0.8069  0.0206
   47MOL   H22314115   6.006   0.265   2.674 -0.8226 -1.1153 -0.8927
   47MOL   H22414116   5.855   0.420   2.523  1.8520 -0.3777 -0.1827
   47MOL   H22514117   5.755   0.442   2.646 -0.2068  0.4456 -0.3605
   47MOL   H22614118   5.774   0.274   2.594  0.9013 -0.5073  1.2799
   47MOL   C22714119   5.965   0.237   3.108  0.5995  0.3969  0.0576
   47MOL   C22814120   6.112   0.262   3.096 -0.1911  0.0685 -0.3000
   47MOL   C22914121   6.181   0.127   3.116 -0.7155 -0.1512  0.1120
   47MOL   O23014122   6.217   0.057   3.024 -0.8298  0.0435  0.2229
   47MOL   O23114123   6.194   0.093   3.249  0.3968  0.7551  0.0550
   47MOL   C23214124   6.229   7.863   3.284  0.1555  0.7273  0.3830
   47MOL   C23314125   6.378   7.831   3.264 -0.5147  0.4981 -0.4339
   47MOL   H23414126   5.940   0.188   3.203 -3.0321  0.8518 -0.5840
   47MOL   H23514127   5.944   0.163   3.030  0.2493  0.9430 -0.3630
   47MOL   H23614128   6.131   0.290   2.992  1.5122 -4.3683 -1.2732
   47MOL   H23714129   6.196   7.849   3.387  1.9497 -1.5322  0.6870
   47MOL   H23814130   6.172   7.787   3.230  2.2881 -0.2215 -0.5992
   47MOL   H23914131   6.406   7.825   3.159 -0.6015  0.6049 -0.4629
   47MOL   H24014132   6.393   7.733   3.310  1.1955  0.5807 -0.8009
   47MOL   H24114133   6.438   7.901   3.323  1.4151 -1.8177  0.4713
   47MOL   C24214134   6.166   0.371   3.191  0.4676  0.9290  0.4299
   47MOL   C24314135   6.272   0.462   3.124  0.4917 -0.2701 -0.2618
   47MOL   C24414136   6.368   0.525   3.228  0.1985 -0.4381  0.2561
   47MOL   O24514137   6.492   0.531   3.208 -0.4788 -0.1172  0.4098
   47MOL   O24614138   6.299   0.589   3.317 -0.1387  0.1817  0.1534
   47MOL   C24714139   6.363   0.645   3.427 -0.8988  0.1974 -0.3060
   47MOL   C24814140   6.408   0.786   3.399 -0.2411  0.3049  0.5717
   47MOL   H24914141   6.095   0.445   3.228 -0.2202  1.0222 -1.0348
   47MOL   H25014142   6.209   0.314   3.274 -3.0885 -1.9058  0.4519
   47MOL   H25114143   6.334   0.389   3.072 -0.5144 -0.3600 -1.3636
   47MOL   H25214144   6.283   0.655   3.500  1.6427  2.0328  2.3648
   47MOL   H25314145   6.448   0.582   3.453 -0.1181  1.0982 -0.6646
   47MOL   H25414146   6.491   0.787   3.328 -0.2531  2.0078  0.5635
   47MOL   H25514147   6.442   0.823   3.496  0.5758 -1.2005  0.8741
   47MOL   H25614148   6.335   0.866   3.384  2.0770  2.0938 -1.6461
   47MOL   C25714149   6.219   0.568   3.024  0.2278 -0.0488  0.2216
   47MOL   C25814150   6.308   0.617   2.905  0.3170  0.2368 -0.0656
   47MOL   C25914151   6.236   0.736   2.834  0.3486 -0.1140  0.0238
   47MOL   O26014152   6.290   0.846   2.830  0.2141 -0.1029 -0.3968
   47MOL   O26114153   6.112   0.700   2.774  0.5091 -0.6641 -0.1123
   47MOL   C26214154   6.033   0.812   2.722  0.1275  0.0397  0.0260
   47MOL   C26314155   5.888   0.771   2.716  0.2567  0.0181  0.1757
   47MOL   H26414156   6.120   0.535   2.992  0.5256  0.1083 -0.8647
   47MOL   H26514157   6.196   0.654   3.087  2.0457  0.3216  0.3788
   47MOL   H26614158   6.403   0.661   2.935  1.2795 -0.7637 -1.5552
   47MOL   H26714159   6.046   0.904   2.778  0.6204  0.6621 -1.1016
   47MOL   H26814160   6.071   0.823   2.621  0.5300  2.2416  0.3978
   47MOL   H26914161   5.838   0.847   2.656 -0.2649  0.4582  1.1702
   47MOL   H27014162   5.846   0.764   2.816  0.7536 -1.9882  0.2657
   47MOL   H27114163   5.870   0.678   2.661 -3.2127  2.5862 -3.2862
   47MOL   C27214164   6.330   0.499   2.806 -0.5222 -0.1469 -0.1836
   47MOL   C27314165   6.415   0.510   2.679 -0.2337 -0.0602 -0.3159
   47MOL   C27414166   6.423   0.372   2.609 -0.2820 -0.3791 -0.7245
   47MOL   O27514167   6.394   0.267   2.663 -0.1025  0.2256  0.1525
   47MOL   O27614168   6.460   0.392   2.479 -0.3175  0.1426 -0.4711
   47MOL   C27714169   6.459   0.286   2.386  0.8618 -0.5925 -0.3059
   47MOL   C27814170   6.398   0.341   2.254 -0.3870  0.2417  0.4602
   47MOL   H27914171   6.357   0.407   2.859  0.3899 -0.9839 -2.0787
   47MOL   H28014172   6.231   0.472   2.769 -0.0424 -2.7878  0.3504
   47MOL   H28114173   6.361   0.582   2.618 -2.3975  0.9005  2.6423
   47MOL   H28214174   6.562   0.254   2.368  0.8731 -0.7615  0.0514
   47MOL   H28314175   6.405   0.197   2.419  2.0960 -0.7142  1.4528
   47MOL   H28414176   6.289   0.343   2.262 -0.3952 -0.7975  0.7766
   47MOL   H28514177   6.419   0.290   2.160  1.1002  0.1049  0.8654
   47MOL   H28614178   6.418   0.444   2.225  1.7152  0.0025  1.0226
   47MOL   C28714179   6.558   0.563   2.701 -0.4054  0.6779  0.5835
   47MOL   C28814180   6.577   0.716   2.712 -0.1022 -0.5849 -0.0244
   47MOL   C28914181   6.572   0.801   2.585 -0.1438  0.3764  0.0545
   47MOL   O29014182   6.506   0.766   2.485  0.1060  0.4631 -0.3745
   47MOL   O29114183   6.645   0.905   2.597 -0.0787 -0.2319 -0.0483
   47MOL   C29214184   6.698   0.987   2.483 -0.2389 -1.2455 -0.2229
   47MOL   C29314185   6.846   0.974   2.456  0.2217 -0.0819  0.0440
   47MOL   H29414186   6.596   0.510   2.788 -0.1241 -1.1687 -0.6394
   47MOL   H29514187   6.620   0.534   2.616  0.3945  1.4242  0.9011
   47MOL   H29614188   6.513   0.755   2.791 -1.7267  0.0952 -1.6489
   47MOL   H29714189   6.640   0.985   2.391 -0.1227 -0.6122 -0.3116
   47MOL   H29814190   6.671   1.088   2.514  0.7320 -1.0704  0.0594
   47MOL   H29914191   6.865   0.878   2.407  1.4257  0.4810 -0.6296
   47MOL   H30014192   6.896   0.966   2.553 -0.7360  1.7333  0.7118
   47MOL   H30114193   6.884   1.060   2.402  2.6726 -0.2566  1.3923
   47MOL   H30214194   6.678   0.729   2.752 -0.6293  0.2479  1.0637
   48MOL     C114195   4.999   6.136   6.615 -0.1544 -0.0883  0.0664
   48MOL     C214196   5.111   6.165   6.719 -0.4652  0.1535 -0.3614
   48MOL     C314197   5.101   6.307   6.777 -0.2505 -0.1099 -0.0126
   48MOL     O414198   5.019   6.386   6.731  0.2116  0.0845  0.7018
   48MOL     O514199   5.183   6.326   6.881 -0.5309  0.0493 -0.2235
   48MOL     C614200   5.187   6.462   6.929 -0.1105 -0.6630 -0.4817
   48MOL     C714201   5.304   6.475   7.028 -0.1528 -0.1358  0.1559
   48MOL     H814202   4.896   6.145   6.651 -0.3854  0.4242 -0.7150
   48MOL     H914203   5.004   6.033   6.579 -1.1131  0.4588 -1.7065
   48MOL    H1014204   5.108   6.108   6.812 -0.1018  0.6823 -0.0152
   48MOL    H1114205   5.186   6.535   6.848  0.8870 -1.6514 -1.4011
   48MOL    H1214206   5.094   6.483   6.982  1.9360  0.3851  2.7816
   48MOL    H1314207   5.397   6.454   6.976 -2.2806 -2.0340 -3.0914
   48MOL    H1414208   5.291   6.406   7.111  0.1951 -0.6898 -0.2502
   48MOL    H1514209   5.317   6.576   7.067 -2.1092 -0.1059  0.7848
   48MOL    H1614210   5.010   6.199   6.527 -0.1911  1.9245  1.4771
   48MOL    C1714211   5.253   6.151   6.664  0.6720 -0.2048 -0.3691
   48MOL    C1814212   5.297   6.020   6.599  0.1598 -0.3534  0.1477
   48MOL    C1914213   5.270   5.889   6.680  0.1209 -0.1236  0.0935
   48MOL    O2014214   5.172   5.818   6.667 -0.1201 -0.7815  0.1175
   48MOL    O2114215   5.383   5.861   6.758  0.0637  0.9291 -0.5847
   48MOL    C2214216   5.392   5.734   6.810  0.0684  0.1554 -1.1401
   48MOL    C2314217   5.452   5.634   6.704 -0.6463 -0.2632 -0.1173
   48MOL    H2414218   5.258   6.225   6.584  2.2609 -1.2748 -1.2853
   48MOL    H2514219   5.321   6.188   6.740  0.6983 -1.3156  0.1708
   48MOL    H2614220   5.228   6.009   6.515 -0.1936  4.5342 -0.3349
   48MOL    H2714221   5.460   5.741   6.895 -1.0221  2.3949 -0.4172
   48MOL    H2814222   5.303   5.700   6.863 -0.3376 -0.6641 -2.3382
   48MOL    H2914223   5.388   5.634   6.616  1.6154 -0.2578 -1.7955
   48MOL    H3014224   5.453   5.537   6.753  1.0220 -0.5717 -0.7447
   48MOL    H3114225   5.557   5.647   6.678 -0.0498 -0.6548  1.9585
   48MOL    C3214226   5.443   6.027   6.532 -0.8889 -0.3403  0.3349
   48MOL    C3314227   5.463   5.989   6.380 -0.6334  0.8754  0.2275
   48MOL    C3414228   5.410   6.090   6.283  0.2834  0.0581 -0.0957
   48MOL    O3514229   5.483   6.168   6.226 -0.5268  0.4530  0.1642
   48MOL    O3614230   5.276   6.089   6.264 -0.0888 -0.1380  0.0994
   48MOL    C3714231   5.218   6.173   6.166 -0.4755 -0.0070 -0.3107
   48MOL    C3814232   5.141   6.284   6.231 -0.5246 -0.1793  0.4859
   48MOL    H3914233   5.471   6.131   6.542 -0.1957 -0.3243 -1.5606
   48MOL    H4014234   5.522   5.970   6.582 -0.1533  0.3396 -0.0434
   48MOL    H4114235   5.567   5.982   6.351 -0.5011 -1.5495  1.1465
   48MOL    H4214236   5.285   6.222   6.095 -0.3762  1.2810  0.6487
   48MOL    H4314237   5.146   6.113   6.110 -2.0286 -0.3262  1.9550
   48MOL    H4414238   5.119   6.358   6.154 -1.0663  0.1247  0.9253
   48MOL    H4514239   5.209   6.326   6.306 -0.2995 -1.5428  1.0485
   48MOL    H4614240   5.049   6.267   6.288 -0.5470  0.9746  0.8219
   48MOL    C4714241   5.401   5.851   6.345  0.4004 -0.2866 -0.4112
   48MOL    C4814242   5.493   5.725   6.375 -0.2312 -0.1604  0.2838
   48MOL    C4914243   5.634   5.731   6.314 -0.1880  0.2162 -0.2191
   48MOL    O5014244   5.729   5.680   6.374  0.3376  0.3627 -0.4725
   48MOL    O5114245   5.642   5.806   6.199 -0.4415  0.1382 -0.1256
   48MOL    C5214246   5.760   5.846   6.140  0.0964 -0.1952  0.2251
   48MOL    C5314247   5.745   5.977   6.057  0.4065 -0.7659  0.3711
   48MOL    H5414248   5.302   5.837   6.390  1.4939 -1.2781  1.7216
   48MOL    H5514249   5.390   5.848   6.237  0.4536 -1.3422 -0.3861
   48MOL    H5614250   5.510   5.732   6.482 -2.4254 -2.6652  0.8403
   48MOL    H5714251   5.840   5.864   6.212 -0.3132 -0.3509  0.7291
   48MOL    H5814252   5.797   5.772   6.070 -0.2702  0.3613 -0.5688
   48MOL    H5914253   5.668   5.984   5.981  0.3365  3.0634  0.6759
   48MOL    H6014254   5.832   6.014   6.003 -0.6736  2.9561  1.0194
   48MOL    H6114255   5.717   6.065   6.115  0.7674  0.8951 -1.9398
   48MOL    C6214256   5.418   5.593   6.334  0.0360  0.3274  0.3636
   48MOL    C6314257   5.367   5.584   6.187  0.2665 -0.5762 -0.4067
   48MOL    C6414258   5.217   5.593   6.179  0.0404 -0.0917 -0.1018
   48MOL    O6514259   5.145   5.496   6.159 -0.0155 -0.4168 -0.1077
   48MOL    O6614260   5.169   5.717   6.190 -0.6981 -0.2279 -0.1071
   48MOL    C6714261   5.030   5.750   6.214  0.3230  0.3237  0.3590
   48MOL    C6814262   4.979   5.697   6.349  0.1290 -0.3794 -0.0469
   48MOL    H6914263   5.482   5.508   6.358 -1.7388 -0.3551  2.8039
   48MOL    H7014264   5.334   5.581   6.402  1.3012  1.5027  2.1783
   48MOL    H7114265   5.399   5.676   6.137 -1.9377 -0.2578 -1.2750
   48MOL    H7214266   5.028   5.859   6.215 -0.4713  0.3338 -1.3313
   48MOL    H7314267   4.967   5.713   6.134 -0.2953 -1.8817  1.8027
   48MOL    H7414268   4.959   5.590   6.342 -0.4374 -0.1718 -1.9939
   48MOL    H7514269   4.884   5.739   6.382  0.4178  0.2460 -0.0173
   48MOL    H7614270   5.060   5.700   6.421 -0.1859 -2.4202  0.4482
   48MOL    C7714271   5.437   5.467   6.114  0.5010 -0.0506  0.7890
   48MOL    C7814272   5.424   5.464   5.962 -0.0805 -0.1062 -0.5209
   48MOL    C7914273   5.471   5.331   5.894 -0.3065 -0.9084 -0.0127
   48MOL    O8014274   5.546   5.255   5.952 -0.4668  0.5578 -0.4114
   48MOL    O8114275   5.414   5.308   5.773 -0.4113 -0.3588 -0.0368
   48MOL    C8214276   5.473   5.208   5.687  0.0450 -0.7551 -0.2342
   48MOL    C8314277   5.580   5.271   5.590  0.8120 -0.1107  0.5300
   48MOL    H8414278   5.544   5.478   6.133  0.1152  0.0780  2.9128
   48MOL    H8514279   5.388   5.381   6.159  0.1097 -0.4836 -0.4302
   48MOL    H8614280   5.316   5.466   5.945 -0.2127  0.0106  0.3469
   48MOL    H8714281   5.512   5.121   5.741 -2.5170 -2.5627 -1.2186
   48MOL    H8814282   5.397   5.160   5.625  1.5072 -0.9236 -1.9299
   48MOL    H8914283   5.661   5.334   5.628 -1.7557  1.8946  2.9068
   48MOL    H9014284   5.530   5.338   5.520  3.6921  0.8030 -0.7652
   48MOL    H9114285   5.617   5.197   5.520  0.0245  1.3048 -1.4462
   48MOL    C9214286   5.487   5.587   5.891 -0.1073 -0.7088  0.0704
   48MOL    C9314287   5.387   5.691   5.831  0.2098 -0.5758  0.9899
   48MOL    C9414288   5.320   5.637   5.708  0.1329  0.0486 -0.4612
   48MOL    O9514289   5.379   5.635   5.602 -0.4738  0.1230  0.4502
   48MOL    O9614290   5.207   5.583   5.738  0.0555 -0.1920  0.2217
   48MOL    C9714291   5.134   5.524   5.633  0.2512 -0.1564 -0.5623
   48MOL    C9814292   5.052   5.400   5.669  0.0098  0.1982 -0.0038
   48MOL    H9914293   5.560   5.632   5.959 -1.1129  0.3865  0.4362
   48MOL   H10014294   5.544   5.551   5.806 -2.1143 -0.4109 -1.4419
   48MOL   H10114295   5.309   5.708   5.905 -2.1779 -1.0296 -1.3377
   48MOL   H10214296   5.078   5.601   5.580 -3.1300 -1.4965  0.9366
   48MOL   H10314297   5.193   5.495   5.546  0.2727  2.5097 -1.4723
   48MOL   H10414298   4.970   5.425   5.736 -0.5097  2.9880 -1.6108
   48MOL   H10514299   5.111   5.319   5.711  2.1605  1.3901 -0.6384
   48MOL   H10614300   5.014   5.352   5.580 -0.5495  2.3162 -0.9513
   48MOL   C10714301   5.456   5.828   5.807 -0.6171  0.2210  0.3235
   48MOL   C10814302   5.387   5.956   5.753  0.2939  0.5456 -0.0066
   48MOL   C10914303   5.476   6.071   5.766 -0.4011 -0.1090 -0.0880
   48MOL   O11014304   5.458   6.160   5.848  0.1674 -0.3696 -0.0429
   48MOL   O11114305   5.584   6.055   5.687  0.2722 -0.3564  0.3699
   48MOL   C11214306   5.695   6.142   5.704 -0.0330 -0.0281  1.1951
   48MOL   C11314307   5.797   6.127   5.590 -0.7928 -0.0728 -0.3481
   48MOL   H11414308   5.504   5.855   5.901  1.3137 -2.8834  0.2847
   48MOL   H11514309   5.542   5.802   5.745 -0.8411 -2.6228  1.1362
   48MOL   H11614310   5.373   5.948   5.645  0.9571  1.4782 -0.1673
   48MOL   H11714311   5.658   6.245   5.704  0.2617  0.0856  0.6443
   48MOL   H11814312   5.737   6.125   5.803 -0.3212 -0.3171  1.2661
   48MOL   H11914313   5.752   6.143   5.492 -0.7459  0.9662 -0.2090
   48MOL   H12014314   5.858   6.037   5.595 -1.2841 -0.3477  1.2404
   48MOL   H12114315   5.872   6.206   5.599  0.4563 -1.5013  2.7545
   48MOL   C12214316   5.248   5.977   5.827 -0.2249 -0.3177  0.4584
   48MOL   C12314317   5.159   6.079   5.753  0.0065  0.2922 -0.1745
   48MOL   C12414318   5.075   6.164   5.850  0.2972 -0.8467 -0.4859
   48MOL   O12514319   5.103   6.281   5.878 -0.1582 -0.0882 -0.2358
   48MOL   O12614320   4.966   6.099   5.882 -0.1530 -0.0512 -0.4032
   48MOL   C12714321   4.879   6.159   5.977  0.5820 -0.0232 -0.0977
   48MOL   C12814322   4.866   6.063   6.096 -0.4219  0.1336  0.6484
   48MOL   H12914323   5.190   5.886   5.833  1.0132 -1.2341 -0.8936
   48MOL   H13014324   5.265   6.006   5.930 -0.8177 -0.6846  0.6588
   48MOL   H13114325   5.234   6.149   5.717  0.3216  0.8546  1.5382
   48MOL   H13214326   4.908   6.261   6.002 -0.9155  0.1427  1.0423
   48MOL   H13314327   4.789   6.148   5.916  0.5519  1.3903 -0.3168
   48MOL   H13414328   4.805   6.101   6.177 -0.2731  1.3670  0.1962
   48MOL   H13514329   4.963   6.045   6.143  0.5558 -1.1025 -1.7442
   48MOL   H13614330   4.828   5.964   6.069  1.4053  0.0597 -1.9197
   48MOL   C13714331   5.085   6.018   5.632 -0.3932 -0.0428 -0.4368
   48MOL   C13814332   5.051   6.107   5.507  0.1542  0.1176 -0.1389
   48MOL   C13914333   4.963   6.231   5.533  0.7473  0.2426 -0.4133
   48MOL   O14014334   4.992   6.337   5.477 -0.0081  0.6068  0.2996
   48MOL   O14114335   4.855   6.210   5.610  0.2670 -0.1753  0.0732
   48MOL   C14214336   4.779   6.318   5.657 -0.4185  0.2525 -0.0722
   48MOL   C14314337   4.634   6.290   5.613  0.1810  0.7658 -0.0777
   48MOL   H14414338   5.155   5.949   5.584 -1.0961 -0.5401 -0.7501
   48MOL   H14514339   5.003   5.953   5.663 -0.3102  0.1364  0.1708
   48MOL   H14614340   5.145   6.148   5.471  0.4279 -1.1303 -0.8535
   48MOL   H14714341   4.803   6.323   5.763  1.2516 -1.0009 -0.3709
   48MOL   H14814342   4.805   6.415   5.614 -0.6354  0.4877  0.3353
   48MOL   H14914343   4.605   6.307   5.510  0.2242  1.5241  0.0376
   48MOL   H15014344   4.573   6.364   5.665 -2.6135 -1.3886 -0.1278
   48MOL   H15114345   4.601   6.190   5.642 -0.5231  1.4229  1.4489
   48MOL   C15214346   4.982   6.023   5.391 -0.2476 -0.1173 -0.4748
   48MOL   C15314347   5.060   6.003   5.263 -1.0023  0.8172 -0.4880
   48MOL   C15414348   5.184   5.915   5.296  0.5266 -0.1835  0.2219
   48MOL   O15514349   5.168   5.796   5.311 -0.1836  0.2822  0.9806
   48MOL   O15614350   5.290   5.981   5.336 -0.6030 -0.0775  0.3765
   48MOL   C15714351   5.412   5.913   5.373  0.4296 -0.3231  0.4415
   48MOL   C15814352   5.521   6.024   5.353  0.4902 -0.0452 -0.4045
   48MOL   H15914353   4.953   5.928   5.437  0.7914  0.2976  1.0889
   48MOL   H16014354   4.887   6.068   5.360 -0.4488 -1.1629 -1.3819
   48MOL   H16114355   4.999   5.929   5.210  1.2530 -0.6730 -1.0996
   48MOL   H16214356   5.397   5.879   5.475 -2.2796 -3.0817 -0.8081
   48MOL   H16314357   5.419   5.821   5.315 -1.5165  0.0441 -0.4449
   48MOL   H16414358   5.519   6.082   5.261 -3.8697  0.6378  0.0115
   48MOL   H16514359   5.608   5.958   5.351  2.3470  2.2996  0.5059
   48MOL   H16614360   5.520   6.094   5.436  3.2824 -0.0093 -0.3347
   48MOL   C16714361   5.099   6.118   5.175 -0.4229 -0.3112 -0.2266
   48MOL   C16814362   4.976   6.171   5.089 -0.1052 -0.1377 -0.2106
   48MOL   C16914363   4.915   6.069   5.006 -0.0116  0.4906  0.6694
   48MOL   O17014364   4.804   6.026   5.034 -0.1756  0.6428  0.1092
   48MOL   O17114365   4.995   6.025   4.907  0.0650  0.1308 -0.2766
   48MOL   C17214366   4.945   5.938   4.808  0.0648 -0.5200 -0.5792
   48MOL   C17314367   5.054   5.845   4.756  0.3326 -0.7308  0.1576
   48MOL   H17414368   5.138   6.195   5.242 -1.7214 -1.6547  2.1462
   48MOL   H17514369   5.178   6.086   5.108 -1.0237  0.9336 -1.5493
   48MOL   H17614370   4.892   6.205   5.149  1.7430  1.8420  1.3212
   48MOL   H17714371   4.863   5.878   4.848  1.4679 -2.4386 -0.4838
   48MOL   H17814372   4.897   5.998   4.730  0.9695  1.5702  0.4355
   48MOL   H17914373   5.139   5.901   4.718  0.7103 -0.3148  1.5630
   48MOL   H18014374   5.014   5.785   4.675  1.8167 -2.4414  0.6572
   48MOL   H18114375   5.084   5.775   4.834 -1.7148 -0.6037  1.1033
   48MOL   C18214376   5.017   6.288   4.998  0.6828  0.6560  0.4530
   48MOL   C18314377   4.922   6.392   4.933  0.3140  0.1985 -0.6481
   48MOL   C18414378   4.810   6.323   4.845  0.5191  0.0957  0.2232
   48MOL   O18514379   4.826   6.279   4.732  0.0481 -0.0697  0.1202
   48MOL   O18614380   4.690   6.331   4.901 -0.2726  0.0323 -0.1640
   48MOL   C18714381   4.578   6.265   4.848 -0.7487  0.2851  0.4854
   48MOL   C18814382   4.450   6.270   4.932 -0.4225  0.3164 -0.5668
   48MOL   H18914383   5.074   6.345   5.072  1.3640 -1.2784  1.4317
   48MOL   H19014384   5.092   6.257   4.926 -0.5706 -0.9548 -0.1856
   48MOL   H19114385   4.868   6.436   5.018 -0.2141 -2.1595  0.2669
   48MOL   H19214386   4.558   6.292   4.744 -1.6321  2.0217  1.0862
   48MOL   H19314387   4.621   6.164   4.848 -3.1321 -0.7679  0.9124
   48MOL   H19414388   4.478   6.240   5.033 -1.1293 -3.0903 -1.3226
   48MOL   H19514389   4.362   6.214   4.901  0.8235 -0.8984 -2.0030
   48MOL   H19614390   4.415   6.373   4.937 -2.5988 -0.5148  3.2213
   48MOL   C19714391   5.008   6.498   4.859 -0.0832  0.9008  0.0533
   48MOL   C19814392   4.959   6.643   4.863 -0.8072 -0.3132 -0.3535
   48MOL   C19914393   4.919   6.700   5.004  0.1539 -1.1950 -1.2615
   48MOL   O20014394   4.811   6.760   5.014  0.2671  0.3734  0.3729
   48MOL   O20114395   5.005   6.681   5.102 -0.1688 -0.6216 -0.1754
   48MOL   C20214396   4.974   6.699   5.240  0.2119  0.4994 -0.1947
   48MOL   C20314397   4.961   6.563   5.309 -0.1982  0.1081  0.2812
   48MOL   H20414398   5.105   6.503   4.909  0.4365  0.5639 -0.9035
   48MOL   H20514399   5.028   6.470   4.756  0.3713 -0.8558  0.6052
   48MOL   H20614400   5.052   6.699   4.853 -0.2636 -1.1487 -0.0783
   48MOL   H20714401   5.069   6.739   5.274  1.0868 -1.6084 -0.1139
   48MOL   H20814402   4.887   6.759   5.269  0.5785  0.9432 -0.0127
   48MOL   H20914403   5.058   6.516   5.294 -0.5932 -0.6268  0.0300
   48MOL   H21014404   4.879   6.508   5.263  0.6706 -0.1086 -1.0419
   48MOL   H21114405   4.947   6.580   5.416  3.7247 -0.8278  1.0136
   48MOL   C21214406   4.864   6.677   4.748  0.4041  0.5183  0.9607
   48MOL   C21314407   4.945   6.739   4.626  0.2199 -0.2172 -0.5582
   48MOL   C21414408   5.012   6.875   4.632 -0.5787  0.0529 -0.0523
   48MOL   O21514409   5.058   6.927   4.529  0.4002 -0.3679  0.0090
   48MOL   O21614410   5.013   6.929   4.759  0.2233  0.3168 -0.3279
   48MOL   C21714411   5.069   7.058   4.778 -0.7499 -0.3620 -1.0282
   48MOL   C21814412   5.063   7.112   4.920  0.0685  0.5340 -0.0862
   48MOL   H21914413   4.798   6.593   4.729 -0.4215  0.9179  2.0373
   48MOL   H22014414   4.779   6.744   4.763  0.0867  0.3841 -0.1535
   48MOL   H22114415   5.029   6.676   4.595  0.8230 -0.2090  1.0443
   48MOL   H22214416   5.176   7.048   4.761 -0.5389  1.7653 -1.1853
   48MOL   H22314417   5.030   7.127   4.702  0.3105  2.4543  0.8949
   48MOL   H22414418   4.976   7.171   4.948  2.4342  2.6031  3.3573
   48MOL   H22514419   5.146   7.181   4.936  1.4309 -0.8139 -1.1855
   48MOL   H22614420   5.086   7.030   4.988 -0.7927  1.7881  1.7795
   48MOL   C22714421   4.858   6.732   4.498 -1.4917 -0.4462 -0.0296
   48MOL   C22814422   4.899   6.641   4.375  0.1000 -0.3487  0.2557
   48MOL   C22914423   4.838   6.672   4.242  0.5369  0.4634  0.4623
   48MOL   O23014424   4.909   6.730   4.157  0.2692 -0.6137  0.4414
   48MOL   O23114425   4.712   6.612   4.219  0.1573  0.2425  0.0710
   48MOL   C23214426   4.647   6.620   4.090  0.3840  0.0520 -0.0481
   48MOL   C23314427   4.535   6.521   4.070 -0.1254  0.1460 -0.6184
   48MOL   H23414428   4.757   6.706   4.531 -1.9079 -0.1905 -1.0612
   48MOL   H23514429   4.847   6.832   4.458  0.5541 -1.2779 -2.8657
   48MOL   H23614430   5.005   6.657   4.354 -0.5599  2.0250 -1.4655
   48MOL   H23714431   4.601   6.718   4.076 -0.4300 -0.2506  0.4706
   48MOL   H23814432   4.723   6.613   4.013 -1.0997  1.9244 -1.7499
   48MOL   H23914433   4.572   6.429   4.116  0.2225  2.7044  4.7110
   48MOL   H24014434   4.508   6.519   3.965  1.8606  3.4999 -1.2660
   48MOL   H24114435   4.452   6.552   4.134 -0.4546  0.9090 -1.4166
   48MOL   C24214436   4.903   6.496   4.427  0.0889 -0.3306  0.4363
   48MOL   C24314437   4.933   6.388   4.325 -0.5003 -0.5591  0.0762
   48MOL   C24414438   4.911   6.255   4.395  0.0514 -1.2162  0.5119
   48MOL   O24514439   4.996   6.207   4.474  0.2214  0.5078  0.0537
   48MOL   O24614440   4.791   6.203   4.362 -0.4136  0.1845  0.1722
   48MOL   C24714441   4.749   6.079   4.413 -0.2658  0.3266  0.0132
   48MOL   C24814442   4.657   6.091   4.534 -0.0365  0.0541 -0.0574
   48MOL   H24914443   4.963   6.489   4.517 -2.2494  0.6940  2.1284
   48MOL   H25014444   4.798   6.481   4.454 -0.0037 -2.2986 -0.8885
   48MOL   H25114445   4.860   6.400   4.245 -1.7449  0.9333  1.3970
   48MOL   H25214446   4.693   6.036   4.330  2.7961 -1.8845 -1.0292
   48MOL   H25314447   4.832   6.011   4.431  0.8906  1.0733 -2.2375
   48MOL   H25414448   4.715   6.114   4.623 -0.6126  0.9159  0.1057
   48MOL   H25514449   4.597   6.002   4.552  0.7355 -0.2370  1.1118
   48MOL   H25614450   4.588   6.176   4.530  0.2007  0.4306  2.7144
   48MOL   C25714451   5.081   6.396   4.274  0.7729  0.5158  0.4933
   48MOL   C25814452   5.133   6.294   4.166  0.3451  0.2584 -0.6324
   48MOL   C25914453   5.048   6.299   4.036 -0.1721 -0.1277  0.3223
   48MOL   O26014454   5.101   6.336   3.931 -0.5120 -0.3011 -0.6800
   48MOL   O26114455   4.920   6.252   4.058 -0.4021  0.1012  0.3784
   48MOL   C26214456   4.834   6.237   3.944  0.2058 -0.1964 -0.3750
   48MOL   C26314457   4.702   6.161   3.983  0.4226 -0.3794 -0.4796
   48MOL   H26414458   5.093   6.499   4.240 -3.0891  0.9327  0.2330
   48MOL   H26514459   5.125   6.383   4.373  0.2728 -1.4565  0.4845
   48MOL   H26614460   5.232   6.333   4.141  1.2079 -2.0918 -0.9525
   48MOL   H26714461   4.807   6.341   3.925 -0.1612  0.1172  1.8054
   48MOL   H26814462   4.877   6.194   3.853 -0.1380 -1.1691 -0.0776
   48MOL   H26914463   4.662   6.207   4.073 -1.2728 -0.2678 -1.2837
   48MOL   H27014464   4.715   6.054   3.998  0.2360 -0.3511 -0.1217
   48MOL   H27114465   4.623   6.157   3.908  0.8630  3.1824 -1.2482
   48MOL   C27214466   5.171   6.154   4.218 -0.6888  1.2019 -0.2076
   48MOL   C27314467   5.272   6.058   4.146  0.7857  0.3035 -0.2042
   48MOL   C27414468   5.422   6.099   4.152 -0.0006  0.3687 -0.1020
   48MOL   O27514469   5.464   6.207   4.198  0.4827  0.5056  0.5235
   48MOL   O27614470   5.492   5.998   4.109 -0.2036 -0.2023 -0.3891
   48MOL   C27714471   5.634   6.007   4.111  0.2253 -0.2190 -0.0527
   48MOL   C27814472   5.699   6.076   3.996  0.4810  0.0126 -0.1715
   48MOL   H27914473   5.207   6.159   4.321  0.0281  0.7560 -0.4328
   48MOL   H28014474   5.075   6.104   4.230  0.3415 -0.5603  0.8589
   48MOL   H28114475   5.271   5.962   4.198  1.9496 -0.4501 -1.5583
   48MOL   H28214476   5.669   6.059   4.199  0.4165  0.4252 -0.5062
   48MOL   H28314477   5.671   5.905   4.119  0.5243 -0.1689 -0.7642
   48MOL   H28414478   5.805   6.095   4.014  0.5001  0.4598 -0.7485
   48MOL   H28514479   5.656   6.170   3.961 -2.0776 -1.1897 -0.3648
   48MOL   H28614480   5.683   6.022   3.903 -1.0713  1.6148 -0.8666
   48MOL   C28714481   5.230   6.026   4.001 -0.7129 -0.0072  0.0793
   48MOL   C28814482   5.092   5.966   3.984 -0.6009  0.0452 -0.0025
   48MOL   C28914483   5.041   5.940   3.847 -0.1989 -0.1742 -0.0992
   48MOL   O29014484   5.121   5.949   3.751  0.3333  0.3585 -0.1980
   48MOL   O29114485   4.911   5.899   3.854  0.3319 -0.1105 -0.3982
   48MOL   C29214486   4.839   5.887   3.730  0.2631 -0.8192  0.5583
   48MOL   C29314487   4.799   5.742   3.696 -0.3500 -0.0824 -0.0302
   48MOL   H29414488   5.233   6.122   3.948  0.4110 -0.4066 -0.5971
   48MOL   H29514489   5.308   5.965   3.955  0.2515  0.6193  0.8637
   48MOL   H29614490   5.081   5.865   4.025 -0.2778  0.3209  0.7711
   48MOL   H29714491   4.752   5.947   3.756  2.0215  1.3916  1.5813
   48MOL   H29814492   4.888   5.940   3.648  0.2021 -0.0949  0.9859
   48MOL   H29914493   4.879   5.704   3.632 -0.0075  0.4105  0.1060
   48MOL   H30014494   4.703   5.738   3.644  0.6093  4.0650 -2.3287
   48MOL   H30114495   4.792   5.686   3.789  0.1954 -2.4277 -1.3531
   48MOL   H30214496   5.015   6.027   4.031 -0.2973 -0.6473  1.4366
   49MOL     C114497   2.960   3.032   4.391  0.1562 -0.1517 -0.0919
   49MOL     C214498   3.043   3.164   4.410  0.4463 -0.1586 -0.1695
   49MOL     C314499   2.996   3.274   4.314 -0.8266 -0.4339 -0.3352
   49MOL     O414500   2.915   3.245   4.225 -0.1416 -0.2018 -0.3345
   49MOL     O514501   3.034   3.403   4.349  0.3698 -0.0612 -0.0445
   49MOL     C614502   2.992   3.513   4.275 -0.4685 -0.0194  0.4020
   49MOL     C714503   2.906   3.595   4.363  0.3052 -0.9069  0.5073
   49MOL     H814504   2.997   2.964   4.468 -1.5461  0.2609  1.1079
   49MOL     H914505   2.986   2.974   4.302  0.0779 -0.7936  0.3019
   49MOL    H1014506   3.045   3.193   4.515  2.4187 -1.9573  0.3354
   49MOL    H1114507   3.071   3.573   4.229 -0.3574 -1.1120 -0.8565
   49MOL    H1214508   2.939   3.471   4.189  2.6226 -0.1097 -1.5611
   49MOL    H1314509   2.823   3.542   4.409 -0.6045  0.9552  1.0204
   49MOL    H1414510   2.876   3.691   4.322  0.1379 -0.7892  0.9165
   49MOL    H1514511   2.975   3.635   4.438  1.0684  1.2409 -1.2847
   49MOL    H1614512   2.856   3.042   4.420  0.7122 -1.1358  2.3686
   49MOL    C1714513   3.193   3.125   4.383 -0.1675  0.5563 -0.1251
   49MOL    C1814514   3.296   3.237   4.399 -0.6763 -0.2891  0.4322
   49MOL    C1914515   3.432   3.197   4.337 -0.4783  0.0592  0.4117
   49MOL    O2014516   3.511   3.124   4.396 -0.5141  0.1267 -0.2199
   49MOL    O2114517   3.455   3.239   4.216 -0.0709  0.2116 -0.0033
   49MOL    C2214518   3.568   3.209   4.138 -0.2669  0.1381  0.1469
   49MOL    C2314519   3.511   3.212   3.996  0.2759  0.2395 -0.4673
   49MOL    H2414520   3.217   3.054   4.463 -1.4730  0.1649 -0.0684
   49MOL    H2514521   3.207   3.084   4.283 -0.8515 -0.0853  0.0357
   49MOL    H2614522   3.269   3.321   4.335  0.4758 -0.2597 -0.0134
   49MOL    H2714523   3.649   3.282   4.145 -1.1650  1.2284 -0.6344
   49MOL    H2814524   3.609   3.111   4.160 -2.0415 -1.1520 -2.0681
   49MOL    H2914525   3.584   3.205   3.915  1.5049  0.8591  0.5730
   49MOL    H3014526   3.454   3.303   3.979 -0.9327 -0.1905  1.1297
   49MOL    H3114527   3.454   3.124   3.965  0.8515 -0.3510  0.1037
   49MOL    C3214528   3.317   3.295   4.547 -0.1076 -0.0554 -0.1386
   49MOL    C3314529   3.397   3.433   4.561  0.7705  0.3375  0.6381
   49MOL    C3414530   3.453   3.443   4.707 -0.2054  0.0749 -0.3191
   49MOL    O3514531   3.424   3.534   4.787 -0.0654 -0.1367  0.2468
   49MOL    O3614532   3.536   3.346   4.737  0.5062 -0.7041 -0.3569
   49MOL    C3714533   3.582   3.325   4.873  0.3592 -0.0081 -0.5441
   49MOL    C3814534   3.721   3.303   4.867 -0.2602  0.0038  0.0875
   49MOL    H3914535   3.220   3.304   4.594 -0.3417 -1.2115 -0.3825
   49MOL    H4014536   3.367   3.207   4.588 -0.1546  0.2723  0.6354
   49MOL    H4114537   3.482   3.433   4.492  0.3966  3.7605  0.0569
   49MOL    H4214538   3.566   3.408   4.943  1.4325 -1.4310  1.4525
   49MOL    H4314539   3.529   3.243   4.922 -1.3971  1.0277 -0.6501
   49MOL    H4414540   3.763   3.311   4.968  1.0048  0.8383 -0.4904
   49MOL    H4514541   3.764   3.385   4.811 -2.2519  0.7289 -0.4182
   49MOL    H4614542   3.748   3.202   4.837 -1.6434 -0.8026  1.4559
   49MOL    C4714543   3.301   3.548   4.522 -0.0555  0.3168 -0.1039
   49MOL    C4814544   3.363   3.692   4.519 -0.1205  0.2228 -0.5544
   49MOL    C4914545   3.259   3.802   4.513  0.6606  0.0237 -0.0046
   49MOL    O5014546   3.232   3.859   4.617  0.6394 -0.0848 -0.2385
   49MOL    O5114547   3.209   3.824   4.392 -0.6243 -0.2507  0.2113
   49MOL    C5214548   3.118   3.929   4.370 -0.1952 -0.0509  0.1035
   49MOL    C5314549   3.145   3.999   4.237  1.0006  0.4306  0.8725
   49MOL    H5414550   3.264   3.524   4.423 -0.1665 -1.1082  0.2589
   49MOL    H5514551   3.220   3.545   4.595  1.3637  1.0480  1.5255
   49MOL    H5614552   3.417   3.707   4.612 -1.4378  1.2196  0.0589
   49MOL    H5714553   3.018   3.885   4.371  0.6489 -2.1020 -1.4064
   49MOL    H5814554   3.111   3.987   4.462  1.1862 -0.2744  0.3623
   49MOL    H5914555   3.136   3.931   4.152 -0.1078  0.1288  1.2215
   49MOL    H6014556   3.243   4.046   4.234  1.2151  0.0721  2.2258
   49MOL    H6114557   3.070   4.077   4.221  0.2770 -0.2703  0.8489
   49MOL    C6214558   3.467   3.702   4.401 -0.2323 -0.4364 -0.0733
   49MOL    C6314559   3.521   3.842   4.348  0.9356 -0.3278  0.3142
   49MOL    C6414560   3.559   3.838   4.203 -0.0896  0.4151 -0.1760
   49MOL    O6514561   3.611   3.739   4.154  0.5006  0.1915 -0.2611
   49MOL    O6614562   3.546   3.957   4.135 -0.5914  0.1577  0.1853
   49MOL    C6714563   3.594   3.964   4.001  0.5428 -0.7998  0.8164
   49MOL    C6814564   3.544   4.102   3.948 -0.6441 -0.7634 -0.0840
   49MOL    H6914565   3.555   3.640   4.416 -0.7509 -1.1217  0.2105
   49MOL    H7014566   3.416   3.662   4.314 -2.4478  0.2631  0.8633
   49MOL    H7114567   3.446   3.920   4.352  3.4563  2.0739  2.5768
   49MOL    H7214568   3.700   3.941   3.990  0.0623 -2.4431 -0.5257
   49MOL    H7314569   3.551   3.885   3.940  1.0710 -0.8472  0.5084
   49MOL    H7414570   3.590   4.187   3.998  0.4134 -1.2182 -0.2749
   49MOL    H7514571   3.436   4.115   3.958 -0.5603  0.3688 -0.6011
   49MOL    H7614572   3.576   4.111   3.844 -0.0063  2.4752  0.3381
   49MOL    C7714573   3.651   3.884   4.418 -0.5781  0.4640  0.3102
   49MOL    C7814574   3.634   3.948   4.559  0.4333 -0.1967 -0.4209
   49MOL    C7914575   3.551   4.075   4.551  0.2328 -0.6080  0.0901
   49MOL    O8014576   3.507   4.119   4.445  0.3461 -0.1109  0.8817
   49MOL    O8114577   3.509   4.128   4.673  0.6963 -0.2953  0.1737
   49MOL    C8214578   3.421   4.230   4.678  0.2558 -0.3680 -0.1258
   49MOL    C8314579   3.503   4.364   4.703  0.1527  0.8791  0.3436
   49MOL    H8414580   3.723   3.803   4.409 -1.0936 -0.0876  1.0807
   49MOL    H8514581   3.702   3.957   4.355  1.5337 -1.2384 -0.0038
   49MOL    H8614582   3.581   3.882   4.628  0.3783 -1.5274 -1.7195
   49MOL    H8714583   3.354   4.240   4.593  1.8314  1.1697 -1.2140
   49MOL    H8814584   3.351   4.218   4.760 -1.1018  1.0198 -1.0490
   49MOL    H8914585   3.543   4.375   4.804  0.1866  1.3881  0.2742
   49MOL    H9014586   3.439   4.452   4.702  0.6640  1.3156  2.9609
   49MOL    H9114587   3.586   4.375   4.633 -1.0776 -0.5625 -1.4084
   49MOL    C9214588   3.769   3.984   4.628 -0.0055  0.3832 -0.2693
   49MOL    C9314589   3.871   3.867   4.626 -0.1708 -0.5332 -0.3509
   49MOL    C9414590   3.833   3.748   4.713  0.2528  0.5835  1.0461
   49MOL    O9514591   3.780   3.647   4.663 -0.4427 -0.6657  0.6459
   49MOL    O9614592   3.844   3.777   4.844 -0.1268  0.1530  0.0880
   49MOL    C9714593   3.787   3.681   4.930 -0.5866  0.7892 -0.3312
   49MOL    C9814594   3.892   3.622   5.026 -0.1152 -0.9304 -0.3817
   49MOL    H9914595   3.811   4.066   4.570 -0.0006  0.2319 -0.4805
   49MOL   H10014596   3.747   4.017   4.729  0.7690 -4.7170  1.6994
   49MOL   H10114597   3.876   3.842   4.520  3.9924  1.1171 -0.6372
   49MOL   H10214598   3.702   3.712   4.992 -0.4918 -0.4353  0.4349
   49MOL   H10314599   3.752   3.598   4.869 -1.6029  2.7527 -2.4946
   49MOL   H10414600   3.864   3.526   5.070 -0.2712 -0.7233 -0.0325
   49MOL   H10514601   3.936   3.684   5.104 -0.3186 -0.8491 -0.3343
   49MOL   H10614602   3.989   3.603   4.978  0.4216  0.8168 -0.0407
   49MOL   C10714603   4.014   3.919   4.648  0.7002  0.2988 -0.3129
   49MOL   C10814604   4.119   3.799   4.631  0.0314 -0.1503 -0.5236
   49MOL   C10914605   4.259   3.827   4.690  0.6055 -0.4743 -0.5243
   49MOL   O11014606   4.310   3.938   4.692 -0.3330  0.3284 -0.5674
   49MOL   O11114607   4.320   3.722   4.725 -0.6089 -0.2876 -0.4056
   49MOL   C11214608   4.453   3.722   4.773  0.0163  0.4023 -0.2371
   49MOL   C11314609   4.491   3.578   4.784  0.0821  0.0549 -0.1403
   49MOL   H11414610   4.024   3.997   4.573 -0.3495  0.5307 -0.2211
   49MOL   H11514611   4.022   3.956   4.750  2.6177 -0.5739 -0.1296
   49MOL   H11614612   4.086   3.716   4.694 -1.5698  0.5683 -0.4033
   49MOL   H11714613   4.523   3.768   4.702  1.8631 -1.4893  0.3184
   49MOL   H11814614   4.453   3.770   4.871 -0.1023  0.4657 -0.2670
   49MOL   H11914615   4.434   3.541   4.870 -0.2777  0.1420 -0.3440
   49MOL   H12014616   4.598   3.571   4.801  0.1135  1.6662  0.3999
   49MOL   H12114617   4.474   3.519   4.695 -0.0087 -1.1694  0.6773
   49MOL   C12214618   4.140   3.748   4.488  0.5254 -0.0706 -0.3165
   49MOL   C12314619   4.182   3.851   4.381 -0.1747 -0.0549 -0.4986
   49MOL   C12414620   4.065   3.893   4.284 -0.6209  0.0404 -0.8133
   49MOL   O12514621   3.960   3.835   4.282  0.0820 -0.0699 -0.4727
   49MOL   O12614622   4.084   3.999   4.210 -0.1769  0.4027 -0.2263
   49MOL   C12714623   3.978   4.043   4.133  0.0124 -0.3404 -0.2486
   49MOL   C12814624   4.017   4.149   4.038  0.2134  0.5324 -0.3456
   49MOL   H12914625   4.207   3.663   4.496 -0.3317 -0.9165 -1.7994
   49MOL   H13014626   4.051   3.700   4.447  0.8442  0.5271 -1.7462
   49MOL   H13114627   4.213   3.944   4.428 -1.2883  0.1375 -0.1273
   49MOL   H13214628   3.937   3.963   4.071 -0.3899 -0.3445  0.0201
   49MOL   H13314629   3.886   4.058   4.189 -0.4435  0.3706 -1.1776
   49MOL   H13414630   4.090   4.098   3.975  0.8585 -0.3337  1.0785
   49MOL   H13514631   4.064   4.231   4.093 -1.1618 -0.2570  2.0680
   49MOL   H13614632   3.939   4.186   3.973 -1.1019 -1.2102  0.2082
   49MOL   C13714633   4.304   3.799   4.312 -0.1145  0.8381  0.2755
   49MOL   C13814634   4.294   3.660   4.236 -0.0851  0.4703 -0.2364
   49MOL   C13914635   4.404   3.571   4.291  0.3265 -0.0239  0.4721
   49MOL   O14014636   4.524   3.597   4.269  0.8423  0.6780  0.2597
   49MOL   O14114637   4.363   3.463   4.353 -0.3775  0.0384  0.2061
   49MOL   C14214638   4.451   3.370   4.413  0.6401 -0.3909  0.4667
   49MOL   C14314639   4.379   3.251   4.479 -0.4187  0.1027 -0.5809
   49MOL   H14414640   4.333   3.879   4.244  0.1835 -0.4080 -1.0733
   49MOL   H14514641   4.380   3.795   4.391 -0.0517  0.3272  0.1950
   49MOL   H14614642   4.200   3.608   4.256  0.5766 -0.2926  0.9827
   49MOL   H14714643   4.518   3.345   4.331 -0.5397  1.0824 -0.9781
   49MOL   H14814644   4.513   3.413   4.492  0.8550  0.4242 -0.1405
   49MOL   H14914645   4.447   3.173   4.514 -0.7321 -0.0099 -0.2170
   49MOL   H15014646   4.307   3.203   4.412 -0.0882 -0.9650 -0.1897
   49MOL   H15114647   4.313   3.296   4.554 -1.0542  0.7579 -1.5271
   49MOL   C15214648   4.287   3.674   4.080  0.3080 -0.5676  0.0432
   49MOL   C15314649   4.271   3.540   4.003 -0.6322  0.7057 -0.1935
   49MOL   C15414650   4.348   3.547   3.867  0.2889 -0.3101  0.8392
   49MOL   O15514651   4.329   3.634   3.784  0.4453 -0.3568  0.0372
   49MOL   O15614652   4.423   3.442   3.847 -0.2839 -0.2878 -0.4184
   49MOL   C15714653   4.498   3.416   3.728 -0.1460 -0.3436  0.0061
   49MOL   C15814654   4.555   3.274   3.723 -0.3845 -0.4549 -0.0130
   49MOL   H15914655   4.218   3.750   4.043  1.9456  0.4257 -1.0589
   49MOL   H16014656   4.370   3.735   4.043 -0.5718 -0.9671 -2.6831
   49MOL   H16114657   4.336   3.471   4.056 -1.5514 -0.1244 -0.1337
   49MOL   H16214658   4.414   3.423   3.658 -1.3411  1.7206  1.5762
   49MOL   H16314659   4.572   3.493   3.705 -0.3988 -0.2975 -0.6767
   49MOL   H16414660   4.476   3.202   3.748 -0.3549 -0.8328 -0.9851
   49MOL   H16514661   4.647   3.244   3.771  0.8676 -0.5639 -2.4150
   49MOL   H16614662   4.576   3.259   3.617 -0.6382 -1.3552  0.0585
   49MOL   C16714663   4.124   3.500   3.989 -0.6478 -0.5724  0.0142
   49MOL   C16814664   4.088   3.366   3.936 -0.0362 -0.2856  0.7065
   49MOL   C16914665   3.930   3.373   3.918 -0.0879  0.2369  0.2562
   49MOL   O17014666   3.853   3.304   3.984 -0.4732  0.9967 -0.4215
   49MOL   O17114667   3.898   3.462   3.817  0.4322 -0.0329 -1.1715
   49MOL   C17214668   3.762   3.485   3.787 -0.2204 -0.3767 -0.3279
   49MOL   C17314669   3.721   3.467   3.643  0.0572 -0.5342 -0.0518
   49MOL   H17414670   4.085   3.507   4.090 -1.6609 -0.3698 -0.3851
   49MOL   H17514671   4.084   3.584   3.932 -0.6739 -0.8484 -0.3788
   49MOL   H17614672   4.135   3.351   3.839 -0.3197  0.8777  0.3779
   49MOL   H17714673   3.688   3.426   3.843 -2.3861  1.7809 -0.8247
   49MOL   H17814674   3.749   3.592   3.803  0.0419 -0.5579  1.2078
   49MOL   H17914675   3.790   3.508   3.568  0.1591  1.4703  1.0882
   49MOL   H18014676   3.633   3.524   3.614 -0.4381 -1.3396 -0.1400
   49MOL   H18114677   3.705   3.362   3.620  0.1638 -0.5145 -0.2191
   49MOL   C18214678   4.139   3.260   4.043 -0.4884 -0.4979  0.3169
   49MOL   C18314679   4.240   3.161   3.964  0.0851 -0.1487 -0.3498
   49MOL   C18414680   4.180   3.086   3.846 -0.9352  0.2606  0.1613
   49MOL   O18514681   4.208   3.116   3.728  0.0434 -0.1196 -0.0140
   49MOL   O18614682   4.078   3.006   3.878  0.0221  0.1415 -0.4355
   49MOL   C18714683   4.005   2.942   3.774 -0.8135  0.4889 -0.9481
   49MOL   C18814684   3.895   3.036   3.713  0.3838 -0.5904  0.3504
   49MOL   H18914685   4.189   3.305   4.128 -0.5563 -1.4604  0.8711
   49MOL   H19014686   4.052   3.207   4.082 -0.2019 -0.4694  0.9927
   49MOL   H19114687   4.325   3.220   3.930 -0.5422  0.8324 -0.2473
   49MOL   H19214688   4.075   2.894   3.706  0.0103 -1.8846  1.4807
   49MOL   H19314689   3.968   2.855   3.827  1.1754 -0.3193 -0.8542
   49MOL   H19414690   3.809   3.053   3.778 -2.1840  0.2986 -3.1488
   49MOL   H19514691   3.850   2.993   3.624 -1.9241  1.6993  0.3670
   49MOL   H19614692   3.941   3.131   3.687 -1.7384  0.8791  1.8034
   49MOL   C19714693   4.296   3.051   4.055  0.0526 -0.2941 -0.8689
   49MOL   C19814694   4.436   2.988   4.043 -0.3187  0.3896  0.4478
   49MOL   C19914695   4.555   3.060   4.107 -0.5355  0.5969 -0.6112
   49MOL   O20014696   4.590   3.177   4.094  0.0322 -0.0739  0.5513
   49MOL   O20114697   4.630   2.979   4.184  0.2602  0.3427 -0.8125
   49MOL   C20214698   4.761   3.005   4.237  0.2430  0.3743  1.1404
   49MOL   C20314699   4.750   3.077   4.369 -0.9552  1.1509 -0.2892
   49MOL   H20414700   4.279   3.094   4.154  1.8294  1.2820 -1.2213
   49MOL   H20514701   4.232   2.963   4.066  0.2226 -0.2551  0.5488
   49MOL   H20614702   4.432   2.903   4.111 -3.0285 -0.7860 -1.1061
   49MOL   H20714703   4.813   2.909   4.246  1.3829  0.5829 -2.3415
   49MOL   H20814704   4.822   3.064   4.169  2.0371 -1.4067  1.1767
   49MOL   H20914705   4.670   3.029   4.425  0.9511  0.1265  1.6339
   49MOL   H21014706   4.715   3.180   4.367 -1.3696  0.9993 -1.0200
   49MOL   H21114707   4.845   3.067   4.422 -0.9906  1.0586 -0.2441
   49MOL   C21214708   4.460   2.932   3.893  0.0952 -0.7303 -0.4297
   49MOL   C21314709   4.413   2.789   3.871 -0.1425  0.3146 -0.7448
   49MOL   C21414710   4.466   2.688   3.976  0.2804  0.4076 -0.8232
   49MOL   O21514711   4.393   2.615   4.039  0.0613  0.3005 -0.2223
   49MOL   O21614712   4.603   2.685   3.988 -0.2532  0.0782  0.1768
   49MOL   C21714713   4.679   2.620   4.090 -0.6405 -0.0656  0.3677
   49MOL   C21814714   4.723   2.478   4.055  0.1479  0.3642 -0.4369
   49MOL   H21914715   4.424   2.996   3.812 -1.6401  1.1654  1.7680
   49MOL   H22014716   4.567   2.939   3.874  0.1390 -0.4080 -0.0795
   49MOL   H22114717   4.304   2.797   3.870 -0.1540  0.4130  0.3914
   49MOL   H22214718   4.768   2.678   4.114  0.4613 -2.1282  1.3884
   49MOL   H22314719   4.619   2.623   4.180  1.2839  2.2932  1.6384
   49MOL   H22414720   4.770   2.479   3.956 -0.0259  0.0472 -0.5236
   49MOL   H22514721   4.643   2.406   4.071 -0.5162  1.2592  0.2591
   49MOL   H22614722   4.806   2.448   4.120 -1.5536  0.6998  1.9369
   49MOL   C22714723   4.463   2.735   3.735  0.2353 -0.6673  0.0089
   49MOL   C22814724   4.384   2.792   3.620 -0.4724  0.1877  0.8226
   49MOL   C22914725   4.300   2.680   3.553  0.2538 -0.0770  0.7429
   49MOL   O23014726   4.187   2.654   3.587  0.7265  0.2462  0.1707
   49MOL   O23114727   4.376   2.606   3.462  0.1528 -0.6883  0.1107
   49MOL   C23214728   4.314   2.516   3.372 -0.1637 -0.4993  0.1580
   49MOL   C23314729   4.416   2.420   3.312  0.5132  0.2567 -0.4745
   49MOL   H23414730   4.569   2.749   3.716 -0.2123  0.3244 -1.7824
   49MOL   H23514731   4.456   2.626   3.735  2.1138 -0.8189 -2.5634
   49MOL   H23614732   4.317   2.858   3.674 -2.6408  0.2730 -1.8537
   49MOL   H23714733   4.233   2.460   3.419 -0.0577 -0.0685  0.8535
   49MOL   H23814734   4.274   2.579   3.293  0.5590 -1.0335 -0.6466
   49MOL   H23914735   4.463   2.353   3.384  2.5321  2.2497  0.1013
   49MOL   H24014736   4.480   2.470   3.239  1.1100  0.9039  0.4935
   49MOL   H24114737   4.356   2.356   3.247 -0.2149  0.7374 -0.2727
   49MOL   C24214738   4.479   2.851   3.508 -0.7156  0.8988  0.0039
   49MOL   C24314739   4.418   2.913   3.379 -0.4247 -0.2564  0.3538
   49MOL   C24414740   4.522   2.951   3.280  0.0800 -0.2149  0.9743
   49MOL   O24514741   4.543   3.071   3.254  0.2732  0.3107 -0.1972
   49MOL   O24614742   4.592   2.838   3.235 -0.0960  0.1547 -0.3139
   49MOL   C24714743   4.699   2.851   3.144  0.4169 -0.0214  0.0478
   49MOL   C24814744   4.798   2.739   3.169 -0.0537 -0.0157  0.7209
   49MOL   H24914745   4.545   2.926   3.551  1.3432 -1.3658  0.8864
   49MOL   H25014746   4.541   2.764   3.484 -1.6191  0.0368  0.7445
   49MOL   H25114747   4.352   2.837   3.337 -2.0418  0.8966  0.7834
   49MOL   H25214748   4.664   2.855   3.041 -0.8578 -3.0663  0.3028
   49MOL   H25314749   4.759   2.941   3.151  1.0696 -0.3827 -0.6897
   49MOL   H25414750   4.883   2.739   3.100  0.1625 -0.5292  0.9862
   49MOL   H25514751   4.746   2.644   3.157  0.9024 -0.4853  0.1746
   49MOL   H25614752   4.836   2.738   3.271 -0.3845 -1.5997  0.8415
   49MOL   C25714753   4.331   3.039   3.409  0.3940 -0.7028  0.5620
   49MOL   C25814754   4.220   3.059   3.298 -0.4062 -0.0105 -0.3463
   49MOL   C25914755   4.157   3.195   3.325 -0.5561  0.0781  0.7282
   49MOL   O26014756   4.134   3.264   3.229 -0.3345 -0.7443  0.0508
   49MOL   O26114757   4.115   3.225   3.456 -0.7173  0.0588  0.1101
   49MOL   C26214758   4.056   3.342   3.493  0.0062  0.2534 -1.2316
   49MOL   C26314759   4.154   3.437   3.566  0.5901  0.1844 -0.3237
   49MOL   H26414760   4.282   3.026   3.505 -0.4099  0.0265  0.2552
   49MOL   H26514761   4.377   3.135   3.431 -0.2012 -0.0223 -1.0389
   49MOL   H26614762   4.256   3.059   3.196 -0.2232  0.5631 -0.2840
   49MOL   H26714763   4.019   3.407   3.414  1.0018  1.3389 -0.8165
   49MOL   H26814764   3.966   3.318   3.551  2.2633  0.8401  2.7419
   49MOL   H26914765   4.237   3.471   3.505  1.0906  0.6337  0.5979
   49MOL   H27014766   4.204   3.391   3.652 -1.0840 -0.5361  0.2798
   49MOL   H27114767   4.106   3.524   3.610  0.8719 -0.3920  1.1395
   49MOL   C27214768   4.110   2.953   3.321  0.2329  0.3590  0.2768
   49MOL   C27314769   4.037   2.899   3.198 -0.0598  0.2274  0.2163
   49MOL   C27414770   4.111   2.771   3.152  0.2168 -0.7601  0.3132
   49MOL   O27514771   4.072   2.658   3.175  0.1014  0.0618  0.0379
   49MOL   O27614772   4.223   2.797   3.089  0.2691 -0.0970 -0.3945
   49MOL   C27714773   4.287   2.686   3.023 -0.0289  0.1785 -0.1369
   49MOL   C27814774   4.219   2.655   2.895  0.6081  0.2392  0.3276
   49MOL   H27914775   4.149   2.870   3.381 -0.6039  0.6838  1.2905
   49MOL   H28014776   4.029   2.992   3.383 -0.1011 -1.6692  1.1641
   49MOL   H28114777   3.940   2.862   3.230  0.8595 -2.1923  0.3423
   49MOL   H28214778   4.395   2.697   3.010 -0.0933 -0.1212 -0.9715
   49MOL   H28314779   4.295   2.598   3.087 -1.3261  0.5106  0.4821
   49MOL   H28414780   4.124   2.608   2.919  1.3506 -0.2357  2.4910
   49MOL   H28514781   4.279   2.593   2.830 -1.4568 -1.0987 -0.3461
   49MOL   H28614782   4.219   2.746   2.835 -0.4252  0.7485  1.0689
   49MOL   C28714783   4.005   2.997   3.090  0.9109  0.3398 -0.3314
   49MOL   C28814784   3.892   2.961   2.984 -0.4415 -0.7199  0.0205
   49MOL   C28914785   3.928   2.900   2.854 -0.1938  0.2570 -0.5112
   49MOL   O29014786   3.910   2.780   2.835 -0.0253  0.3837  0.3459
   49MOL   O29114787   3.979   2.981   2.763 -0.1934 -0.9633 -0.0396
   49MOL   C29214788   3.993   2.940   2.624  0.4566  0.2012  0.4757
   49MOL   C29314789   4.141   2.947   2.588 -0.0576 -0.5663 -0.5473
   49MOL   H29414790   3.968   3.089   3.134 -0.0276 -0.0737 -0.2622
   49MOL   H29514791   4.092   3.025   3.030  1.6000  0.4659  0.7237
   49MOL   H29614792   3.815   2.908   3.040  0.6309 -1.3933  0.8821
   49MOL   H29714793   3.958   2.838   2.606  1.5913  0.2784 -2.4501
   49MOL   H29814794   3.929   3.006   2.565  1.2275  0.8388  0.3513
   49MOL   H29914795   4.171   2.944   2.483  0.4473 -2.9586 -0.3744
   49MOL   H30014796   4.200   2.870   2.638  0.8353 -0.3714 -1.2890
   49MOL   H30114797   4.176   3.037   2.639  3.3500 -0.3638 -3.0814
   49MOL   H30214798   3.860   3.060   2.952 -1.4573 -2.2361 -3.9764
   50MOL     C114799   7.388   6.667   2.095 -0.6045  0.0519 -0.5054
   50MOL     C214800   7.465   6.789   2.030 -0.1453 -0.0042  0.0303
   50MOL     C314801   7.573   6.734   1.924 -0.0615  0.5949  0.1710
   50MOL     O414802   7.573   6.772   1.806  0.1230  0.4415 -0.3306
   50MOL     O514803   7.655   6.647   1.978  0.1471  1.3914 -0.2336
   50MOL     C614804   7.762   6.596   1.895 -0.6709  0.5096  0.5062
   50MOL     C714805   7.805   6.470   1.961  0.2523  0.0163 -0.7059
   50MOL     H814806   7.281   6.673   2.074 -0.9749 -2.6465  0.4342
   50MOL     H914807   7.407   6.676   2.202  0.0186  0.0678 -0.6154
   50MOL    H1014808   7.396   6.844   1.965  3.3631  1.1323 -2.9274
   50MOL    H1114809   7.736   6.586   1.789  1.2831 -0.3677  0.0854
   50MOL    H1214810   7.838   6.673   1.887 -0.1482 -0.1039 -0.7637
   50MOL    H1314811   7.892   6.422   1.916  2.1088  2.3698  0.2535
   50MOL    H1414812   7.722   6.399   1.969  1.5299 -1.2496  1.7300
   50MOL    H1514813   7.825   6.492   2.066 -1.8348  0.7842 -0.4524
   50MOL    H1614814   7.430   6.573   2.058  0.4129  0.6699 -0.9417
   50MOL    C1714815   7.534   6.878   2.132 -0.1963  0.1445 -0.0323
   50MOL    C1814816   7.439   6.974   2.207  0.6298 -0.9839 -0.2794
   50MOL    C1914817   7.363   7.066   2.111 -0.4184  0.0212  0.7448
   50MOL    O2014818   7.406   7.097   2.003 -0.5856 -0.7980  0.7636
   50MOL    O2114819   7.256   7.120   2.160  0.1234  0.0742  0.0046
   50MOL    C2214820   7.178   7.225   2.096 -0.1114  0.4099 -0.6555
   50MOL    C2314821   7.103   7.306   2.203 -0.3583 -0.1202 -0.1922
   50MOL    H2414822   7.578   6.815   2.209 -2.0404 -2.9567 -1.4333
   50MOL    H2514823   7.616   6.935   2.088 -1.2510 -0.0891 -2.3736
   50MOL    H2614824   7.375   6.901   2.256  0.6076 -1.2392 -0.6822
   50MOL    H2714825   7.252   7.287   2.046  1.7853  0.0720  1.6272
   50MOL    H2814826   7.112   7.171   2.029 -1.1962  2.2582 -1.1099
   50MOL    H2914827   7.062   7.252   2.288 -0.6219 -2.9445 -2.0623
   50MOL    H3014828   7.019   7.361   2.160  0.2044  0.6802 -0.2894
   50MOL    H3114829   7.169   7.383   2.244  0.4612 -0.0772 -1.5565
   50MOL    C3214830   7.511   7.066   2.323 -0.0476  0.2056 -0.1627
   50MOL    C3314831   7.593   6.988   2.428 -1.1621 -0.1161 -0.0616
   50MOL    C3414832   7.511   6.876   2.505 -0.2767  0.5372  0.5299
   50MOL    O3514833   7.392   6.896   2.529  0.2263  0.6339  0.2464
   50MOL    O3614834   7.589   6.777   2.550 -0.1046 -0.0264  0.4493
   50MOL    C3714835   7.539   6.675   2.636  0.1084 -0.1955 -0.1262
   50MOL    C3814836   7.489   6.551   2.557 -0.2394 -0.4505  0.3446
   50MOL    H3914837   7.563   7.152   2.282 -0.4846  1.0396  0.9892
   50MOL    H4014838   7.425   7.101   2.381 -1.3810 -2.3037 -0.5377
   50MOL    H4114839   7.664   6.938   2.361 -1.4090  0.2488 -0.6016
   50MOL    H4214840   7.634   6.654   2.686 -0.7543  0.1230  1.7147
   50MOL    H4314841   7.472   6.714   2.714  1.0510 -1.3629  1.3030
   50MOL    H4414842   7.574   6.488   2.533  1.0213  1.1087  0.6371
   50MOL    H4514843   7.429   6.584   2.471  0.1419 -1.0032 -0.1324
   50MOL    H4614844   7.417   6.484   2.604 -2.2223 -0.3968 -2.4817
   50MOL    C4714845   7.667   7.079   2.528 -0.8479 -0.3856  0.7311
   50MOL    C4814846   7.777   7.017   2.609 -0.2863 -0.1006 -0.3796
   50MOL    C4914847   7.736   6.995   2.761 -0.4779  0.9287 -0.1354
   50MOL    O5014848   7.735   6.886   2.816  0.0168 -0.8165 -0.2722
   50MOL    O5114849   7.694   7.106   2.816  0.1784 -0.2479 -0.0452
   50MOL    C5214850   7.644   7.091   2.955  0.3022  0.3264  0.2180
   50MOL    C5314851   7.627   7.234   2.994 -0.0064  0.6480 -0.0523
   50MOL    H5414852   7.709   7.157   2.465  2.2552 -1.2585  1.6486
   50MOL    H5514853   7.594   7.130   2.592 -1.4922 -1.8314  1.1707
   50MOL    H5614854   7.793   6.912   2.583 -2.0751 -0.3167 -0.6480
   50MOL    H5714855   7.546   7.045   2.942  0.8865 -0.8228 -0.1669
   50MOL    H5814856   7.701   7.038   3.030 -2.0429  1.2019  2.6765
   50MOL    H5914857   7.548   7.242   3.068  0.4293 -1.7720  0.7279
   50MOL    H6014858   7.596   7.303   2.916  2.3388  1.5888 -0.2033
   50MOL    H6114859   7.716   7.288   3.026  0.8877  1.2847 -3.4701
   50MOL    C6214860   0.004   7.090   2.594  0.3882 -0.0737 -0.1648
   50MOL    C6314861   0.127   7.008   2.649  0.7516 -0.4615  0.4126
   50MOL    C6414862   0.219   7.100   2.729  0.3896  0.6406  0.4415
   50MOL    O6514863   0.343   7.098   2.713 -0.1458  0.8011  0.4191
   50MOL    O6614864   0.146   7.177   2.814  0.0182  0.0475  0.1763
   50MOL    C6714865   0.205   7.266   2.906 -0.4261  0.6628 -0.2313
   50MOL    C6814866   0.124   7.246   3.035 -0.2909  0.2049  0.4961
   50MOL    H6914867   0.027   7.110   2.490 -0.7560 -0.7398 -0.5463
   50MOL    H7014868   7.901   7.191   2.633 -0.9780 -0.0412 -0.6507
   50MOL    H7114869   0.084   6.945   2.727 -1.5899  1.3232  0.6205
   50MOL    H7214870   0.308   7.241   2.931 -0.0955  1.7912 -0.4430
   50MOL    H7314871   0.205   7.367   2.866  0.1066  0.1039 -1.6698
   50MOL    H7414872   0.162   7.157   3.086 -1.4917  1.3641  3.5073
   50MOL    H7514873   0.017   7.235   3.018 -0.3467  1.9864 -0.4545
   50MOL    H7614874   0.128   7.325   3.110  1.0216  0.1048  0.5505
   50MOL    C7714875   0.201   6.917   2.541 -0.5868  0.5894 -0.9566
   50MOL    C7814876   0.297   6.811   2.610 -0.0422  0.0362 -0.5833
   50MOL    C7914877   0.375   6.737   2.497 -0.1254 -0.2182 -0.5674
   50MOL    O8014878   0.341   6.749   2.380 -0.1678 -0.2718 -0.5062
   50MOL    O8114879   0.472   6.656   2.547 -0.5214 -0.0741 -0.0168
   50MOL    C8214880   0.570   6.578   2.476 -0.1417 -0.0783 -0.1150
   50MOL    C8314881   0.532   6.433   2.466  0.4528  0.2269 -0.1375
   50MOL    H8414882   0.126   6.856   2.492 -2.2881  1.0680  0.9492
   50MOL    H8514883   0.254   6.980   2.470 -2.1222  0.2887 -2.3946
   50MOL    H8614884   0.371   6.858   2.675 -0.1181  1.3817 -1.4599
   50MOL    H8714885   0.559   6.616   2.374 -0.9544 -1.7044 -0.6383
   50MOL    H8814886   0.671   6.591   2.515 -0.0603  1.0924 -0.6617
   50MOL    H8914887   0.531   6.390   2.566 -0.9391  0.7639  0.0806
   50MOL    H9014888   0.601   6.373   2.407 -1.3568 -2.4989  0.4714
   50MOL    H9114889   0.431   6.417   2.429  0.9948 -2.2370 -0.6224
   50MOL    C9214890   0.232   6.703   2.699  0.6978  0.2137  0.1005
   50MOL    C9314891   0.300   6.672   2.836  0.5696 -0.3680 -0.3205
   50MOL    C9414892   0.385   6.785   2.900 -0.6881  0.3203 -0.1460
   50MOL    O9514893   0.326   6.886   2.942  0.5382  0.1624 -0.1554
   50MOL    O9614894   0.511   6.771   2.887  0.0785 -0.5295  0.8408
   50MOL    C9714895   0.599   6.865   2.946 -0.0363 -0.4645  0.2458
   50MOL    C9814896   0.741   6.818   2.948 -0.1325 -0.2359 -0.2634
   50MOL    H9914897   0.135   6.748   2.719  0.3560 -0.3146 -0.3506
   50MOL   H10014898   0.213   6.617   2.635 -0.1437  0.7033 -0.3077
   50MOL   H10114899   0.217   6.666   2.907 -0.2480  0.8698 -1.1321
   50MOL   H10214900   0.585   6.967   2.911 -2.1636 -0.2330  1.6566
   50MOL   H10314901   0.572   6.872   3.052 -0.7820 -1.2619  0.1092
   50MOL   H10414902   0.778   6.838   2.847 -1.0945 -2.9620 -1.2001
   50MOL   H10514903   0.748   6.716   2.984 -1.5120 -0.7298 -1.3399
   50MOL   H10614904   0.804   6.880   3.013 -2.0767  2.3720 -0.7671
   50MOL   C10714905   0.376   6.532   2.832 -0.4720  0.0026 -0.1192
   50MOL   C10814906   0.383   6.467   2.976  0.2259  0.1351 -0.3000
   50MOL   C10914907   0.532   6.431   3.017  0.2265  0.2101  0.7094
   50MOL   O11014908   0.639   6.469   2.965 -0.2556 -0.3059  0.4556
   50MOL   O11114909   0.528   6.336   3.108  0.0153  0.1965  0.7637
   50MOL   C11214910   0.641   6.272   3.165  0.5771  0.3009 -0.5705
   50MOL   C11314911   0.672   6.137   3.093  0.2326  0.1188  0.6191
   50MOL   H11414912   0.324   6.469   2.760 -0.9880 -0.1725  0.4062
   50MOL   H11514913   0.475   6.535   2.785 -0.7653 -0.0689 -0.7525
   50MOL   H11614914   0.360   6.549   3.045  0.8971  0.1431 -0.0815
   50MOL   H11714915   0.731   6.333   3.179  0.9358 -0.3964  0.2488
   50MOL   H11814916   0.612   6.254   3.269 -0.3865  0.6637 -0.7698
   50MOL   H11914917   0.766   6.093   3.127  1.8887  3.1528  0.2333
   50MOL   H12014918   0.689   6.149   2.986 -0.4705 -0.1539  0.4739
   50MOL   H12114919   0.599   6.057   3.103  1.2934 -0.5156  3.9749
   50MOL   C12214920   0.276   6.349   2.984 -0.3360 -0.0512 -0.4682
   50MOL   C12314921   0.182   6.365   3.106 -0.3089  0.1323  0.5212
   50MOL   C12414922   0.235   6.274   3.222 -0.0383 -0.1588 -0.7215
   50MOL   O12514923   0.307   6.317   3.314 -0.0421  0.1217 -0.2959
   50MOL   O12614924   0.208   6.140   3.206  0.5712  0.3138  0.3236
   50MOL   C12714925   0.292   6.045   3.271 -0.3851 -0.4582  0.4232
   50MOL   C12814926   0.252   6.024   3.418 -0.5122 -0.3450 -0.0948
   50MOL   H12914927   0.215   6.334   2.895 -1.6606  1.0680  0.2360
   50MOL   H13014928   0.329   6.254   2.994 -1.3967 -0.8495 -2.2581
   50MOL   H13114929   0.191   6.464   3.151  4.8756  1.0170 -2.0499
   50MOL   H13214930   0.274   5.952   3.218  0.0037 -0.0189 -0.4838
   50MOL   H13314931   0.398   6.067   3.257 -0.3191  0.2564  1.9423
   50MOL   H13414932   0.152   5.982   3.423  0.3668 -2.3979  1.0724
   50MOL   H13514933   0.238   6.118   3.471 -1.5422  0.0100 -0.9846
   50MOL   H13614934   0.327   5.957   3.462 -0.3897 -1.0754 -1.3855
   50MOL   C13714935   0.037   6.320   3.078 -0.0483 -0.2337 -0.7318
   50MOL   C13814936   7.857   6.433   3.012  0.2115 -0.0426  0.3006
   50MOL   C13914937   7.823   6.545   3.110  0.2358 -0.5421  0.8616
   50MOL   O14014938   7.766   6.523   3.217 -0.0394 -0.2589  0.1633
   50MOL   O14114939   7.867   6.665   3.062  0.1538 -0.1002 -0.0942
   50MOL   C14214940   7.840   6.777   3.135  0.0486  0.4297 -0.1143
   50MOL   C14314941   0.032   6.882   3.119 -0.0400  0.0913  0.3288
   50MOL   H14414942   0.037   6.226   3.023  1.3217 -0.2739 -0.6946
   50MOL   H14514943   7.902   6.296   3.175  0.0126  0.5640 -0.5021
   50MOL   H14614944   0.012   6.464   2.929  1.2983 -0.9505  0.7742
   50MOL   H14714945   7.743   6.819   3.109 -1.1275 -2.1652  0.0070
   50MOL   H14814946   7.838   6.748   3.239  1.1810 -0.6253 -0.3745
   50MOL   H14914947   0.004   6.971   3.174 -1.2460 -1.0320  1.5857
   50MOL   H15014948   0.037   6.903   3.012 -1.9104  0.1794  0.2457
   50MOL   H15114949   0.134   6.854   3.146  0.4729  1.0122 -0.6380
   50MOL   C15214950   7.726   6.372   2.958 -0.0967  0.0276 -0.8780
   50MOL   C15314951   7.742   6.265   2.847 -0.1868 -0.3396 -0.4680
   50MOL   C15414952   7.856   6.284   2.744 -0.1379 -0.6168  0.6375
   50MOL   O15514953   7.857   6.384   2.671  0.4457  0.2967  0.1388
   50MOL   O15614954   0.023   6.183   2.722  0.0540  0.0523 -0.0758
   50MOL   C15714955   0.114   6.178   2.612  0.3639 -0.4428  0.1248
   50MOL   C15814956   0.203   6.060   2.635  0.4736 -0.5333  0.3576
   50MOL   H15914957   7.656   6.338   3.033  0.5583  1.4244  0.3872
   50MOL   H16014958   7.674   6.457   2.914 -0.0351  0.1767 -0.6624
   50MOL   H16114959   7.760   6.170   2.897  0.0762  0.5530  1.1478
   50MOL   H16214960   0.064   6.159   2.517  0.1431  1.7296 -0.2138
   50MOL   H16314961   0.178   6.266   2.608  1.1196 -0.9998 -0.0038
   50MOL   H16414962   0.151   5.965   2.641 -0.8510  0.1415 -0.3634
   50MOL   H16514963   0.250   6.077   2.733  0.7231 -0.0351  0.1541
   50MOL   H16614964   0.286   6.065   2.564  1.3013  0.0502  1.3385
   50MOL   C16714965   7.611   6.249   2.768  0.7932  0.6837 -0.3598
   50MOL   C16814966   7.562   6.110   2.726  0.2146  0.0075 -0.5029
   50MOL   C16914967   7.632   6.052   2.601  0.2110 -0.1038  0.2414
   50MOL   O17014968   7.684   5.940   2.597 -0.3012  0.0614  0.2423
   50MOL   O17114969   7.620   6.131   2.498  0.0638 -0.0299  0.1101
   50MOL   C17214970   7.677   6.087   2.370 -0.4318  0.3330 -0.1368
   50MOL   C17314971   7.680   6.204   2.273  0.2598  0.3989  0.0286
   50MOL   H17414972   7.536   6.285   2.838  1.2610  0.3622  0.3079
   50MOL   H17514973   7.592   6.323   2.689 -1.8385  0.0775 -0.3342
   50MOL   H17614974   7.602   6.041   2.800  0.5879 -0.8599 -1.4938
   50MOL   H17714975   7.780   6.060   2.390 -0.0567  2.3596  0.7471
   50MOL   H17814976   7.618   6.003   2.333  1.4448 -1.3946  0.7089
   50MOL   H17914977   7.640   6.186   2.173  1.3604 -1.1187 -0.1585
   50MOL   H18014978   7.781   6.244   2.270 -0.2311  1.5709 -1.8062
   50MOL   H18114979   7.627   6.287   2.319 -0.0085  0.2379  0.0127
   50MOL   C18214980   7.411   6.070   2.734  0.7388 -0.0523  0.3291
   50MOL   C18314981   7.319   6.155   2.638 -0.3056 -0.5158 -0.4473
   50MOL   C18414982   7.200   6.214   2.725  0.3386 -0.1101  0.6025
   50MOL   O18514983   7.091   6.155   2.732  0.0107 -0.4987 -0.0467
   50MOL   O18614984   7.236   6.321   2.795  0.3887  0.1307 -0.5386
   50MOL   C18714985   7.156   6.389   2.890 -0.3668 -0.0240 -0.5326
   50MOL   C18814986   7.198   6.358   3.032 -0.5412 -0.1246  0.3365
   50MOL   H18914987   7.396   5.964   2.715  0.6313 -0.2205  1.3314
   50MOL   H19014988   7.372   6.073   2.836 -0.3055  1.2568 -0.0825
   50MOL   H19114989   7.388   6.229   2.595 -0.1350  0.0362  0.7682
   50MOL   H19214990   7.160   6.498   2.882 -0.1802  0.0421  0.4346
   50MOL   H19314991   7.055   6.348   2.888  0.0435 -1.2595  1.8970
   50MOL   H19414992   7.306   6.352   3.051 -0.5372  0.1337  0.4018
   50MOL   H19514993   7.162   6.263   3.070 -1.2024 -0.3212 -0.7840
   50MOL   H19614994   7.160   6.438   3.095 -0.0278 -0.1110  0.6390
   50MOL   C19714995   7.269   6.065   2.517  0.3572 -0.0048  0.5464
   50MOL   C19814996   7.256   6.128   2.381  0.1635 -0.6520 -0.1461
   50MOL   C19914997   7.182   6.261   2.373 -0.6133  0.2375 -0.1081
   50MOL   O20014998   7.247   6.364   2.355  0.4202  0.6906 -0.3468
   50MOL   O20114999   7.053   6.253   2.389 -0.1245  0.0222  0.0597
   50MOL   C20215000   6.964   6.363   2.406 -0.8117  0.3285  0.4198
   50MOL   C20315001   6.918   6.397   2.260  0.7384 -0.3260  0.3769
   50MOL   H20415002   7.343   5.985   2.504 -1.5374 -1.8408  0.9300
   50MOL   H20515003   7.185   6.006   2.552 -0.1925 -0.5668 -1.6250
   50MOL   H20615004   7.357   6.154   2.349  0.4611  0.7920  1.9045
   50MOL   H20715005   6.883   6.343   2.477 -0.4216 -1.4723  0.3820
   50MOL   H20815006   7.011   6.455   2.439 -1.4709  1.0358 -0.6104
   50MOL   H20915007   6.882   6.500   2.273  0.9803 -0.1999  0.0430
   50MOL   H21015008   6.832   6.345   2.218 -0.3243  0.4645  1.5316
   50MOL   H21115009   7.006   6.397   2.197  0.2888 -0.6506 -0.2552
   50MOL   C21215010   7.186   6.031   2.285 -0.1863 -0.1128  0.0454
   50MOL   C21315011   7.179   6.067   2.134 -0.8634  0.4779 -0.4633
   50MOL   C21415012   7.043   6.019   2.086  0.5791  0.7244 -1.4484
   50MOL   O21515013   7.020   5.912   2.023 -0.1578 -0.0166 -0.5712
   50MOL   O21615014   6.944   6.103   2.123 -0.1048 -0.6923  0.4527
   50MOL   C21715015   6.807   6.078   2.094  0.0421 -0.2827  0.1675
   50MOL   C21815016   6.780   6.156   1.964  0.4010  0.6070 -0.1559
   50MOL   H21915017   7.219   5.928   2.296 -0.3464 -0.2025 -0.3153
   50MOL   H22015018   7.085   6.016   2.323 -0.5113  1.9095 -0.0094
   50MOL   H22115019   7.182   6.175   2.117 -1.9779  0.6625  0.4344
   50MOL   H22215020   6.780   5.973   2.084 -0.6403 -0.2413  1.3636
   50MOL   H22315021   6.746   6.137   2.164 -1.6451 -1.6320 -0.1249
   50MOL   H22415022   6.839   6.116   1.882  0.7203  0.5277  0.1063
   50MOL   H22515023   6.806   6.262   1.957  2.8088  0.3585  3.4411
   50MOL   H22615024   6.677   6.140   1.933  0.6235 -3.3380  0.8828
   50MOL   C22715025   7.288   6.017   2.045  0.3008 -0.2702  0.0437
   50MOL   C22815026   7.284   6.068   1.895  0.6094  0.1600  0.1209
   50MOL   C22915027   7.382   5.987   1.801 -0.2107  0.3070  0.3008
   50MOL   O23015028   7.433   5.888   1.845 -0.1583 -0.2494 -0.1749
   50MOL   O23115029   7.387   6.032   1.675  0.0698 -0.6875 -0.2851
   50MOL   C23215030   7.474   5.965   1.584 -0.0485  0.0348 -0.0362
   50MOL   C23315031   7.463   5.823   1.534 -0.0017 -0.8137  0.3770
   50MOL   H23415032   7.388   6.048   2.077 -0.4317  2.6310 -0.3391
   50MOL   H23515033   7.283   5.908   2.040  2.1548 -0.5690  3.1920
   50MOL   H23615034   7.182   6.048   1.863  0.1525  1.3759  0.7832
   50MOL   H23715035   7.463   6.030   1.497  2.5170  0.5034 -0.0684
   50MOL   H23815036   7.575   5.986   1.621  0.0787  0.2013 -0.4745
   50MOL   H23915037   7.377   5.800   1.472  0.1241  0.6460 -0.3630
   50MOL   H24015038   7.451   5.752   1.616  0.6418  1.3722  2.4105
   50MOL   H24115039   7.554   5.788   1.484  0.5189  0.0994  0.6716
   50MOL   C24215040   7.318   6.222   1.885  0.1978  0.4994  0.0396
   50MOL   C24315041   7.203   6.310   1.831  0.1541  0.4722 -0.0899
   50MOL   C24415042   7.184   6.290   1.681  0.3235 -0.0225 -0.3726
   50MOL   O24515043   7.225   6.379   1.605  0.5765  0.2479  0.1424
   50MOL   O24615044   7.135   6.177   1.640  0.1817 -0.9306  0.4997
   50MOL   C24715045   7.099   6.168   1.502  0.0439  0.0071  0.6347
   50MOL   C24815046   6.957   6.214   1.472  0.1297 -0.0881  0.1007
   50MOL   H24915047   7.352   6.262   1.981  2.9597 -0.7020 -0.3758
   50MOL   H25015048   7.417   6.246   1.844 -0.4400  0.5483 -1.4819
   50MOL   H25115049   7.104   6.287   1.870  0.1667 -2.5195 -1.6858
   50MOL   H25215050   7.167   6.220   1.434  0.3795  1.3279  1.9727
   50MOL   H25315051   7.110   6.062   1.477  0.2587 -0.2718  1.8877
   50MOL   H25415052   6.878   6.155   1.519 -0.0643 -0.2467 -0.4273
   50MOL   H25515053   6.948   6.225   1.364  2.9159 -0.8340 -0.2485
   50MOL   H25615054   6.941   6.309   1.522 -0.7027 -0.1524 -0.0444
   50MOL   C25715055   7.230   6.458   1.869  0.4556  0.1668 -0.2386
   50MOL   C25815056   7.107   6.556   1.834 -0.3446  0.0834  0.6263
   50MOL   C25915057   7.154   6.698   1.816 -0.0148  0.0465 -1.1236
   50MOL   O26015058   7.115   6.783   1.892 -0.0915 -0.8181  0.4734
   50MOL   O26115059   7.228   6.725   1.704  0.2026  0.0999 -0.4746
   50MOL   C26215060   7.257   6.856   1.666 -0.2424 -0.6739  0.0502
   50MOL   C26315061   7.255   6.860   1.520 -0.5411  0.1951 -0.4988
   50MOL   H26415062   7.246   6.462   1.976 -1.6167  1.6039  0.0520
   50MOL   H26515063   7.327   6.484   1.828 -0.7692  1.7046 -2.2822
   50MOL   H26615064   7.072   6.522   1.736  2.4148  0.2569 -0.4511
   50MOL   H26715065   7.192   6.930   1.713 -0.1824 -1.4159  1.3253
   50MOL   H26815066   7.353   6.882   1.709 -0.0564 -0.3909 -0.5246
   50MOL   H26915067   7.283   6.960   1.487 -0.7929  0.0218 -1.2519
   50MOL   H27015068   7.158   6.828   1.484 -1.5767  1.3888  1.1676
   50MOL   H27115069   7.329   6.797   1.470  0.5466  0.4219  0.7848
   50MOL   C27215070   6.978   6.537   1.924 -0.3122 -0.0879 -1.1394
   50MOL   C27315071   6.850   6.586   1.857 -1.0579 -0.1146  0.7662
   50MOL   C27415072   6.735   6.606   1.962  0.2301 -0.7300  0.3993
   50MOL   O27515073   6.711   6.533   2.060 -0.0781 -0.0170 -0.6275
   50MOL   O27615074   6.666   6.717   1.926 -0.3525  0.5863 -0.3447
   50MOL   C27715075   6.563   6.763   2.012 -0.4250 -1.0645 -0.2017
   50MOL   C27815076   6.607   6.884   2.087  0.2021 -0.6531 -0.2406
   50MOL   H27915077   6.951   6.437   1.960 -0.7423  0.9678  1.6677
   50MOL   H28015078   6.998   6.599   2.012 -2.2871 -0.3388 -0.4645
   50MOL   H28115079   6.881   6.684   1.819  1.5837 -1.2399 -0.1269
   50MOL   H28215080   6.485   6.802   1.947  2.9835  1.0863 -3.2160
   50MOL   H28315081   6.509   6.685   2.066 -1.3993 -1.1341 -1.2588
   50MOL   H28415082   6.525   6.923   2.147  0.4386 -0.1979 -0.2106
   50MOL   H28515083   6.643   6.961   2.019  1.4447 -1.6180 -0.6961
   50MOL   H28615084   6.688   6.860   2.156 -0.0716 -1.0732 -0.0645
   50MOL   C28715085   6.800   6.501   1.735 -0.9542 -0.3292  0.3106
   50MOL   C28815086   6.760   6.572   1.613  0.3074  1.3111 -0.4829
   50MOL   C28915087   6.871   6.633   1.537  0.1461 -0.4004 -0.1505
   50MOL   O29015088   6.865   6.751   1.503 -0.0921 -0.0878 -0.2544
   50MOL   O29115089   6.958   6.544   1.503  0.1756  0.0357  0.5032
   50MOL   C29215090   7.037   6.570   1.391 -0.3786 -0.4902  0.1400
   50MOL   C29315091   6.970   6.550   1.251 -0.4616  0.5882  0.2037
   50MOL   H29415092   6.877   6.427   1.713  0.4885  0.7721  1.5968
   50MOL   H29515093   6.725   6.426   1.761 -0.6978 -0.1427  1.5767
   50MOL   H29615094   6.721   6.504   1.537  0.2358 -0.1949  0.8628
   50MOL   H29715095   7.091   6.665   1.397  0.2558 -0.7492 -1.1770
   50MOL   H29815096   7.115   6.494   1.390  1.0384  0.8481  2.1076
   50MOL   H29915097   7.031   6.573   1.164  0.9461 -2.3351  0.3330
   50MOL   H30015098   6.879   6.608   1.244 -2.8622 -2.8567  1.3418
   50MOL   H30115099   6.960   6.441   1.247 -2.7956  0.7556  1.0408
   50MOL   H30215100   6.682   6.647   1.631  1.0375  1.7652  0.8687
   51MOL     C115101   3.960   5.760   2.253 -0.5759  0.1811 -0.3957
   51MOL     C215102   4.018   5.734   2.397 -0.5461 -0.0142 -0.1033
   51MOL     C315103   3.915   5.750   2.509  0.2604  0.0616  0.4887
   51MOL     O415104   3.864   5.856   2.543  0.0110 -0.1730 -0.8336
   51MOL     O515105   3.880   5.639   2.563  0.3755  0.0156 -0.3087
   51MOL     C615106   3.788   5.637   2.671  0.3980 -0.4702 -0.2030
   51MOL     C715107   3.774   5.492   2.727 -0.7244 -0.2465 -0.6799
   51MOL     H815108   3.925   5.862   2.241 -1.8244  0.1129  2.3131
   51MOL     H915109   3.872   5.698   2.233 -0.8460  1.0216 -1.8356
   51MOL    H1015110   4.066   5.637   2.406  1.6447  1.0195 -0.2643
   51MOL    H1115111   3.831   5.702   2.747 -0.0786  0.4976 -0.7509
   51MOL    H1215112   3.697   5.680   2.630 -0.5750  0.1013  2.4546
   51MOL    H1315113   3.717   5.507   2.818  2.6821  2.9690  1.0773
   51MOL    H1415114   3.869   5.441   2.739 -1.0492 -1.0481 -1.4896
   51MOL    H1515115   3.727   5.436   2.647 -0.1455 -1.6860 -0.0238
   51MOL    H1615116   4.043   5.748   2.182 -0.7287 -2.0377 -0.2453
   51MOL    C1715117   4.132   5.834   2.426  0.0325  0.1635  0.2815
   51MOL    C1815118   4.252   5.825   2.329 -0.5654  0.2398 -0.2872
   51MOL    C1915119   4.295   5.681   2.306 -0.5774  0.2496 -0.2769
   51MOL    O2015120   4.267   5.626   2.199 -0.4042  0.4217  0.0141
   51MOL    O2115121   4.361   5.634   2.417  0.1097  0.4126  0.3006
   51MOL    C2215122   4.452   5.522   2.390 -0.1308 -0.1032  0.3148
   51MOL    C2315123   4.594   5.579   2.363 -0.4834  0.1519 -0.2822
   51MOL    H2415124   4.101   5.938   2.422  1.4743  0.5618 -1.0349
   51MOL    H2515125   4.175   5.826   2.526  0.5227  0.6612  0.1144
   51MOL    H2615126   4.212   5.865   2.236 -1.3798 -1.5560 -0.7304
   51MOL    H2715127   4.451   5.455   2.477 -0.0640  2.2626  2.1861
   51MOL    H2815128   4.415   5.461   2.307 -1.0801  0.8709  0.0139
   51MOL    H2915129   4.617   5.674   2.411  0.7051  0.2790 -1.0709
   51MOL    H3015130   4.608   5.611   2.260  0.8939  2.9323  0.6926
   51MOL    H3115131   4.676   5.510   2.383  0.0616  0.8020 -0.2242
   51MOL    C3215132   4.371   5.917   2.372  0.1158  0.7181  0.2752
   51MOL    C3315133   4.478   5.931   2.253 -1.3331  0.0934 -0.3623
   51MOL    C3415134   4.614   5.992   2.304 -0.2208 -0.2015 -1.0943
   51MOL    O3515135   4.708   5.913   2.317  0.0732  0.1465 -0.3440
   51MOL    O3615136   4.608   6.127   2.339 -0.2654 -0.0657  0.1759
   51MOL    C3715137   4.734   6.197   2.353  1.4152 -0.0241 -0.3348
   51MOL    C3815138   4.744   6.243   2.494  0.5528 -0.0186  0.2241
   51MOL    H3915139   4.332   6.017   2.388  0.9219  1.1021 -0.1217
   51MOL    H4015140   4.418   5.893   2.468 -1.9430 -2.3851  0.5850
   51MOL    H4115141   4.507   5.830   2.224  1.4191  0.9479 -0.6438
   51MOL    H4215142   4.816   6.127   2.336  2.2409  1.1176 -1.0761
   51MOL    H4315143   4.738   6.278   2.281 -0.4186 -3.1993 -4.1905
   51MOL    H4415144   4.753   6.161   2.566 -0.3281 -1.1447 -0.9255
   51MOL    H4515145   4.652   6.301   2.503 -0.4700 -1.3583 -1.4496
   51MOL    H4615146   4.827   6.314   2.505 -0.5857  1.6609 -1.8775
   51MOL    C4715147   4.428   6.005   2.130 -0.3358  0.1166 -0.2834
   51MOL    C4815148   4.464   5.943   1.986  0.0592 -0.3069  0.7005
   51MOL    C4915149   4.593   6.012   1.933 -0.2570  0.0037  0.5532
   51MOL    O5015150   4.610   6.102   1.849 -0.7051 -0.3781  0.0856
   51MOL    O5115151   4.698   5.947   1.988  0.3759 -0.4137  0.0519
   51MOL    C5215152   4.831   5.993   1.955 -0.1191  0.2253 -0.1019
   51MOL    C5315153   4.926   5.895   2.024 -0.4060 -0.3240 -0.0942
   51MOL    H5415154   4.321   6.017   2.148  0.3098 -0.5112  4.6915
   51MOL    H5515155   4.451   6.111   2.128 -0.8080  0.1961 -1.4734
   51MOL    H5615156   4.470   5.834   1.995  1.3751 -0.1439  2.0900
   51MOL    H5715157   4.857   5.972   1.851  1.8648 -1.8161  0.7719
   51MOL    H5815158   4.856   6.095   1.985 -1.2033  0.1066  1.2496
   51MOL    H5915159   4.936   5.805   1.963 -1.1808 -0.8382  0.5233
   51MOL    H6015160   4.904   5.872   2.129 -2.6303  0.4969 -0.3522
   51MOL    H6115161   5.020   5.950   2.017 -1.1768  0.9008 -0.9338
   51MOL    C6215162   4.346   5.974   1.887 -0.3077 -0.2130  0.9626
   51MOL    C6315163   4.361   5.892   1.757  0.1475  0.2832 -0.4720
   51MOL    C6415164   4.315   5.972   1.633  0.2534  0.4910 -0.1082
   51MOL    O6515165   4.209   6.033   1.632  0.2521  0.5324 -0.6921
   51MOL    O6615166   4.399   5.958   1.533  0.4538 -0.3186 -0.5206
   51MOL    C6715167   4.398   6.046   1.433  0.3906  0.4720 -0.0809
   51MOL    C6815168   4.530   6.046   1.358  0.1660  0.7955  0.5901
   51MOL    H6915169   4.256   5.940   1.937 -0.3775 -2.3640 -0.5754
   51MOL    H7015170   4.337   6.081   1.868  0.9800 -0.4021 -0.8177
   51MOL    H7115171   4.468   5.873   1.762 -0.1232 -1.7706 -1.8798
   51MOL    H7215172   4.323   6.009   1.364  0.4307  0.7872 -0.2971
   51MOL    H7315173   4.375   6.147   1.467  1.0707  0.5857  0.0546
   51MOL    H7415174   4.615   6.080   1.418  1.3921  0.8298 -1.1425
   51MOL    H7515175   4.527   6.115   1.274 -0.0910 -0.8139 -0.7577
   51MOL    H7615176   4.558   5.944   1.330 -1.8143 -0.2589  2.3057
   51MOL    C7715177   4.299   5.750   1.771 -0.0624  0.3501 -0.0507
   51MOL    C7815178   4.393   5.639   1.715 -0.2778 -0.5766 -0.1122
   51MOL    C7915179   4.378   5.616   1.564  0.4993  0.4919 -0.4117
   51MOL    O8015180   4.269   5.591   1.512 -0.0962 -0.0582  0.8051
   51MOL    O8115181   4.491   5.619   1.497  0.0841  0.0126 -0.0980
   51MOL    C8215182   4.492   5.572   1.365 -0.0039  0.2223 -1.3717
   51MOL    C8315183   4.626   5.590   1.312 -0.9590  0.0394  0.6243
   51MOL    H8415184   4.272   5.726   1.873  0.4824 -2.7492 -0.5869
   51MOL    H8515185   4.201   5.749   1.723 -0.9866 -0.7827  1.8265
   51MOL    H8615186   4.494   5.677   1.726 -1.0548  1.1632  1.2892
   51MOL    H8715187   4.447   5.473   1.361 -0.5544  0.4252 -0.3190
   51MOL    H8815188   4.430   5.645   1.311 -1.7289  0.3251  0.6936
   51MOL    H8915189   4.648   5.696   1.299 -2.8368  0.4889  0.9099
   51MOL    H9015190   4.633   5.555   1.209 -1.7045  4.8110 -1.2042
   51MOL    H9115191   4.708   5.544   1.368  0.7785  3.3593  0.9387
   51MOL    C9215192   4.389   5.506   1.799 -0.3220 -0.5097  0.4516
   51MOL    C9315193   4.492   5.403   1.755 -0.2060  0.0276 -0.4090
   51MOL    C9415194   4.435   5.268   1.710 -0.7198  0.4096  0.2443
   51MOL    O9515195   4.425   5.243   1.589 -0.1023  0.6877 -0.0492
   51MOL    O9615196   4.385   5.190   1.810 -0.7985  0.6617 -0.3443
   51MOL    C9715197   4.333   5.066   1.773  0.3636  0.8127  0.2607
   51MOL    C9815198   4.178   5.063   1.740  0.0971 -0.0847  0.1392
   51MOL    H9915199   4.401   5.532   1.904  0.7127  1.0585 -0.0339
   51MOL   H10015200   4.284   5.479   1.789 -0.9698  1.6662  1.2409
   51MOL   H10115201   4.538   5.423   1.658  0.6984  2.5769  0.4955
   51MOL   H10215202   4.380   5.015   1.689  1.6195  0.1515  1.3488
   51MOL   H10315203   4.342   5.000   1.859  0.8384  1.1563  0.4772
   51MOL   H10415204   4.166   5.101   1.639 -0.8401 -0.0529  0.2576
   51MOL   H10515205   4.116   5.124   1.806  0.8831  0.5937  0.2654
   51MOL   H10615206   4.150   4.958   1.743  0.0766 -0.0435  2.4209
   51MOL   C10715207   4.613   5.391   1.860  0.8423  0.0680  0.1596
   51MOL   C10815208   4.687   5.524   1.891 -0.1844  0.0469  0.0490
   51MOL   C10915209   4.764   5.578   1.768  0.7783  0.5101 -0.1354
   51MOL   O11015210   4.803   5.497   1.681  0.0960  0.4616  0.1843
   51MOL   O11115211   4.789   5.708   1.775  0.4022  0.1803 -0.2227
   51MOL   C11215212   4.850   5.780   1.670 -0.2555 -0.1589 -1.0127
   51MOL   C11315213   4.742   5.861   1.586 -0.7085  0.4829 -0.5295
   51MOL   H11415214   4.558   5.365   1.950  1.5399  0.4936  0.7127
   51MOL   H11515215   4.681   5.306   1.846 -1.8115 -1.8008 -2.1527
   51MOL   H11615216   4.619   5.607   1.909  0.7472  0.5192  1.4785
   51MOL   H11715217   4.917   5.850   1.719 -0.5932  0.0436 -0.8343
   51MOL   H11815218   4.910   5.718   1.603 -0.5852 -0.5607 -0.9423
   51MOL   H11915219   4.680   5.915   1.658 -0.7247  0.7416 -0.7394
   51MOL   H12015220   4.677   5.794   1.529  0.9414 -0.4560 -1.3312
   51MOL   H12115221   4.788   5.937   1.523  0.4912  0.8456  0.7462
   51MOL   C12215222   4.774   5.517   2.013  0.9298  0.3490 -0.2058
   51MOL   C12315223   4.919   5.443   2.005 -1.0401  0.0174  0.5836
   51MOL   C12415224   4.907   5.290   2.030 -0.0466 -0.2965 -0.0520
   51MOL   O12515225   4.941   5.206   1.948 -0.0049 -0.5445 -0.1396
   51MOL   O12615226   4.865   5.266   2.149 -0.1709 -0.3975  0.4440
   51MOL   C12715227   4.816   5.136   2.181 -0.2658  0.5454 -0.7146
   51MOL   C12815228   4.796   5.125   2.333  0.5843 -0.2237 -0.0701
   51MOL   H12915229   4.791   5.623   2.029  0.1632  0.5392 -0.6229
   51MOL   H13015230   4.719   5.489   2.103 -1.8814 -1.3849 -2.3648
   51MOL   H13115231   4.970   5.463   1.911 -0.8610  0.8751  0.8665
   51MOL   H13215232   4.727   5.137   2.118  0.5494 -1.1174 -1.9517
   51MOL   H13315233   4.882   5.056   2.146  1.7200  1.6576  0.3758
   51MOL   H13415234   4.744   5.031   2.353  0.5907 -0.5787 -1.5996
   51MOL   H13515235   4.743   5.211   2.373  2.7354  1.5253 -0.9135
   51MOL   H13615236   4.893   5.122   2.383  2.1969 -0.2789 -3.0886
   51MOL   C13715237   5.019   5.508   2.104 -0.3102  0.0162 -0.0474
   51MOL   C13815238   5.175   5.487   2.084 -0.2954  0.0843 -0.7601
   51MOL   C13915239   5.217   5.343   2.120 -0.2027  0.5232  0.5429
   51MOL   O14015240   5.279   5.276   2.038  0.3239 -0.2146  0.0322
   51MOL   O14115241   5.174   5.305   2.240  0.1925  0.1877 -0.0456
   51MOL   C14215242   5.209   5.176   2.289 -0.2991  0.7425  0.1531
   51MOL   C14315243   5.350   5.179   2.360  0.3904  0.4545 -0.1082
   51MOL   H14415244   4.998   5.614   2.091  1.1698  0.4631  1.0016
   51MOL   H14515245   5.008   5.483   2.210  0.9144  0.4123  0.1873
   51MOL   H14615246   5.203   5.483   1.979 -0.4002  1.4390 -0.8416
   51MOL   H14715247   5.139   5.135   2.362 -1.3520 -1.6910 -2.1252
   51MOL   H14815248   5.199   5.109   2.202 -2.6227 -0.0835  0.9967
   51MOL   H14915249   5.428   5.211   2.292 -0.0002  1.1621 -0.2254
   51MOL   H15015250   5.377   5.084   2.407  0.3361  0.0944 -0.7847
   51MOL   H15115251   5.336   5.253   2.438 -0.9155 -2.4478  2.5379
   51MOL   C15215252   5.250   5.601   2.159  0.2696 -0.2119  0.1291
   51MOL   C15315253   5.404   5.621   2.141 -1.2331  0.3085  0.1827
   51MOL   C15415254   5.486   5.537   2.250  0.4404  0.2593 -0.1535
   51MOL   O15515255   5.434   5.499   2.357 -0.3619  0.5426 -0.1527
   51MOL   O15615256   5.612   5.514   2.215 -0.7680  0.0765 -0.0925
   51MOL   C15715257   5.704   5.460   2.308 -1.0358  0.0636  0.4091
   51MOL   C15815258   5.844   5.480   2.246  0.5506 -0.8030 -0.3100
   51MOL   H15915259   5.210   5.699   2.133 -0.8693 -0.2569  1.6158
   51MOL   H16015260   5.243   5.599   2.267  0.4009  0.8928  0.1670
   51MOL   H16115261   5.431   5.575   2.047  0.6861  0.2093  0.7611
   51MOL   H16215262   5.706   5.501   2.409  1.8881  0.8969  0.0711
   51MOL   H16315263   5.685   5.353   2.314  0.4346 -0.1337  2.0822
   51MOL   H16415264   5.849   5.462   2.139 -0.5067 -0.6088 -0.3980
   51MOL   H16515265   5.919   5.416   2.292 -0.8949 -2.2523  0.0652
   51MOL   H16615266   5.873   5.585   2.254  0.7245 -0.8211 -0.6924
   51MOL   C16715267   5.454   5.772   2.154 -0.0553  0.1975 -0.1138
   51MOL   C16815268   5.449   5.835   2.295  0.0264  0.3964 -0.8490
   51MOL   C16915269   5.313   5.883   2.333  0.5656  0.0110 -0.3339
   51MOL   O17015270   5.235   5.927   2.246 -0.0024  0.1921  0.1512
   51MOL   O17115271   5.290   5.891   2.466 -0.1223  0.5590 -0.2433
   51MOL   C17215272   5.163   5.925   2.521 -0.5250 -1.0915  0.1940
   51MOL   C17315273   5.059   5.810   2.497 -0.2775 -0.8569 -0.1201
   51MOL   H17415274   5.559   5.771   2.123 -0.1265 -1.7097 -0.3820
   51MOL   H17515275   5.399   5.827   2.078  0.4017 -0.4319 -0.9046
   51MOL   H17615276   5.478   5.761   2.369  1.8506  1.2903 -0.6420
   51MOL   H17715277   5.171   5.943   2.629  0.2955 -0.6619  0.0653
   51MOL   H17815278   5.137   6.020   2.476 -2.0723 -1.7446 -0.3403
   51MOL   H17915279   4.962   5.843   2.534  1.1339  1.5192  1.6144
   51MOL   H18015280   5.086   5.728   2.563 -0.2469  0.2671  1.2933
   51MOL   H18115281   5.051   5.778   2.393  0.7184 -0.4479 -0.3268
   51MOL   C18215282   5.555   5.948   2.321 -0.0757 -0.0066  0.0697
   51MOL   C18315283   5.523   6.091   2.270  0.4576  0.6227 -0.6298
   51MOL   C18415284   5.532   6.109   2.122  0.0315  1.3350 -0.7512
   51MOL   O18515285   5.585   6.028   2.052 -0.1916  0.3084 -0.3769
   51MOL   O18615286   5.479   6.225   2.073  0.6404  0.1066 -0.7225
   51MOL   C18715287   5.476   6.252   1.931 -0.0460 -0.1074  0.5078
   51MOL   C18815288   5.401   6.382   1.916  0.1562 -0.3063  0.2528
   51MOL   H18915289   5.569   5.941   2.429 -0.0066 -0.8819  0.0087
   51MOL   H19015290   5.655   5.923   2.285 -0.3026  0.5037 -0.9468
   51MOL   H19115291   5.417   6.108   2.288  0.4457 -0.6089  0.4721
   51MOL   H19215292   5.579   6.257   1.897 -0.0488 -2.4934  0.0698
   51MOL   H19315293   5.420   6.173   1.882 -0.4061 -0.7260  1.8762
   51MOL   H19415294   5.448   6.463   1.971  1.2139  0.7239 -2.0740
   51MOL   H19515295   5.303   6.376   1.962 -0.3574  2.8103 -0.3347
   51MOL   H19615296   5.407   6.411   1.811  0.3233  0.4216  0.4594
   51MOL   C19715297   5.599   6.204   2.339  0.5259  0.3254  0.1662
   51MOL   C19815298   5.563   6.217   2.489 -0.6170 -0.2696  0.9132
   51MOL   C19915299   5.411   6.222   2.523 -0.9993 -0.5246  0.0955
   51MOL   O20015300   5.366   6.148   2.614 -0.2994 -0.0856 -0.3279
   51MOL   O20115301   5.344   6.312   2.443 -0.2150 -0.5997  0.2896
   51MOL   C20215302   5.204   6.324   2.462 -0.1569 -0.1301 -0.1357
   51MOL   C20315303   5.124   6.338   2.332  0.3323  0.0579 -0.2891
   51MOL   H20415304   5.705   6.179   2.346  0.4242 -0.6153 -1.3775
   51MOL   H20515305   5.598   6.300   2.287 -1.1410  0.5542  0.6021
   51MOL   H20615306   5.610   6.125   2.525  0.5111  0.2872  0.8910
   51MOL   H20715307   5.158   6.248   2.525  1.7316 -0.9998  0.2366
   51MOL   H20815308   5.183   6.419   2.510  2.1193 -0.1636  0.9902
   51MOL   H20915309   5.127   6.247   2.273  2.0249 -0.4721  0.5967
   51MOL   H21015310   5.177   6.423   2.288 -0.6348  0.7727 -0.1114
   51MOL   H21115311   5.020   6.368   2.349  0.7148  1.1649  0.1469
   51MOL   C21215312   5.643   6.342   2.544 -0.4863  0.4338 -0.3893
   51MOL   C21315313   5.697   6.327   2.685  0.1711 -0.3803  0.5478
   51MOL   C21415314   5.772   6.443   2.729  0.1716 -0.1998 -0.2687
   51MOL   O21515315   5.822   6.522   2.651  0.2923  0.2521 -0.1215
   51MOL   O21615316   5.783   6.441   2.860 -0.0406 -0.3963 -0.2249
   51MOL   C21715317   5.855   6.540   2.932 -0.9074  0.2172  0.6085
   51MOL   C21815318   5.780   6.592   3.054 -0.5047 -0.2054  0.1332
   51MOL   H21915319   5.725   6.374   2.481  1.2858 -0.1202  1.5856
   51MOL   H22015320   5.576   6.427   2.538 -0.0257  0.8945  0.8196
   51MOL   H22115321   5.617   6.305   2.755 -0.6532 -0.2947 -0.3627
   51MOL   H22215322   5.956   6.507   2.955 -0.1745  1.2547 -1.0277
   51MOL   H22315323   5.875   6.620   2.862  1.5079 -1.6162 -0.8803
   51MOL   H22415324   5.686   6.645   3.041 -0.4776  0.1466  1.3197
   51MOL   H22515325   5.843   6.666   3.104  2.7925 -0.5640 -3.2612
   51MOL   H22615326   5.751   6.520   3.131  1.6433 -0.3254  0.8735
   51MOL   C22715327   5.783   6.198   2.700  0.8098  1.1175  0.4578
   51MOL   C22815328   5.718   6.098   2.803 -0.2798  0.4469  0.2201
   51MOL   C22915329   5.717   6.149   2.946 -0.1306  0.5775 -0.5405
   51MOL   O23015330   5.615   6.187   3.002 -0.0630  0.0036  0.0966
   51MOL   O23115331   5.838   6.149   2.997 -0.0029  0.7160  0.5983
   51MOL   C23215332   5.854   6.189   3.131  0.3879  1.5500  0.0317
   51MOL   C23315333   5.941   6.099   3.209 -0.1026  0.0071 -0.4655
   51MOL   H23415334   5.796   6.148   2.604 -1.0540 -0.6782  1.0958
   51MOL   H23515335   5.888   6.213   2.725  1.3278 -0.2269 -0.8095
   51MOL   H23615336   5.613   6.088   2.773 -0.7306  2.0936  1.1974
   51MOL   H23715337   5.884   6.294   3.129 -2.0911  2.3429  1.5745
   51MOL   H23815338   5.756   6.179   3.178 -0.1792 -0.1299 -1.4577
   51MOL   H23915339   6.045   6.109   3.180 -0.3040 -2.2630 -2.0299
   51MOL   H24015340   5.900   6.001   3.184  0.1287 -0.4224  0.7753
   51MOL   H24115341   5.936   6.115   3.317 -3.8003 -0.0424 -0.5488
   51MOL   C24215342   5.790   5.961   2.790 -0.0619  0.7712 -0.4984
   51MOL   C24315343   5.726   5.870   2.680 -0.0552  0.1032 -0.8909
   51MOL   C24415344   5.593   5.818   2.727  0.8733 -0.6099 -0.5204
   51MOL   O24515345   5.547   5.855   2.839  0.0129 -0.6881 -0.6189
   51MOL   O24615346   5.524   5.760   2.629 -0.1754 -0.1199 -0.4472
   51MOL   C24715347   5.404   5.691   2.665  0.5060 -0.3985 -0.6037
   51MOL   C24815348   5.438   5.562   2.740  0.8527  0.5644  0.3825
   51MOL   H24915349   5.895   5.987   2.773 -0.3773  1.0652 -1.9707
   51MOL   H25015350   5.798   5.921   2.892  1.9026  0.3416 -0.7938
   51MOL   H25115351   5.704   5.936   2.596  0.3575  0.2770 -0.8630
   51MOL   H25215352   5.341   5.755   2.727  3.6653  0.3875  1.9282
   51MOL   H25315353   5.372   5.661   2.565 -1.1784  0.0427 -0.2187
   51MOL   H25415354   5.346   5.511   2.769  0.1804  0.6928 -1.4052
   51MOL   H25515355   5.498   5.575   2.830 -1.3828 -1.2265  2.1761
   51MOL   H25615356   5.503   5.488   2.693 -0.2011 -0.3145  0.2904
   51MOL   C25715357   5.820   5.758   2.635 -0.0698  0.2034  0.1368
   51MOL   C25815358   5.953   5.798   2.563 -0.6860 -0.9525  0.0282
   51MOL   C25915359   5.933   5.868   2.429  0.1109  0.0419 -0.6125
   51MOL   O26015360   5.869   5.817   2.341 -0.3135  0.1569  0.1388
   51MOL   O26115361   5.995   5.981   2.427 -0.4234 -0.2857 -0.1375
   51MOL   C26215362   5.986   6.056   2.303 -0.6795  0.1513  0.2816
   51MOL   C26315363   6.034   6.195   2.334  0.5782 -0.4228  0.0039
   51MOL   H26415364   5.854   5.723   2.732 -1.1812 -1.5594 -0.0938
   51MOL   H26515365   5.769   5.681   2.578 -0.9585 -1.0114  2.5142
   51MOL   H26615366   6.009   5.870   2.623  1.2858 -1.8977 -0.6324
   51MOL   H26715367   6.054   6.004   2.235 -0.2570  0.7842  0.2224
   51MOL   H26815368   5.886   6.041   2.263  0.1259 -3.0793 -0.6520
   51MOL   H26915369   6.042   6.252   2.241  1.2252 -0.2566  0.1635
   51MOL   H27015370   6.131   6.197   2.383  0.4533  0.7441  0.2102
   51MOL   H27115371   5.963   6.236   2.406  0.2413 -0.8747 -0.0667
   51MOL   C27215372   6.044   5.672   2.535  0.6940 -0.1094 -0.2443
   51MOL   C27315373   6.177   5.673   2.611 -0.3065  0.5385  0.1854
   51MOL   C27415374   6.179   5.632   2.756 -0.3015  0.0035 -1.1406
   51MOL   O27515375   6.233   5.530   2.790  0.6257 -0.3452 -0.6698
   51MOL   O27615376   6.100   5.710   2.835  0.2043 -0.1950  0.0177
   51MOL   C27715377   6.094   5.681   2.974 -0.5027  0.6348  0.6828
   51MOL   C27815378   5.990   5.772   3.040 -0.2132 -0.1265 -0.0532
   51MOL   H27915379   6.001   5.579   2.570  1.3243  0.2587  1.5879
   51MOL   H28015380   6.071   5.656   2.431 -0.6628  0.9621 -0.7754
   51MOL   H28115381   6.235   5.586   2.580  1.5808  1.5455  0.8565
   51MOL   H28215382   6.066   5.577   2.988  1.8358 -0.2156 -0.5977
   51MOL   H28315383   6.194   5.708   3.009 -0.6489 -0.2962  1.8564
   51MOL   H28415384   5.888   5.739   3.020 -0.8118 -0.9338  3.9115
   51MOL   H28515385   6.003   5.875   3.008  0.0588  0.5149  2.0473
   51MOL   H28615386   6.011   5.756   3.146  0.6492  0.8684 -0.0764
   51MOL   C28715387   6.265   5.798   2.591 -0.1212 -0.4323  0.0228
   51MOL   C28815388   6.416   5.764   2.597 -0.3595 -0.6666 -0.1506
   51MOL   C28915389   6.473   5.687   2.477  0.2967  0.0516 -0.9167
   51MOL   O29015390   6.477   5.736   2.364 -0.0668  0.3897 -0.4101
   51MOL   O29115391   6.501   5.561   2.507  0.5733 -0.2734 -0.9321
   51MOL   C29215392   6.535   5.462   2.404 -0.4708  0.2506 -0.8328
   51MOL   C29315393   6.685   5.450   2.413  0.2771  0.4220 -0.0727
   51MOL   H29415394   6.240   5.843   2.495  0.9099 -0.6141 -0.3332
   51MOL   H29515395   6.240   5.879   2.660 -3.0135 -1.8338  0.6772
   51MOL   H29615396   6.463   5.862   2.600 -0.4077 -0.5948 -1.7525
   51MOL   H29715397   6.477   5.372   2.424 -0.5606  0.5788  0.4536
   51MOL   H29815398   6.508   5.497   2.305  0.0298  0.6098 -0.8435
   51MOL   H29915399   6.740   5.542   2.432 -0.2789  1.4524 -3.1201
   51MOL   H30015400   6.731   5.401   2.326  0.7450  0.4665  0.1501
   51MOL   H30115401   6.706   5.379   2.493  0.8632  0.4681 -0.1780
   51MOL   H30215402   6.440   5.723   2.695 -2.0997 -1.1951  0.0737
   52MOL     C115403   1.182   7.223   2.562  0.1030  0.7568 -0.1387
   52MOL     C215404   1.048   7.253   2.631 -0.2957 -0.5195  0.1129
   52MOL     C315405   0.931   7.212   2.534 -0.1415  0.3116  0.2574
   52MOL     O415406   0.851   7.289   2.478  0.0912  0.3022 -0.7231
   52MOL     O515407   0.930   7.078   2.525 -0.6569 -0.0246 -0.1759
   52MOL     C615408   0.818   7.012   2.465 -0.2533 -0.0353  0.0669
   52MOL     C715409   0.740   6.929   2.567 -0.8520  0.0459  1.0068
   52MOL     H815410   1.194   7.118   2.537 -0.7234  1.2902 -3.0046
   52MOL     H915411   1.264   7.251   2.629 -0.3287  0.2923  0.5825
   52MOL    H1015412   1.029   7.194   2.720 -0.9852  2.0749  1.7241
   52MOL    H1115413   0.757   7.091   2.423 -1.1743 -0.1047  1.2323
   52MOL    H1215414   0.846   6.953   2.378  1.2993  0.6255  0.0899
   52MOL    H1315415   0.647   6.892   2.523 -0.7184  1.0640 -0.1556
   52MOL    H1415416   0.710   6.981   2.658 -1.0174  3.3098 -0.8312
   52MOL    H1515417   0.794   6.842   2.604  0.2322  1.1770  2.1152
   52MOL    H1615418   1.194   7.276   2.467 -1.7338  0.1082 -0.7433
   52MOL    C1715419   1.025   7.403   2.681 -0.1258  0.6103 -0.0935
   52MOL    C1815420   1.109   7.441   2.802  0.3556 -0.0299 -0.1373
   52MOL    C1915421   1.071   7.351   2.928 -0.6945  0.9142 -0.0022
   52MOL    O2015422   1.152   7.272   2.983  0.8721  0.0314 -0.5617
   52MOL    O2115423   0.951   7.365   2.968 -0.5185  0.0453 -0.1089
   52MOL    C2215424   0.904   7.276   3.070  0.8829  0.0129 -0.0823
   52MOL    C2315425   0.766   7.225   3.031  0.2355  0.3739  0.3499
   52MOL    H2415426   1.044   7.471   2.598  1.8538 -0.0617 -0.2375
   52MOL    H2515427   0.921   7.417   2.708 -0.6884 -1.0612 -1.2803
   52MOL    H2615428   1.215   7.427   2.780  0.4393 -4.6869  2.6004
   52MOL    H2715429   0.972   7.194   3.087 -2.1402 -2.3803  0.9474
   52MOL    H2815430   0.896   7.337   3.161  0.6072 -0.3240  0.1201
   52MOL    H2915431   0.775   7.154   2.949 -0.4554 -1.0639  1.4955
   52MOL    H3015432   0.696   7.306   3.013 -0.9949 -0.3783  1.6487
   52MOL    H3115433   0.728   7.161   3.111 -1.6080 -0.7979 -1.4256
   52MOL    C3215434   1.097   7.593   2.834 -0.2412 -0.1721  0.0999
   52MOL    C3315435   1.178   7.648   2.952  0.4267 -0.2578  0.3518
   52MOL    C3415436   1.082   7.737   3.027 -0.2012 -0.1731  0.3041
   52MOL    O3515437   1.089   7.861   3.016  0.4779  0.1214 -0.6235
   52MOL    O3615438   1.001   7.663   3.108  0.2855 -0.3343  0.2538
   52MOL    C3715439   0.909   7.736   3.193  0.0607 -0.4519  0.1855
   52MOL    C3815440   0.979   7.763   3.323 -0.3034 -0.4076  0.0342
   52MOL    H3915441   1.138   7.643   2.746  1.2645 -1.1947  0.2176
   52MOL    H4015442   0.990   7.616   2.834 -0.6368 -2.0019  0.0935
   52MOL    H4115443   1.194   7.561   3.015  0.7275 -1.0389 -0.7805
   52MOL    H4215444   0.879   7.835   3.158  0.2551 -0.0858  1.0342
   52MOL    H4315445   0.812   7.685   3.193  0.2816 -0.8712  0.6981
   52MOL    H4415446   0.917   7.831   3.381  0.5959  1.3617 -1.0366
   52MOL    H4515447   1.077   7.809   3.306 -0.2345 -0.4445  0.3400
   52MOL    H4615448   1.008   7.670   3.371  2.0307 -1.2142 -2.7408
   52MOL    C4715449   1.318   7.706   2.913 -0.5932  0.0837 -1.0399
   52MOL    C4815450   1.406   7.768   3.022 -0.3294 -0.3195  0.2251
   52MOL    C4915451   1.522   7.860   2.964 -0.5027 -0.0695  0.9338
   52MOL    O5015452   1.554   7.857   2.845 -0.2162 -0.1026 -0.0932
   52MOL    O5115453   1.587   0.014   3.065 -0.3309 -0.4080  0.5191
   52MOL    C5215454   1.695   0.100   3.042  0.1960 -0.4919 -0.1058
   52MOL    C5315455   1.655   0.250   3.016  0.1783 -0.1341  0.4287
   52MOL    H5415456   1.389   7.632   2.874  1.2441 -0.5360  3.2001
   52MOL    H5515457   1.303   7.782   2.837  1.5868  0.6514 -0.9497
   52MOL    H5615458   1.340   7.835   3.077 -0.5801 -0.2338 -0.1754
   52MOL    H5715459   1.769   0.086   3.121  0.9165  1.0082 -0.4931
   52MOL    H5815460   1.744   0.066   2.950 -0.0504 -1.6724  0.1839
   52MOL    H5915461   1.629   0.299   3.109  1.9866  0.4395  0.6462
   52MOL    H6015462   1.571   0.250   2.946  0.9286 -2.9889 -0.5637
   52MOL    H6115463   1.740   0.309   2.981  1.6203 -2.3568  0.0528
   52MOL    C6215464   1.462   7.659   3.116  0.0581 -0.7541 -0.4959
   52MOL    C6315465   1.598   7.589   3.090  0.5843  0.3175  0.0551
   52MOL    C6415466   1.584   7.488   2.978  0.3202 -0.1096  0.5825
   52MOL    O6515467   1.641   7.512   2.869 -0.8280  0.4531  0.1754
   52MOL    O6615468   1.507   7.378   3.002 -0.4624  0.1546 -0.3614
   52MOL    C6715469   1.492   7.279   2.891 -0.0820  0.4442 -0.6930
   52MOL    C6815470   1.488   7.139   2.948 -0.2597  0.2502 -0.6674
   52MOL    H6915471   1.462   7.702   3.216  0.4655 -1.6798 -0.0886
   52MOL    H7015472   1.383   7.584   3.127 -1.5786  1.3019  2.4383
   52MOL    H7115473   1.674   7.656   3.049 -0.8211  2.3875  0.7684
   52MOL    H7215474   1.393   7.288   2.847  0.3802 -0.7160 -2.0078
   52MOL    H7315475   1.569   7.289   2.815 -0.1143  0.1355 -0.7686
   52MOL    H7415476   1.589   7.115   2.982  1.0184  3.2650 -2.0969
   52MOL    H7515477   1.455   7.069   2.871 -1.2495  0.7974 -0.7359
   52MOL    H7615478   1.419   7.133   3.032  0.0485  1.9154 -0.2883
   52MOL    C7715479   1.654   7.517   3.214 -0.3191 -0.2392 -0.0132
   52MOL    C7815480   1.754   7.611   3.294 -0.8969 -0.2991  0.5098
   52MOL    C7915481   1.888   7.639   3.220  1.0441 -0.0018 -0.2086
   52MOL    O8015482   1.916   7.755   3.176 -0.5929 -0.4552 -0.3164
   52MOL    O8115483   1.972   7.529   3.207  0.1498 -0.0153 -0.1721
   52MOL    C8215484   2.084   7.528   3.123 -0.2594 -0.5895  0.3331
   52MOL    C8315485   2.205   7.532   3.207 -0.1784  0.8524  0.2640
   52MOL    H8415486   1.574   7.477   3.276  1.8210 -0.5740  2.6732
   52MOL    H8515487   1.719   7.432   3.192  1.3732  0.5094  1.9207
   52MOL    H8615488   1.706   7.708   3.279 -0.4925 -0.3072 -0.8297
   52MOL    H8715489   2.069   7.435   3.069 -2.7081 -0.6529  1.0618
   52MOL    H8815490   2.085   7.606   3.046 -0.5058 -0.5177  0.4031
   52MOL    H8915491   2.290   7.504   3.145 -0.4534  1.7372 -0.5189
   52MOL    H9015492   2.204   7.461   3.289 -2.5750  2.1355  1.4046
   52MOL    H9115493   2.236   7.629   3.247 -0.9126  0.7145  1.1941
   52MOL    C9215494   1.775   7.570   3.443  0.5624 -0.2164 -0.0223
   52MOL    C9315495   1.847   7.682   3.534 -0.0517  0.2868  0.2601
   52MOL    C9415496   1.971   7.630   3.606 -0.7782  0.7674 -0.4439
   52MOL    O9515497   1.997   7.657   3.720 -0.0101 -0.4375  0.1750
   52MOL    O9615498   2.056   7.557   3.525  0.6381  0.3796 -0.3311
   52MOL    C9715499   2.172   7.492   3.560 -0.0003  0.1990 -0.2640
   52MOL    C9815500   2.138   7.340   3.583 -0.6536  0.3447 -1.1474
   52MOL    H9915501   1.671   7.570   3.476  0.6836  0.7628  0.3804
   52MOL   H10015502   1.822   7.472   3.454  0.2643 -0.1824  1.6609
   52MOL   H10115503   1.881   7.764   3.471  0.4081 -2.0025 -2.5262
   52MOL   H10215504   2.246   7.511   3.482 -0.3734 -0.6206 -0.8212
   52MOL   H10315505   2.206   7.553   3.644  1.1493  0.4634 -0.9100
   52MOL   H10415506   2.105   7.306   3.681  0.8629 -1.2159 -1.1617
   52MOL   H10515507   2.212   7.267   3.551 -1.4702 -1.4575  0.9442
   52MOL   H10615508   2.058   7.323   3.511  0.7699  1.5262 -3.0586
   52MOL   C10715509   1.740   7.749   3.626  0.5168  0.3925  0.0739
   52MOL   C10815510   1.619   7.824   3.568  0.5090 -0.1001  0.2385
   52MOL   C10915511   1.661   0.052   3.522  0.2047  0.0011 -0.1181
   52MOL   O11015512   1.649   0.085   3.403 -0.0588 -0.2052  0.4315
   52MOL   O11115513   1.712   0.134   3.620 -0.3506 -0.1058  0.2768
   52MOL   C11215514   1.754   0.268   3.599  0.1826  0.0143  0.0178
   52MOL   C11315515   1.881   0.275   3.522 -0.1951  0.0321 -0.2163
   52MOL   H11415516   1.709   7.667   3.691  2.5073  0.7437  1.5203
   52MOL   H11515517   1.787   7.821   3.693  0.2591 -0.7910  1.5546
   52MOL   H11615518   1.607   7.767   3.476  0.4731 -0.6997  0.6136
   52MOL   H11715519   1.665   0.312   3.554  0.1223 -0.0258  0.0996
   52MOL   H11815520   1.770   0.317   3.695 -1.0240  2.0315 -0.7791
   52MOL   H11915521   1.928   0.372   3.537  0.3601 -0.3198  0.3295
   52MOL   H12015522   1.861   0.253   3.417  0.1970 -1.6372  0.0394
   52MOL   H12115523   1.943   0.199   3.570  1.0003  0.0774 -1.6293
   52MOL   C12215524   1.484   7.821   3.644  0.0548  0.0723 -0.3340
   52MOL   C12315525   1.430   7.688   3.691 -0.4150  0.1939  0.1013
   52MOL   C12415526   1.392   7.599   3.570 -0.1576  0.0591  0.0982
   52MOL   O12515527   1.413   7.632   3.454 -0.1573 -1.1972  0.8174
   52MOL   O12615528   1.342   7.471   3.601 -0.0490  0.1347  0.0354
   52MOL   C12715529   1.299   7.382   3.497  0.5597  0.3551  0.1658
   52MOL   C12815530   1.183   7.443   3.426  0.2019  0.1561 -0.0477
   52MOL   H12915531   1.504   7.883   3.731 -1.6266 -0.8635  0.7330
   52MOL   H13015532   1.418   7.882   3.583 -1.4916  0.6447  1.8528
   52MOL   H13115533   1.507   7.636   3.749 -0.8006  0.3270  0.7319
   52MOL   H13215534   1.381   7.365   3.427 -0.2543 -0.9089 -0.4957
   52MOL   H13315535   1.272   7.291   3.550 -0.3380  0.2267 -0.4995
   52MOL   H13415536   1.108   7.484   3.493 -0.0799  2.9536 -1.9880
   52MOL   H13515537   1.148   7.370   3.353  3.5886 -1.6202 -0.0277
   52MOL   H13615538   1.210   7.526   3.361  1.2073 -1.9530 -2.4236
   52MOL   C13715539   1.327   7.705   3.804  0.2784  1.0200  0.5819
   52MOL   C13815540   1.177   7.727   3.758  0.0905  0.2995 -0.0854
   52MOL   C13915541   1.144   7.872   3.726 -0.2274 -0.3285 -0.2141
   52MOL   O14015542   1.200   0.050   3.787  0.2295 -0.6601  0.0130
   52MOL   O14115543   1.069   7.891   3.621 -0.3917 -0.2361  0.0273
   52MOL   C14215544   1.012   0.115   3.605 -0.6767  0.1615 -0.2142
   52MOL   C14315545   0.881   0.124   3.689  0.7646 -0.7240  0.1258
   52MOL   H14415546   1.340   7.616   3.865 -2.1110 -0.0147 -0.3416
   52MOL   H14515547   1.356   7.780   3.877 -1.5259 -0.1247  2.5391
   52MOL   H14615548   1.144   7.678   3.667 -2.6081 -0.2179  1.1329
   52MOL   H14715549   1.087   0.186   3.639 -0.1330 -0.5973  0.1629
   52MOL   H14815550   0.996   0.137   3.499 -1.2169 -1.8411 -0.5692
   52MOL   H14915551   0.833   0.222   3.680 -1.8240 -1.6799  2.8064
   52MOL   H15015552   0.896   0.127   3.797 -1.4943  0.2111  0.4394
   52MOL   H15115553   0.802   0.061   3.651 -1.5975  2.3618 -0.3150
   52MOL   C15215554   1.093   7.671   3.882  0.3082  0.5263 -0.1639
   52MOL   C15315555   0.938   7.666   3.854 -0.1379 -0.4130 -0.1440
   52MOL   C15415556   0.869   7.660   3.989  0.1413 -0.2467  0.2306
   52MOL   O15515557   0.806   7.754   4.029  0.6421  0.0300  0.1076
   52MOL   O15615558   0.880   7.540   4.053 -0.6135  0.1165 -0.1948
   52MOL   C15715559   0.842   7.525   4.193  0.2769 -0.4390 -0.2420
   52MOL   C15815560   0.729   7.415   4.203  0.0147 -0.5344  0.3913
   52MOL   H15915561   1.124   7.570   3.910 -2.9347 -0.4514  0.1157
   52MOL   H16015562   1.111   7.741   3.963 -2.9266  0.6280  0.5207
   52MOL   H16115563   0.905   7.762   3.815 -1.0095 -0.4301  0.5489
   52MOL   H16215564   0.928   7.503   4.256  1.5626  0.2911 -1.6849
   52MOL   H16315565   0.812   7.621   4.237  0.4118 -1.3244  1.8499
   52MOL   H16415566   0.765   7.314   4.182 -1.8875 -1.1422 -0.0752
   52MOL   H16515567   0.654   7.437   4.127 -1.2569  0.0546  1.7871
   52MOL   H16615568   0.671   7.416   4.295 -0.6087 -2.3883  0.0351
   52MOL   C16715569   0.883   7.551   3.760 -0.0412 -0.3734  0.0566
   52MOL   C16815570   0.735   7.565   3.732 -0.1605  0.5432 -0.5644
   52MOL   C16915571   0.682   7.430   3.674  0.6007  1.1598 -0.2482
   52MOL   O17015572   0.626   7.342   3.743 -0.2255  0.0276  0.0055
   52MOL   O17115573   0.721   7.417   3.548 -0.4806  0.1227 -0.7205
   52MOL   C17215574   0.687   7.307   3.474 -0.4890 -0.0567 -0.3291
   52MOL   C17315575   0.594   7.349   3.355 -0.2321  0.7777  0.4368
   52MOL   H17415576   0.948   7.557   3.673  0.8212 -0.5345  0.6903
   52MOL   H17515577   0.908   7.452   3.799  0.4012 -0.5485 -0.6608
   52MOL   H17615578   0.688   7.569   3.830  2.1383  2.9467  0.4913
   52MOL   H17715579   0.781   7.270   3.432  0.3984 -0.3710  1.8595
   52MOL   H17815580   0.638   7.236   3.540  1.2140  0.4328  1.4916
   52MOL   H17915581   0.505   7.398   3.393 -1.5758 -2.0166  1.0157
   52MOL   H18015582   0.564   7.264   3.294 -0.4747  0.3910  1.0907
   52MOL   H18115583   0.641   7.417   3.283  2.0008  0.0202  1.1336
   52MOL   C18215584   0.682   7.687   3.665 -0.4516  0.3137 -0.5269
   52MOL   C18315585   0.532   7.721   3.673 -0.0694 -0.2608 -0.0779
   52MOL   C18415586   0.471   7.667   3.542 -0.0217  0.3561 -0.6131
   52MOL   O18515587   0.362   7.608   3.539 -0.0989  0.0984  0.5566
   52MOL   O18615588   0.527   7.723   3.432  0.2510  0.8073 -0.3820
   52MOL   C18715589   0.449   7.737   3.314  0.3996  0.1894 -0.8682
   52MOL   C18815590   0.516   7.856   3.235  0.1348 -0.3140 -0.1607
   52MOL   H18915591   0.730   7.774   3.710 -0.5148 -0.7505  1.6225
   52MOL   H19015592   0.720   7.687   3.562  2.0439 -0.2479  0.3652
   52MOL   H19115593   0.489   7.670   3.759  1.4539  0.9447  1.4085
   52MOL   H19215594   0.457   7.655   3.242  0.6498 -0.3853 -0.1925
   52MOL   H19315595   0.348   7.769   3.340  0.8413 -1.4967  3.4050
   52MOL   H19415596   0.618   7.833   3.204  1.4201  1.9542  2.2188
   52MOL   H19515597   0.533   0.032   3.301  0.6757 -0.2992 -0.3104
   52MOL   H19615598   0.452   7.889   3.153  3.5537  3.1338 -1.6271
   52MOL   C19715599   0.510   7.872   3.694 -0.0509  0.0372  0.0477
   52MOL   C19815600   0.370   0.027   3.723 -0.3215  0.3797 -0.3773
   52MOL   C19915601   0.298   7.849   3.828 -0.1500  0.2302  0.2263
   52MOL   O20015602   0.297   7.879   3.943 -0.4917 -0.3185 -0.2051
   52MOL   O20115603   0.215   7.751   3.774 -0.4029 -0.0318  0.8491
   52MOL   C20215604   0.119   7.683   3.851 -0.2839  0.1365 -0.0198
   52MOL   C20315605   7.903   7.770   3.877  0.5780  0.0877  0.3428
   52MOL   H20415606   0.583   7.908   3.767  0.3672 -0.5171 -0.0946
   52MOL   H20515607   0.534   0.007   3.597 -1.5568 -1.3390 -0.9592
   52MOL   H20615608   0.379   0.122   3.775 -0.1748 -1.1436  2.5401
   52MOL   H20715609   0.085   7.597   3.792  1.9678 -0.4754 -0.4732
   52MOL   H20815610   0.162   7.631   3.937 -0.2422 -1.2446 -0.8629
   52MOL   H20915611   0.002   7.861   3.936  0.8410  1.4242 -1.6861
   52MOL   H21015612   7.827   7.709   3.926 -0.3998  1.6000  0.7307
   52MOL   H21115613   7.868   7.808   3.781  1.8763  1.2097  0.2905
   52MOL   C21215614   0.271   0.054   3.602  0.0825 -0.1622 -0.1469
   52MOL   C21315615   0.140   0.141   3.617  0.0857  0.1014 -0.4991
   52MOL   C21415616   0.043   0.122   3.496 -0.3393 -0.1363 -0.9227
   52MOL   O21515617   0.055   0.188   3.393 -0.1471  0.3711  0.1183
   52MOL   O21615618   7.843   0.045   3.520 -0.3935  0.3434  0.0655
   52MOL   C21715619   7.754   0.011   3.424  0.1747  0.2389 -0.3255
   52MOL   C21815620   7.663   7.807   3.471  0.0022 -0.7688  0.9352
   52MOL   H21915621   0.337   0.089   3.523 -0.1553 -3.2524 -1.8142
   52MOL   H22015622   0.239   7.865   3.565 -2.0976 -0.0001  1.2644
   52MOL   H22115623   0.095   0.109   3.711  0.9848  1.3960  0.3942
   52MOL   H22215624   7.698   0.100   3.395  0.2675 -0.9814 -4.6431
   52MOL   H22315625   7.806   7.900   3.330  0.2966 -0.3261 -0.1440
   52MOL   H22415626   7.732   7.735   3.515  1.2370 -1.2070 -1.6184
   52MOL   H22515627   7.608   7.758   3.391  1.1529  1.0579 -1.0119
   52MOL   H22615628   7.590   7.842   3.544  0.9638 -0.0430  1.5581
   52MOL   C22715629   0.167   0.288   3.648  0.6507 -0.0685 -0.1337
   52MOL   C22815630   0.047   0.385   3.650  0.0502  0.1253  0.5329
   52MOL   C22915631   0.091   0.534   3.656  0.5677 -0.5415  0.1511
   52MOL   O23015632   0.024   0.616   3.590  0.3603  0.0070  0.1722
   52MOL   O23115633   0.197   0.558   3.731 -0.7349 -0.2230 -0.1939
   52MOL   C23215634   0.241   0.693   3.753 -0.0409  0.3168 -0.1304
   52MOL   C23315635   0.177   0.757   3.875  0.0451  0.2327  0.0555
   52MOL   H23415636   0.221   0.303   3.742  0.8632  2.4733 -0.6348
   52MOL   H23515637   0.242   0.328   3.580  3.1837 -1.2949  1.8463
   52MOL   H23615638   7.891   0.371   3.563 -1.6949  2.1616  1.4491
   52MOL   H23715639   0.344   0.683   3.787 -0.3770  0.0919  0.8281
   52MOL   H23815640   0.226   0.758   3.667 -0.5281 -1.9494 -1.8285
   52MOL   H23915641   0.230   0.847   3.905  0.1326 -0.1414  1.0722
   52MOL   H24015642   0.174   0.686   3.958 -1.2021 -2.6560 -2.3527
   52MOL   H24115643   0.073   0.781   3.852 -0.2356  0.4690  1.4780
   52MOL   C24215644   7.864   0.353   3.767  0.4215  0.2780 -0.7942
   52MOL   C24315645   7.721   0.418   3.765 -0.3588  0.1617 -0.6163
   52MOL   C24415646   7.676   0.434   3.907  0.0938 -0.5686  0.4743
   52MOL   O24515647   7.590   0.359   3.960  0.0542  0.4437  0.4347
   52MOL   O24615648   7.737   0.548   3.958 -0.0322 -0.0356  0.2966
   52MOL   C24715649   7.721   0.562   4.097  0.1462  0.6197 -0.1513
   52MOL   C24815650   7.785   0.690   4.151  0.4121 -0.3467  0.0922
   52MOL   H24915651   7.841   0.247   3.780  0.7476  0.0517 -1.9467
   52MOL   H25015652   0.013   0.374   3.857 -2.2643  1.3216  0.7316
   52MOL   H25115653   7.731   0.519   3.727 -0.1754  1.1009  1.8412
   52MOL   H25215654   7.614   0.573   4.119  0.8867  0.9867  3.5505
   52MOL   H25315655   7.766   0.473   4.139  0.7978  2.3943  3.0162
   52MOL   H25415656   7.753   0.695   4.255 -2.2009 -0.8087 -0.6654
   52MOL   H25515657   7.740   0.781   4.111  2.3913 -0.2959 -2.1546
   52MOL   H25615658   7.894   0.691   4.139  0.2068  1.5407 -1.9158
   52MOL   C25715659   7.622   0.349   3.674  0.4355 -0.1981 -0.1116
   52MOL   C25815660   7.473   0.395   3.677  0.7865  0.2852  0.6255
   52MOL   C25915661   7.381   0.281   3.614  0.3985  0.0468 -0.2492
   52MOL   O26015662   7.326   0.198   3.679  0.3390 -0.0787 -0.0377
   52MOL   O26115663   7.395   0.287   3.485 -0.0327  0.0782  0.4033
   52MOL   C26215664   7.318   0.184   3.415 -0.0996  0.2601 -0.7493
   52MOL   C26315665   7.295   0.223   3.267  0.2709 -0.4284 -0.1165
   52MOL   H26415666   7.650   0.352   3.568  0.7996  0.6822  0.0003
   52MOL   H26515667   7.637   0.244   3.695  0.3182  0.1689  1.9058
   52MOL   H26615668   7.448   0.390   3.783 -1.4177 -0.0207  0.1283
   52MOL   H26715669   7.362   0.085   3.429  0.3181  0.2773 -1.8580
   52MOL   H26815670   7.222   0.167   3.463  1.0345 -0.9909  1.1309
   52MOL   H26915671   7.387   0.263   3.224 -0.3006 -0.3769 -1.3136
   52MOL   H27015672   7.212   0.293   3.264 -1.8199 -2.8229  0.4333
   52MOL   H27115673   7.279   0.136   3.203  0.6571 -1.1769  0.7803
   52MOL   C27215674   7.447   0.536   3.633 -0.1354 -0.7264  0.1239
   52MOL   C27315675   7.301   0.576   3.669  0.0073  0.5637  0.2319
   52MOL   C27415676   7.237   0.628   3.538 -0.3116 -0.3465 -0.0864
   52MOL   O27515677   7.272   0.740   3.490  0.0623  0.4933  0.1632
   52MOL   O27615678   7.145   0.541   3.487 -0.2787 -0.5368  0.3709
   52MOL   C27715679   7.115   0.547   3.349  0.1882  0.2553 -0.2864
   52MOL   C27815680   6.982   0.478   3.305 -0.4669  0.4517 -0.0755
   52MOL   H27915681   7.516   0.604   3.681 -0.3722 -0.2387 -0.2215
   52MOL   H28015682   7.480   0.539   3.529  0.5006 -2.2265  0.2596
   52MOL   H28115683   7.246   0.484   3.687  0.4046 -0.1444 -2.0107
   52MOL   H28215684   7.099   0.653   3.329 -0.3646 -0.1939 -2.3651
   52MOL   H28315685   7.206   0.517   3.297 -0.0514 -0.3524 -0.3603
   52MOL   H28415686   6.897   0.496   3.371 -1.1097  0.8904 -1.0095
   52MOL   H28515687   7.011   0.374   3.295  1.7993  1.2465 -2.2065
   52MOL   H28615688   6.942   0.501   3.207  0.6499  0.2481 -0.5851
   52MOL   C28715689   7.293   0.677   3.787 -0.8067 -0.6026 -0.3759
   52MOL   C28815690   7.352   0.623   3.909 -0.6333  0.1058 -0.6946
   52MOL   C28915691   7.258   0.533   3.986  0.0401  0.3303 -0.2946
   52MOL   O29015692   7.186   0.455   3.927  0.0758 -0.5340 -0.6069
   52MOL   O29115693   7.260   0.555   4.124  0.4705 -0.2651 -0.2482
   52MOL   C29215694   7.180   0.471   4.201 -0.2673 -0.5689  0.0956
   52MOL   C29315695   7.188   0.518   4.350 -0.5405 -0.3688  0.1171
   52MOL   H29415696   7.354   0.764   3.763  0.0253 -1.4694 -1.4348
   52MOL   H29515697   7.193   0.708   3.818 -0.7089 -1.7802  1.1842
   52MOL   H29615698   7.444   0.565   3.897  0.3230  1.4733 -0.1695
   52MOL   H29715699   7.082   0.469   4.153  0.3370  0.2877 -1.2083
   52MOL   H29815700   7.232   0.377   4.182  1.3259  0.6535 -1.7843
   52MOL   H29915701   7.138   0.454   4.422  0.6823  0.3121  1.6107
   52MOL   H30015702   7.146   0.619   4.358  0.5647  0.1372 -0.3051
   52MOL   H30115703   7.293   0.531   4.377 -0.3246  0.8008 -1.1799
   52MOL   H30215704   7.383   0.695   3.985 -0.5482  0.7546 -1.3344
   53MOL     C115705   7.907   7.315   5.975  0.9082  0.5738 -0.1384
   53MOL     C215706   7.824   7.282   6.103 -1.1723 -0.4635 -0.7649
   53MOL     C315707   7.702   7.375   6.084 -0.0544 -0.8344  0.4648
   53MOL     O415708   7.609   7.342   6.015 -0.1404 -0.2636 -0.4933
   53MOL     O515709   7.724   7.503   6.119 -0.4521  0.0724 -0.1901
   53MOL     C615710   7.619   7.599   6.105  0.2413  0.3334  0.0485
   53MOL     C715711   7.676   7.726   6.165  0.0662  0.0821  0.2025
   53MOL     H815712   0.046   7.411   5.997 -1.1347  0.8431  3.5015
   53MOL     H915713   7.862   7.326   5.876 -0.8934 -0.7657  0.5167
   53MOL    H1015714   7.787   7.181   6.083 -0.5238 -1.0477  0.9462
   53MOL    H1115715   7.579   7.623   6.007 -0.7463  0.1096  0.3875
   53MOL    H1215716   7.540   7.565   6.172  0.8576 -0.9944  0.1027
   53MOL    H1315717   7.760   7.751   6.100 -1.2821  2.2079 -0.7697
   53MOL    H1415718   7.707   7.720   6.269 -0.1872  1.3350  0.3535
   53MOL    H1515719   7.599   7.802   6.164 -1.5261 -1.4906  0.8153
   53MOL    H1615720   0.077   7.240   5.962 -0.1851 -0.7129  0.5528
   53MOL    C1715721   7.900   7.305   6.233 -0.1873 -0.4556  0.4383
   53MOL    C1815722   0.126   7.228   6.246  0.2996  0.0741  0.1659
   53MOL    C1915723   0.099   7.072   6.249  0.3472  0.3174  0.4715
   53MOL    O2015724   0.155   7.001   6.168  0.1957 -0.1066 -0.2605
   53MOL    O2115725   0.018   7.040   6.354 -0.4254 -0.4859 -0.7907
   53MOL    C2215726   7.901   6.905   6.385  0.2964  0.9881  0.5495
   53MOL    C2315727   0.101   6.856   6.478  0.1692  0.6114  0.5788
   53MOL    H2415728   0.018   7.410   6.245 -0.0170  0.0711 -3.6751
   53MOL    H2515729   7.833   7.269   6.311 -1.0431 -0.7318 -0.4138
   53MOL    H2615730   0.181   7.251   6.156 -0.8027 -2.3807 -1.1884
   53MOL    H2715731   7.803   6.896   6.431 -0.0647  0.6308 -0.2758
   53MOL    H2815732   7.900   6.846   6.293  0.7858  1.8452 -0.0156
   53MOL    H2915733   0.099   6.897   6.579 -2.3432  0.2349  0.7233
   53MOL    H3015734   0.205   6.858   6.445  0.1113 -0.0325  0.3546
   53MOL    H3115735   0.078   6.749   6.481 -0.4484  0.7646  1.5023
   53MOL    C3215736   0.199   7.283   6.372  0.0947 -0.4655  0.2085
   53MOL    C3315737   0.338   7.219   6.403 -0.1899  0.5583  0.1327
   53MOL    C3415738   0.390   7.268   6.543 -0.6118  0.0333 -1.1866
   53MOL    O3515739   0.414   7.179   6.633 -0.4877  0.3197  0.2614
   53MOL    O3615740   0.404   7.398   6.545 -0.1524 -0.1956  0.1480
   53MOL    C3715741   0.444   7.468   6.666  0.0181  0.4424  0.3707
   53MOL    C3815742   0.340   7.480   6.771  0.4638  0.3434 -0.2584
   53MOL    H3915743   0.201   7.392   6.367  0.7204 -0.4214  1.2021
   53MOL    H4015744   0.137   7.252   6.456  0.4376 -2.0400 -0.1073
   53MOL    H4115745   0.319   7.112   6.410  0.0539  0.3139 -2.3425
   53MOL    H4215746   0.543   7.439   6.701 -0.3548 -1.0135  0.2412
   53MOL    H4315747   0.460   7.573   6.641 -0.5429  0.1588 -1.2504
   53MOL    H4415748   0.289   7.576   6.767 -2.2321 -1.0157  0.1056
   53MOL    H4515749   0.383   7.473   6.871  0.5216 -0.5443 -0.3449
   53MOL    H4615750   0.268   7.398   6.759  0.6628  0.2020 -0.4885
   53MOL    C4715751   0.442   7.234   6.292 -0.4488  0.0543 -0.0275
   53MOL    C4815752   0.482   7.375   6.253  0.3639  0.3064 -0.6145
   53MOL    C4915753   0.411   7.431   6.134  0.3666 -1.0947  0.0050
   53MOL    O5015754   0.420   7.378   6.028 -0.1173  0.5647  0.4647
   53MOL    O5115755   0.336   7.541   6.160  0.2038 -0.1386  0.0027
   53MOL    C5215756   0.266   7.610   6.057 -0.1785 -0.3933  0.1843
   53MOL    C5315757   0.148   7.688   6.105  0.6127 -0.0901 -0.1265
   53MOL    H5415758   0.531   7.178   6.321 -1.4767 -1.3470  0.5061
   53MOL    H5515759   0.413   7.187   6.198 -1.7761 -0.2711  0.5214
   53MOL    H5615760   0.463   7.441   6.337 -0.8831 -0.8258  0.0104
   53MOL    H5715761   0.340   7.671   6.005  1.5311 -1.8262  0.8849
   53MOL    H5815762   0.237   7.540   5.979  2.0161 -1.6427  0.4396
   53MOL    H5915763   0.107   7.749   6.024  1.0134 -1.6464 -1.5097
   53MOL    H6015764   0.204   7.747   6.178 -0.6112  0.2980  0.5196
   53MOL    H6115765   0.072   7.629   6.156  1.2317 -1.4337 -0.7567
   53MOL    C6215766   0.632   7.391   6.239  0.2481  1.5125 -0.4496
   53MOL    C6315767   0.694   7.535   6.224 -0.4335  0.3582  0.5313
   53MOL    C6415768   0.835   7.529   6.156 -0.6744 -0.8512 -0.0705
   53MOL    O6515769   0.875   7.611   6.069  0.5990  0.1138 -0.2415
   53MOL    O6615770   0.904   7.423   6.197 -0.1104 -0.3656  0.5834
   53MOL    C6715771   1.034   7.397   6.150  0.6722 -0.0767 -0.0687
   53MOL    C6815772   1.113   7.297   6.235 -0.1953  0.5902  0.0520
   53MOL    H6915773   0.674   7.348   6.330 -0.7177 -0.7633 -1.0461
   53MOL    H7015774   0.665   7.325   6.159 -4.8232 -2.1062  0.2056
   53MOL    H7115775   0.645   7.594   6.147  0.0647  0.1087  0.0145
   53MOL    H7215776   1.029   7.381   6.042  0.0036 -0.0282 -0.0454
   53MOL    H7315777   1.080   7.494   6.169  0.9884 -0.1910 -0.2373
   53MOL    H7415778   1.215   7.278   6.201 -0.4540 -0.7428  0.0114
   53MOL    H7515779   1.060   7.202   6.231 -1.0891  1.1137 -0.7632
   53MOL    H7615780   1.125   7.326   6.339  0.5805 -1.0139  0.4146
   53MOL    C7715781   0.691   7.611   6.355  0.1338  0.1622  0.2871
   53MOL    C7815782   0.730   7.761   6.348 -0.3153 -0.6409  0.1017
   53MOL    C7915783   0.756   7.811   6.495 -0.2416  0.0615 -0.4691
   53MOL    O8015784   0.863   7.842   6.538 -0.2820  0.3497  0.5603
   53MOL    O8115785   0.645   7.823   6.563  0.3375 -0.4686 -0.2835
   53MOL    C8215786   0.631   0.012   6.670  0.2291 -0.4856  0.4624
   53MOL    C8315787   0.659   0.162   6.648 -0.0777  0.6374 -0.1157
   53MOL    H8415788   0.589   7.610   6.392 -0.4630 -0.9649 -1.3615
   53MOL    H8515789   0.730   7.550   6.437 -1.3796 -0.6221  0.4373
   53MOL    H8615790   0.824   7.766   6.294  0.6665  1.2190  1.8742
   53MOL    H8715791   0.525   0.003   6.696  0.2370 -0.6581  0.4346
   53MOL    H8815792   0.701   7.888   6.747  1.8783  1.2557 -0.2827
   53MOL    H8915793   0.749   0.187   6.592  1.1551  2.1835  2.5012
   53MOL    H9015794   0.656   0.208   6.746 -1.8174 -0.2083  0.2508
   53MOL    H9115795   0.584   0.196   6.576 -0.5630 -0.5083 -0.1577
   53MOL    C9215796   0.622   7.844   6.277  0.3553 -0.6982 -0.2444
   53MOL    C9315797   0.687   0.034   6.170 -0.3184  0.1769  0.1171
   53MOL    C9415798   0.736   0.165   6.252 -0.3530  0.1884  0.4365
   53MOL    O9515799   0.672   0.206   6.350  0.4552 -0.1609 -0.0309
   53MOL    O9615800   0.851   0.223   6.199  0.2268 -0.3888  0.3620
   53MOL    C9715801   0.913   0.320   6.271 -0.2565  0.2836  0.1654
   53MOL    C9815802   0.868   0.458   6.223 -0.1087 -0.4367  0.2354
   53MOL    H9915803   0.558   7.776   6.222  0.0895 -0.4630 -0.2275
   53MOL   H10015804   0.552   7.895   6.344 -0.3187  1.1850 -2.3022
   53MOL   H10115805   0.776   7.891   6.133 -0.5836  0.5769 -1.0767
   53MOL   H10215806   0.899   0.312   6.379 -1.2978  0.9154  0.0793
   53MOL   H10315807   1.018   0.301   6.251  0.3128  2.1399  1.2851
   53MOL   H10415808   0.921   0.536   6.279  0.2559 -0.3389 -0.2438
   53MOL   H10515809   0.765   0.483   6.248  0.0659  0.2003  0.3377
   53MOL   H10615810   0.876   0.472   6.115  1.6605  0.2419  0.4285
   53MOL   C10715811   0.586   0.075   6.063 -0.9064 -0.1700  0.2992
   53MOL   C10815812   0.639   0.151   5.935  1.1686 -0.6045  0.2779
   53MOL   C10915813   0.520   0.188   5.838 -0.1096  0.1928  0.2846
   53MOL   O11015814   0.404   0.146   5.864 -0.0510  0.0310  0.3325
   53MOL   O11115815   0.554   0.263   5.727 -0.0903  0.0215 -0.2556
   53MOL   C11215816   0.452   0.276   5.626 -0.5352 -0.1030 -0.0252
   53MOL   C11315817   0.531   0.319   5.507 -0.3099 -0.3205  0.2574
   53MOL   H11415818   0.519   7.900   6.042 -0.7579  0.3351 -2.2161
   53MOL   H11515819   0.525   0.146   6.118  0.6665  0.3299  1.4355
   53MOL   H11615820   0.692   0.235   5.979  1.2870 -1.8809  2.7005
   53MOL   H11715821   0.395   0.185   5.610  0.1194 -0.6376  0.6474
   53MOL   H11815822   0.389   0.357   5.664 -0.7750  0.1340 -0.9126
   53MOL   H11915823   0.581   0.243   5.448  2.1254  0.4960  1.1871
   53MOL   H12015824   0.613   0.387   5.532 -0.2029 -0.0140 -0.9325
   53MOL   H12115825   0.468   0.380   5.443 -2.1007 -1.2764  1.0586
   53MOL   C12215826   0.745   0.069   5.856  0.5228 -0.6613  0.2162
   53MOL   C12315827   0.854   0.163   5.789  0.0589  0.7404  0.1472
   53MOL   C12415828   0.857   0.140   5.642 -0.6721  0.0410  0.9435
   53MOL   O12515829   0.871   0.235   5.564 -0.1682 -0.1141 -0.2882
   53MOL   O12615830   0.861   0.005   5.602  0.4611  0.4167 -0.1465
   53MOL   C12715831   0.884   7.884   5.463 -0.4023  0.3580 -0.0091
   53MOL   C12815832   0.915   7.732   5.463 -0.5266  0.2805  0.2050
   53MOL   H12915833   0.800   0.008   5.929 -0.2370 -1.7783 -0.1266
   53MOL   H13015834   0.702   7.899   5.794 -0.7053  0.8831 -0.9147
   53MOL   H13115835   0.826   0.267   5.803 -0.1434  0.7787 -0.5084
   53MOL   H13215836   0.797   7.906   5.403  0.0026  1.0278 -0.3546
   53MOL   H13315837   0.961   0.047   5.434 -0.0252 -0.4298 -0.9807
   53MOL   H13415838   0.929   7.705   5.358 -1.7991 -0.2296  0.1532
   53MOL   H13515839   0.824   7.688   5.505  0.1319 -0.9070  0.4021
   53MOL   H13615840   1.010   7.712   5.512 -0.6697 -3.5918 -0.9213
   53MOL   C13715841   0.986   0.133   5.855  0.4192 -0.1269 -0.1309
   53MOL   C13815842   1.092   0.235   5.818  0.0277  0.0839 -0.0565
   53MOL   C13915843   1.223   0.169   5.807  0.2191  0.2017  0.1946
   53MOL   O14015844   1.278   0.158   5.697  0.3529  0.2279  0.0458
   53MOL   O14115845   1.280   0.133   5.929 -0.2848  0.6540 -0.3258
   53MOL   C14215846   1.410   0.090   5.940 -0.2019 -0.1819  0.2569
   53MOL   C14315847   1.466   0.147   6.066 -0.0345  0.0208 -0.2616
   53MOL   H14415848   0.977   0.146   5.963 -1.0675  0.8416 -0.3547
   53MOL   H14515849   1.014   0.030   5.835 -0.4675 -0.4457  0.2469
   53MOL   H14615850   1.063   0.281   5.723  1.7484  0.1546 -0.5574
   53MOL   H14715851   1.424   7.890   5.936  1.6173  0.0744 -1.1943
   53MOL   H14815852   1.463   0.130   5.853 -0.7841  1.0614  0.4617
   53MOL   H14915853   1.407   0.126   6.155 -0.3882  0.1309 -0.4659
   53MOL   H15015854   1.479   0.255   6.055  0.6853  0.1047  1.2845
   53MOL   H15115855   1.562   0.103   6.091  0.7986  1.9341 -0.0007
   53MOL   C15215856   1.099   0.349   5.927 -0.2174 -0.5274  0.3357
   53MOL   C15315857   1.171   0.482   5.883 -0.4574  0.4394  0.5764
   53MOL   C15415858   1.211   0.563   6.006 -0.5988 -0.3591 -0.0081
   53MOL   O15515859   1.157   0.668   6.024  0.1441  0.1915 -0.2477
   53MOL   O15615860   1.310   0.510   6.085 -0.1610  0.1388  0.0877
   53MOL   C15715861   1.342   0.551   6.218 -0.5469  0.8357 -0.9198
   53MOL   C15815862   1.348   0.429   6.312 -0.2943  0.2773 -0.0122
   53MOL   H15915863   1.001   0.384   5.958  0.0275  0.2162  0.2751
   53MOL   H16015864   1.133   0.299   6.018  4.1452 -0.6295 -1.2331
   53MOL   H16115865   1.265   0.442   5.844 -0.9269 -0.2329  0.1460
   53MOL   H16215866   1.432   0.610   6.208  0.4783 -0.4643  0.4665
   53MOL   H16315867   1.269   0.618   6.264  1.6757  1.4840  1.7447
   53MOL   H16415868   1.406   0.452   6.401 -0.9559  1.7277  0.0499
   53MOL   H16515869   1.412   0.350   6.273 -2.6956 -0.5787 -2.4106
   53MOL   H16615870   1.251   0.394   6.348 -0.0428 -0.2773  0.1261
   53MOL   C16715871   1.100   0.563   5.777 -0.3622  0.9244 -0.2751
   53MOL   C16815872   1.176   0.682   5.714 -0.5225  0.3548  0.0533
   53MOL   C16915873   1.097   0.781   5.624 -0.2510 -0.7490  0.7071
   53MOL   O17015874   0.978   0.764   5.599 -0.3704 -0.6840 -0.0107
   53MOL   O17115875   1.178   0.877   5.585  0.7895  0.4534 -0.6945
   53MOL   C17215876   1.132   0.976   5.488 -0.6099  0.3583 -0.0433
   53MOL   C17315877   1.103   1.111   5.550 -0.4008  0.4598  0.2549
   53MOL   H17415878   1.081   0.492   5.696 -1.6226  1.7868 -0.7509
   53MOL   H17515879   1.002   0.580   5.823 -0.9439 -0.0619 -1.1376
   53MOL   H17615880   1.204   0.744   5.799 -1.2755 -2.1211  2.1486
   53MOL   H17715881   1.210   0.990   5.412  1.5111  1.1233  2.1975
   53MOL   H17815882   1.050   0.941   5.425  1.7741 -2.7214 -1.5900
   53MOL   H17915883   1.060   1.164   5.465  1.8664  2.4371  0.2680
   53MOL   H18015884   1.189   1.164   5.591 -0.5446  0.7305  0.2071
   53MOL   H18115885   1.024   1.090   5.622  1.3145 -1.5502  1.6159
   53MOL   C18215886   1.308   0.635   5.647 -0.1106 -0.2250 -0.0072
   53MOL   C18315887   1.434   0.636   5.750 -0.1459 -0.3936  0.1612
   53MOL   C18415888   1.452   0.777   5.817  0.6146  0.3281  0.0110
   53MOL   O18515889   1.415   0.782   5.934  0.3097 -0.5853  0.6735
   53MOL   O18615890   1.520   0.874   5.749  0.5089 -0.0294  0.5788
   53MOL   C18715891   1.530   1.007   5.789 -0.1538  0.1773  0.5638
   53MOL   C18815892   1.495   1.109   5.687  0.1181  0.0232 -0.6390
   53MOL   H18915893   1.295   0.537   5.602 -2.0082  0.6219 -1.3357
   53MOL   H19015894   1.332   0.699   5.562 -1.8213 -1.9420 -1.8245
   53MOL   H19115895   1.421   0.565   5.831  0.6338  1.8901  2.3336
   53MOL   H19215896   1.457   1.016   5.870 -0.6395 -2.1071  0.4188
   53MOL   H19315897   1.632   1.025   5.826  0.9868 -0.9868 -1.8887
   53MOL   H19415898   1.542   1.096   5.589  1.0564 -1.3615 -0.0178
   53MOL   H19515899   1.523   1.209   5.722  0.2777  0.2036 -1.2570
   53MOL   H19615900   1.392   1.106   5.653 -0.6615 -2.9498  1.8323
   53MOL   C19715901   1.564   0.606   5.672  0.2121  0.2916  0.0892
   53MOL   C19815902   1.596   0.458   5.643  0.1641 -0.4705 -0.9561
   53MOL   C19915903   1.659   0.391   5.772  0.7387  0.4981  0.4080
   53MOL   O20015904   1.586   0.341   5.858  0.4749  1.0721  0.5302
   53MOL   O20115905   1.799   0.380   5.771 -0.1672  0.1211 -0.2246
   53MOL   C20215906   1.882   0.322   5.867  0.1432  0.4660  0.3221
   53MOL   C20315907   1.899   0.167   5.840  0.3666 -0.4482 -0.3154
   53MOL   H20415908   1.555   0.662   5.578  0.6042 -1.8015 -1.2279
   53MOL   H20515909   1.644   0.647   5.733 -0.6091  0.6692  0.9340
   53MOL   H20615910   1.500   0.408   5.634 -1.6313  2.8359 -0.6634
   53MOL   H20715911   1.980   0.368   5.871  0.8169 -0.5652 -2.9972
   53MOL   H20815912   1.848   0.338   5.969  1.0945  2.3901  0.3459
   53MOL   H20915913   1.812   0.105   5.862 -0.9643  1.9175  1.4575
   53MOL   H21015914   1.984   0.124   5.892  1.7059 -0.3595 -2.3762
   53MOL   H21115915   1.923   0.151   5.735 -2.4078 -0.0223 -1.0642
   53MOL   C21215916   1.689   0.436   5.522  0.5996  0.5567  0.5782
   53MOL   C21315917   1.619   0.450   5.388 -0.3902  1.1394  0.3810
   53MOL   C21415918   1.583   0.311   5.320  0.0499  0.1342  0.4203
   53MOL   O21515919   1.466   0.267   5.332 -0.8180 -0.0742 -0.1365
   53MOL   O21615920   1.689   0.254   5.258  0.2316  0.4814  0.0255
   53MOL   C21715921   1.673   0.129   5.188 -0.5525  0.2102  1.1465
   53MOL   C21815922   1.809   0.065   5.192 -0.5617  0.4226  0.3456
   53MOL   H21915923   1.763   0.516   5.527 -0.0002  1.0873  1.0909
   53MOL   H22015924   1.743   0.341   5.521  0.9414  0.7532 -0.9645
   53MOL   H22115925   1.531   0.510   5.410 -0.9537  0.6030 -0.3512
   53MOL   H22215926   1.609   0.068   5.251  0.2945 -0.2932  1.5192
   53MOL   H22315927   1.633   0.137   5.087 -0.4666 -0.5285  1.0473
   53MOL   H22415928   1.880   0.127   5.137  1.7150 -2.3566  0.0088
   53MOL   H22515929   1.813   7.876   5.142  0.9168 -0.2993  1.8352
   53MOL   H22615930   1.845   0.050   5.293  0.2336  0.6020  0.0957
   53MOL   C22715931   1.692   0.535   5.282  0.7210  0.5937  0.4268
   53MOL   C22815932   1.699   0.689   5.296 -0.2644  0.0377  0.1059
   53MOL   C22915933   1.565   0.757   5.287  0.1880  0.5631 -0.4413
   53MOL   O23015934   1.536   0.842   5.366  0.1741  0.1303  0.4655
   53MOL   O23115935   1.493   0.727   5.175  0.2805  0.3035 -0.2598
   53MOL   C23215936   1.394   0.824   5.138 -1.1128  0.3872  0.0212
   53MOL   C23315937   1.350   0.792   4.993 -0.2314  0.5249 -0.6901
   53MOL   H23415938   1.796   0.506   5.269  0.0588 -0.4088 -3.2765
   53MOL   H23515939   1.646   0.512   5.186  2.2450  2.2712 -0.7397
   53MOL   H23615940   1.755   0.712   5.387  1.8132 -2.1109 -0.5477
   53MOL   H23715941   1.315   0.808   5.211 -1.8290 -0.2725 -0.8853
   53MOL   H23815942   1.423   0.929   5.142 -0.1640  0.1881 -1.3821
   53MOL   H23915943   1.293   0.699   4.993 -0.3374  0.5875 -0.3530
   53MOL   H24015944   1.446   0.793   4.942 -0.1510 -0.9051 -0.5724
   53MOL   H24115945   1.285   0.874   4.962 -0.4344  0.1064 -1.3932
   53MOL   C24215946   1.794   0.743   5.189  0.9950 -0.0143 -0.4509
   53MOL   C24315947   1.838   0.895   5.184  1.0761  0.9522 -1.2358
   53MOL   C24415948   1.732   0.983   5.135 -0.6566  0.2584 -0.0477
   53MOL   O24515949   1.670   0.957   5.035 -0.8656  0.2779  0.4027
   53MOL   O24615950   1.719   1.101   5.214 -0.8649 -0.2142  0.3210
   53MOL   C24715951   1.618   1.192   5.188  0.0127 -0.6972  0.1328
   53MOL   C24815952   1.629   1.329   5.267 -0.4255  0.7219  0.3644
   53MOL   H24915953   1.888   0.689   5.199  1.1514 -0.2544 -2.9820
   53MOL   H25015954   1.754   0.713   5.092 -1.9529  1.4334  0.2434
   53MOL   H25115955   1.862   0.924   5.286 -0.1030 -0.9415 -0.3795
   53MOL   H25215956   1.605   1.209   5.081 -1.3861 -0.5491  0.3144
   53MOL   H25315957   1.528   1.142   5.224 -1.5225  2.6957  1.2953
   53MOL   H25415958   1.644   1.321   5.375  0.6414 -0.9297  0.1142
   53MOL   H25515959   1.539   1.388   5.250 -0.2106  0.6983 -0.8892
   53MOL   H25615960   1.720   1.383   5.240  0.4560 -0.4431  0.9773
   53MOL   C25715961   1.961   0.904   5.099  0.4514  0.2643  0.5691
   53MOL   C25815962   2.089   0.975   5.164 -0.1091  0.0033 -0.4783
   53MOL   C25915963   2.143   0.901   5.288 -0.1066  0.3686 -0.0981
   53MOL   O26015964   2.142   0.945   5.405  0.0746 -0.0830 -0.3707
   53MOL   O26115965   2.185   0.781   5.251 -0.0719 -0.2400 -0.2497
   53MOL   C26215966   2.215   0.681   5.343  0.4539 -0.2247 -0.4973
   53MOL   C26315967   2.106   0.581   5.359  0.3649  0.5483 -0.1129
   53MOL   H26415968   1.994   0.811   5.054  1.6993  0.0364  1.9086
   53MOL   H26515969   1.927   0.938   5.001 -0.4356  3.1465  1.8132
   53MOL   H26615970   2.167   0.982   5.088 -0.2635  0.1724 -0.6227
   53MOL   H26715971   2.305   0.623   5.326 -0.6561 -1.8724 -0.8321
   53MOL   H26815972   2.235   0.730   5.439 -0.2316  1.3895 -1.1458
   53MOL   H26915973   2.128   0.496   5.422 -1.4246  0.0790 -0.0860
   53MOL   H27015974   2.067   0.539   5.266 -0.4759 -0.3204  0.6219
   53MOL   H27115975   2.028   0.636   5.412  2.2894  1.4321  1.8536
   53MOL   C27215976   2.069   1.123   5.205 -0.9856  0.2612  0.6823
   53MOL   C27315977   2.012   1.213   5.091  0.6700  0.0773  0.0006
   53MOL   C27415978   2.104   1.230   4.971 -0.1617 -0.3900 -0.2472
   53MOL   O27515979   2.223   1.241   4.982 -0.2475  0.2797  0.3632
   53MOL   O27615980   2.033   1.231   4.853  0.0228  0.4570  0.0992
   53MOL   C27715981   2.107   1.231   4.732  0.0300  0.0515 -0.2901
   53MOL   C27815982   2.053   1.335   4.632 -0.0195 -0.6196  0.2508
   53MOL   H27915983   1.999   1.122   5.289 -1.7238  2.6501  0.1353
   53MOL   H28015984   2.160   1.173   5.238  0.1376 -0.6263 -1.0088
   53MOL   H28115985   1.923   1.172   5.043  2.1178 -0.2164 -2.5537
   53MOL   H28215986   2.211   1.257   4.755  0.2090  0.0320 -1.0445
   53MOL   H28315987   2.101   1.137   4.678  0.9152 -0.4281  0.4256
   53MOL   H28415988   2.108   1.339   4.538  1.6218 -1.1117  1.1724
   53MOL   H28515989   2.052   1.429   4.686 -1.7456 -1.6861  2.1656
   53MOL   H28615990   1.949   1.312   4.605 -0.0244 -1.7221  1.1447
   53MOL   C28715991   1.967   1.350   5.139  0.3826  0.4748 -0.1929
   53MOL   C28815992   2.086   1.438   5.197  0.2386 -0.5854 -0.4038
   53MOL   C28915993   2.041   1.573   5.240  0.1678 -0.2718 -0.2261
   53MOL   O29015994   2.127   1.664   5.247  0.1228  0.5286  0.2376
   53MOL   O29115995   1.909   1.581   5.283  0.3227 -0.7522 -0.0260
   53MOL   C29215996   1.864   1.702   5.327 -0.2214  0.1680 -0.3690
   53MOL   C29315997   1.717   1.696   5.300 -0.4595 -0.0145  0.3743
   53MOL   H29415998   1.927   1.409   5.056 -1.2346  0.9563  0.9286
   53MOL   H29515999   1.890   1.314   5.206  0.7624  0.6405  0.3302
   53MOL   H29616000   2.143   1.404   5.283 -2.4393  0.5669  1.9268
   53MOL   H29716001   1.891   1.723   5.430  1.7154  1.8488 -1.1848
   53MOL   H29816002   1.902   1.785   5.267 -2.0820  1.2528 -0.0994
   53MOL   H29916003   1.661   1.622   5.357 -0.0820  1.3480  2.6013
   53MOL   H30016004   1.704   1.687   5.192 -0.4816 -0.1792  0.3911
   53MOL   H30116005   1.677   1.795   5.325  1.1381  0.8238 -0.3131
   53MOL   H30216006   2.164   1.456   5.123 -1.0827  0.5630 -1.5516
   54MOL     C116007   3.358   3.535   1.936  0.2872 -0.2667  0.1774
   54MOL     C216008   3.226   3.579   1.863  0.8419  0.3757  0.2892
   54MOL     C316009   3.234   3.688   1.766 -0.6430 -0.0537  0.3391
   54MOL     O416010   3.163   3.786   1.761  0.0620 -0.6128  0.2943
   54MOL     O516011   3.330   3.658   1.669  0.0798  0.0093  0.6389
   54MOL     C616012   3.382   3.748   1.572  0.2569 -0.2788 -0.4967
   54MOL     C716013   3.524   3.711   1.542  0.5695 -0.2318  0.4594
   54MOL     H816014   3.346   3.511   2.042 -0.8367  0.8549  0.3252
   54MOL     H916015   3.425   3.621   1.928  0.2427 -0.2552 -0.0852
   54MOL    H1016016   3.191   3.487   1.817 -0.1232  1.5302 -1.3093
   54MOL    H1116017   3.333   3.728   1.477 -2.5579  1.9408  0.4013
   54MOL    H1216018   3.374   3.856   1.586  0.7924 -0.3615  0.5319
   54MOL    H1316019   3.517   3.605   1.516  2.9641 -0.0947 -0.8808
   54MOL    H1416020   3.585   3.720   1.632  1.5272  4.1338 -0.4946
   54MOL    H1516021   3.575   3.764   1.461 -1.8519  1.1481 -0.2159
   54MOL    H1616022   3.405   3.444   1.899 -2.6154 -2.3279  1.3599
   54MOL    C1716023   3.117   3.619   1.972 -0.5362 -0.2469  0.5978
   54MOL    C1816024   2.967   3.622   1.936  0.4524 -0.7367 -0.1886
   54MOL    C1916025   2.889   3.714   2.026  0.1487 -1.3728  0.2791
   54MOL    O2016026   2.814   3.796   1.978  0.5594  0.6432  0.5419
   54MOL    O2116027   2.901   3.681   2.157 -0.6918  0.4187 -0.1622
   54MOL    C2216028   2.817   3.745   2.255 -0.3715  0.1336 -0.0062
   54MOL    C2316029   2.740   3.635   2.333  0.2565 -0.5870  0.3633
   54MOL    H2416030   3.115   3.547   2.054  1.4861 -0.7668  0.2334
   54MOL    H2516031   3.148   3.711   2.019 -0.8082  0.0693  0.1639
   54MOL    H2616032   2.963   3.666   1.836 -2.5318  0.1929  0.2936
   54MOL    H2716033   2.868   3.817   2.319 -1.9959  0.8258  0.5610
   54MOL    H2816034   2.752   3.809   2.195  0.6360  0.6790 -0.5311
   54MOL    H2916035   2.676   3.669   2.415  2.4337  3.9119  0.3798
   54MOL    H3016036   2.814   3.568   2.375  1.4248 -1.2305 -2.5980
   54MOL    H3116037   2.679   3.570   2.271 -1.9022 -0.0072  1.8280
   54MOL    C3216038   2.898   3.476   1.935  0.6106 -0.3060  0.1267
   54MOL    C3316039   2.955   3.358   1.849 -0.3127  0.1372 -0.1827
   54MOL    C3416040   2.944   3.394   1.697 -0.6014  0.2876  0.0458
   54MOL    O3516041   2.852   3.451   1.644  0.5803 -0.1597 -0.1637
   54MOL    O3616042   3.053   3.347   1.627 -0.2287  0.1336 -0.1033
   54MOL    C3716043   3.050   3.363   1.484 -0.3363  0.2946 -0.4651
   54MOL    C3816044   3.202   3.371   1.426  0.2765  0.4306 -0.1379
   54MOL    H3916045   2.888   3.438   2.036 -1.7927  1.2955  0.5111
   54MOL    H4016046   2.795   3.498   1.909  0.6592 -0.8143 -0.5207
   54MOL    H4116047   3.061   3.345   1.872 -0.5066 -1.1753  0.0186
   54MOL    H4216048   2.999   3.279   1.436 -0.5709  0.0677  0.1818
   54MOL    H4316049   2.992   3.451   1.458  1.3308  1.7085  0.5200
   54MOL    H4416050   3.236   3.471   1.454 -1.2290  1.1247 -0.7139
   54MOL    H4516051   3.197   3.367   1.317  0.7287 -1.4710 -0.1077
   54MOL    H4616052   3.265   3.291   1.465  1.0164  0.9683 -0.2187
   54MOL    C4716053   2.881   3.227   1.881  0.8109 -0.0784 -0.9157
   54MOL    C4816054   2.890   3.149   2.022 -0.7978  0.2013  0.4030
   54MOL    C4916055   3.025   3.155   2.085 -0.0468 -0.7013 -0.7999
   54MOL    O5016056   3.048   3.167   2.207 -0.6709  0.1961  0.8353
   54MOL    O5116057   3.127   3.138   1.996 -0.6736 -0.1911  0.3166
   54MOL    C5216058   3.264   3.151   2.036  0.2666  0.3618 -0.3167
   54MOL    C5316059   3.344   3.161   1.906 -0.4063 -1.1207  0.0822
   54MOL    H5416060   2.777   3.248   1.858  0.3273  0.9723  1.9543
   54MOL    H5516061   2.912   3.155   1.805  0.9562 -1.5861  0.5323
   54MOL    H5616062   2.825   3.212   2.083 -1.2662  0.0298  0.0871
   54MOL    H5716063   3.278   3.237   2.101  1.6297 -0.2802  0.2574
   54MOL    H5816064   3.288   3.062   2.094  1.8682 -0.6888 -2.5121
   54MOL    H5916065   3.300   3.233   1.837  1.1552  0.6236  0.8777
   54MOL    H6016066   3.340   3.065   1.854  2.2799 -1.4394  0.4312
   54MOL    H6116067   3.452   3.176   1.910 -0.4409 -0.7243 -0.4465
   54MOL    C6216068   2.827   3.013   2.011 -0.5342 -0.0167 -0.0592
   54MOL    C6316069   2.795   2.935   2.137 -0.1253  0.5812 -0.3442
   54MOL    C6416070   2.747   2.792   2.105  0.1064 -0.1944  0.3993
   54MOL    O6516071   2.628   2.765   2.107 -0.0766 -0.0690 -0.0919
   54MOL    O6616072   2.849   2.713   2.087 -0.3909 -0.3372  0.2826
   54MOL    C6716073   2.828   2.574   2.065  0.0268 -0.4768 -0.2141
   54MOL    C6816074   2.961   2.514   2.050 -0.1027 -0.5577 -0.4180
   54MOL    H6916075   2.737   3.019   1.950  0.2800 -1.2641 -1.4154
   54MOL    H7016076   2.904   2.955   1.960 -0.9647  0.2097 -0.9706
   54MOL    H7116077   2.890   2.933   2.190 -0.3205 -2.5648 -0.0151
   54MOL    H7216078   2.789   2.526   2.155  0.2085 -0.4001 -0.0952
   54MOL    H7316079   2.768   2.574   1.973  1.0019 -1.2896 -0.8597
   54MOL    H7416080   3.003   2.515   2.151  0.5329 -0.1400 -0.6805
   54MOL    H7516081   3.028   2.574   1.988  1.4410  0.5120  2.1609
   54MOL    H7616082   2.957   2.411   2.016  1.2800 -0.3413 -1.2688
   54MOL    C7716083   2.700   3.006   2.239  0.4504  0.0727  0.0423
   54MOL    C7816084   2.713   2.970   2.386 -0.2241  0.2201  0.8309
   54MOL    C7916085   2.668   2.826   2.416  0.8566  0.4569 -0.1428
   54MOL    O8016086   2.745   2.743   2.454  0.4485 -0.5791  0.1951
   54MOL    O8116087   2.537   2.803   2.395 -0.1548  0.3179  0.4653
   54MOL    C8216088   2.480   2.676   2.364 -0.1200 -0.4081 -0.5022
   54MOL    C8316089   2.443   2.595   2.486  0.2866  0.3314  0.4196
   54MOL    H8416090   2.707   3.115   2.233 -0.8024  0.2657  1.6307
   54MOL    H8516091   2.598   2.990   2.203 -1.0527  0.3371  3.9727
   54MOL    H8616092   2.820   2.965   2.407  0.3480  0.9625 -1.7597
   54MOL    H8716093   2.387   2.702   2.312 -0.0866  3.8975  1.3829
   54MOL    H8816094   2.554   2.623   2.303  0.5297  1.2131 -1.1507
   54MOL    H8916095   2.381   2.511   2.457  0.3301 -0.5047  2.6240
   54MOL    H9016096   2.387   2.656   2.558  1.4575  0.9888  0.7988
   54MOL    H9116097   2.534   2.567   2.540  0.4600 -0.1798 -0.1332
   54MOL    C9216098   2.651   3.069   2.485 -0.0567  0.7891 -0.6125
   54MOL    C9316099   2.751   3.183   2.528 -0.3985 -0.3884  0.1947
   54MOL    C9416100   2.846   3.134   2.643  0.3715  0.5838  0.0869
   54MOL    O9516101   2.815   3.040   2.716 -0.3920 -0.4455 -0.2488
   54MOL    O9616102   2.966   3.198   2.640 -0.4299 -0.7514 -0.5308
   54MOL    C9716103   3.060   3.182   2.744  0.0030  0.0914 -0.4983
   54MOL    C9816104   3.176   3.276   2.720 -0.7084 -0.8785 -0.1055
   54MOL    H9916105   2.559   3.113   2.447  0.6594 -0.6265 -4.2516
   54MOL   H10016106   2.616   3.018   2.575  2.0677 -0.4506 -0.4509
   54MOL   H10116107   2.822   3.208   2.449  2.1257  1.0141  2.7954
   54MOL   H10216108   3.017   3.206   2.842  2.5817 -0.4968  0.8190
   54MOL   H10316109   3.100   3.081   2.750  1.7494  0.8164  0.6586
   54MOL   H10416110   3.211   3.266   2.617  1.3490  0.0659  0.4557
   54MOL   H10516111   3.270   3.265   2.775  1.1282  0.3199 -2.8966
   54MOL   H10616112   3.153   3.382   2.721  2.3420 -0.1694 -0.0194
   54MOL   C10716113   2.683   3.318   2.552  0.7449  0.1268 -0.2976
   54MOL   C10816114   2.602   3.339   2.684 -0.6999 -0.3359 -0.5295
   54MOL   C10916115   2.458   3.288   2.671  0.0392  0.3526 -0.2722
   54MOL   O11016116   2.388   3.323   2.573 -0.6447 -0.2281 -0.3262
   54MOL   O11116117   2.417   3.214   2.779  0.4855  0.1136  0.2711
   54MOL   C11216118   2.277   3.171   2.782  0.2377  0.5013  0.3057
   54MOL   C11316119   2.248   3.045   2.694  0.0991  0.2936  0.2697
   54MOL   H11416120   2.760   3.393   2.534  1.3821 -0.7286 -1.1943
   54MOL   H11516121   2.613   3.325   2.469 -1.8281  0.6100  1.8591
   54MOL   H11616122   2.646   3.278   2.763  1.2242 -0.1152 -1.3905
   54MOL   H11716123   2.240   3.146   2.882 -1.4315  0.6170 -0.2712
   54MOL   H11816124   2.219   3.255   2.744  1.4829  0.4370 -1.8013
   54MOL   H11916125   2.143   3.015   2.687  0.3596 -1.4309  2.9736
   54MOL   H12016126   2.312   2.967   2.733 -0.8304 -0.6717 -0.1076
   54MOL   H12116127   2.281   3.057   2.591 -2.4624 -0.4803 -0.6799
   54MOL   C12216128   2.595   3.487   2.741  0.4380  0.3132 -1.2978
   54MOL   C12316129   2.536   3.505   2.882 -0.0442 -0.2598  0.0633
   54MOL   C12416130   2.389   3.543   2.882 -0.0542 -0.0378 -0.7111
   54MOL   O12516131   2.300   3.473   2.941 -0.5307  0.1000  0.3656
   54MOL   O12616132   2.365   3.658   2.819 -0.5378 -0.0364 -0.4297
   54MOL   C12716133   2.232   3.709   2.819  0.2060 -0.2979  0.7042
   54MOL   C12816134   2.129   3.663   2.718 -0.6554 -0.2537  0.0393
   54MOL   H12916135   2.698   3.522   2.735  0.4973 -0.0008 -2.1474
   54MOL   H13016136   2.548   3.552   2.667  0.0177  0.6738 -0.7202
   54MOL   H13116137   2.527   3.405   2.925  2.2445 -0.8597 -0.7793
   54MOL   H13216138   2.191   3.703   2.919 -2.1134 -1.1394 -0.2571
   54MOL   H13316139   2.250   3.815   2.800  0.9619 -0.4482  0.5514
   54MOL   H13416140   2.119   3.555   2.732 -1.9932 -0.1540 -0.0410
   54MOL   H13516141   2.175   3.700   2.627 -1.9616  2.7116  0.5368
   54MOL   H13616142   2.030   3.709   2.721 -0.5304  0.0198 -0.1008
   54MOL   C13716143   2.622   3.592   2.978 -0.3003 -0.6388 -0.2857
   54MOL   C13816144   2.749   3.522   3.031 -0.3551  0.2995  0.0142
   54MOL   C13916145   2.722   3.416   3.143 -0.1362  0.9393 -0.2437
   54MOL   O14016146   2.748   3.300   3.123 -0.1542  0.1056 -0.6735
   54MOL   O14116147   2.674   3.466   3.252  0.1107 -0.4284 -0.0330
   54MOL   C14216148   2.631   3.390   3.370 -0.6217 -0.2695  0.2238
   54MOL   C14316149   2.757   3.360   3.458 -0.4041  0.1502 -0.2951
   54MOL   H14416150   2.639   3.692   2.937 -0.9668 -0.7343 -0.8059
   54MOL   H14516151   2.562   3.597   3.069  0.9561  1.0075  0.4918
   54MOL   H14616152   2.795   3.477   2.943 -0.1208 -0.6251  0.6053
   54MOL   H14716153   2.554   3.439   3.428 -0.2546 -0.3162  0.7544
   54MOL   H14816154   2.592   3.291   3.345  1.6702 -1.0466 -0.4799
   54MOL   H14916155   2.726   3.307   3.549 -2.1329  0.2879 -0.7919
   54MOL   H15016156   2.785   3.461   3.488  0.0905  0.8881 -3.1564
   54MOL   H15116157   2.837   3.303   3.410  0.7497 -0.3801  2.1397
   54MOL   C15216158   2.847   3.634   3.081 -0.0505 -0.3213 -0.4413
   54MOL   C15316159   2.989   3.590   3.115  0.2750  0.2123 -0.0271
   54MOL   C15416160   3.014   3.564   3.268  0.5287  0.3250 -0.1882
   54MOL   O15516161   3.033   3.451   3.309  0.0893 -0.6178 -0.2604
   54MOL   O15616162   3.010   3.675   3.345  0.0184  0.7168 -0.1365
   54MOL   C15716163   3.051   3.678   3.478  0.0598 -0.2425  0.1239
   54MOL   C15816164   3.172   3.766   3.496  0.1360 -0.3524  0.1435
   54MOL   H15916165   2.861   3.701   2.996 -2.4948  2.1656  1.0343
   54MOL   H16016166   2.803   3.686   3.166 -1.5622 -0.9940 -0.7934
   54MOL   H16116167   2.998   3.489   3.075  0.0456  0.2602 -0.1985
   54MOL   H16216168   2.972   3.728   3.533 -0.7304 -1.0044 -0.3151
   54MOL   H16316169   3.058   3.574   3.506 -3.3689 -0.5622 -0.0082
   54MOL   H16416170   3.263   3.733   3.446 -0.0808  0.4204 -0.7884
   54MOL   H16516171   3.208   3.753   3.598 -0.5413  0.1963  0.4526
   54MOL   H16616172   3.154   3.871   3.476  0.1676 -0.8594 -2.8253
   54MOL   C16716173   3.111   3.658   3.040  0.4256 -0.5959  0.0891
   54MOL   C16816174   3.252   3.621   3.081 -0.3104  0.1931  0.2000
   54MOL   C16916175   3.347   3.736   3.034  0.6832  0.1620 -0.6102
   54MOL   O17016176   3.404   3.811   3.116  0.1219  0.2500  0.2252
   54MOL   O17116177   3.363   3.757   2.902 -0.0308 -0.1770 -0.1404
   54MOL   C17216178   3.452   3.855   2.856  0.3138 -0.1572 -0.1559
   54MOL   C17316179   3.377   3.950   2.754 -0.0315 -0.0593  0.2139
   54MOL   H17416180   3.091   3.639   2.935 -1.1164  0.0889  0.2383
   54MOL   H17516181   3.099   3.766   3.048 -1.8922 -0.8686  0.6197
   54MOL   H17616182   3.264   3.611   3.189  0.2960 -2.9909 -0.1114
   54MOL   H17716183   3.489   3.920   2.936 -2.6382  0.3072  0.9032
   54MOL   H17816184   3.536   3.808   2.807  0.4370 -0.1273  0.0253
   54MOL   H17916185   3.446   4.017   2.703 -0.5174  0.1922 -0.1070
   54MOL   H18016186   3.310   4.005   2.819 -0.4483  0.5401 -0.7235
   54MOL   H18116187   3.311   3.898   2.686 -1.0333  0.7950  0.5265
   54MOL   C18216188   3.296   3.482   3.036 -0.0397 -0.5866 -0.5417
   54MOL   C18316189   3.432   3.424   3.082  1.1610 -0.2429  0.3039
   54MOL   C18416190   3.467   3.449   3.228 -1.0221 -0.8030 -0.8795
   54MOL   O18516191   3.585   3.466   3.259  0.2227  0.4018 -0.1945
   54MOL   O18616192   3.359   3.427   3.309 -0.6996  0.3015 -0.2484
   54MOL   C18716193   3.390   3.419   3.450  0.1504  0.5105 -0.5613
   54MOL   C18816194   3.280   3.329   3.513  0.1847  0.2692 -0.7404
   54MOL   H18916195   3.221   3.417   3.081 -0.7013 -0.6460 -1.7151
   54MOL   H19016196   3.285   3.474   2.928 -2.0964 -2.2350 -0.2508
   54MOL   H19116197   3.422   3.316   3.081  0.5346 -0.1820 -2.1263
   54MOL   H19216198   3.477   3.355   3.465 -1.1879 -0.8806  1.5802
   54MOL   H19316199   3.399   3.514   3.503  3.4185  0.1574 -0.3700
   54MOL   H19416200   3.289   3.224   3.484  0.0528 -0.4396  1.6797
   54MOL   H19516201   3.179   3.366   3.495 -0.7596 -1.9180 -0.0549
   54MOL   H19616202   3.292   3.332   3.621 -0.1269 -1.3688 -0.6425
   54MOL   C19716203   3.561   3.465   2.988  0.8091  0.1895 -0.1630
   54MOL   C19816204   3.573   3.380   2.861  0.3061  0.1395  0.0198
   54MOL   C19916205   3.601   3.237   2.896  0.3502  0.8401  0.2670
   54MOL   O20016206   3.644   3.195   3.004 -0.0090 -0.1112 -0.2388
   54MOL   O20116207   3.559   3.161   2.800 -0.0518  0.7157  0.2450
   54MOL   C20216208   3.571   3.026   2.821 -0.4016  0.0243  0.5229
   54MOL   C20316209   3.468   2.958   2.733 -0.2762 -0.2639  0.4611
   54MOL   H20416210   3.567   3.571   2.963  0.1832  0.3519  0.3655
   54MOL   H20516211   3.654   3.457   3.044 -0.8337 -1.7404  2.3350
   54MOL   H20616212   3.485   3.383   2.796  0.7762 -1.8812 -0.7193
   54MOL   H20716213   3.676   3.002   2.806 -0.6269 -0.2276 -0.7583
   54MOL   H20816214   3.538   3.003   2.923 -1.6928 -2.2282 -0.3562
   54MOL   H20916215   3.369   2.994   2.761  0.7701  1.4060  2.1890
   54MOL   H21016216   3.466   2.850   2.743  0.2979 -0.2364  0.8468
   54MOL   H21116217   3.493   2.988   2.631 -3.9780 -1.1973 -0.7913
   54MOL   C21216218   3.666   3.443   2.757 -0.5464 -0.1382 -0.0453
   54MOL   C21316219   3.670   3.389   2.608  0.8087 -0.2141 -0.3223
   54MOL   C21416220   3.794   3.307   2.586 -0.1718  0.5985  0.2865
   54MOL   O21516221   3.786   3.197   2.535  0.4507 -0.1851 -0.3063
   54MOL   O21616222   3.906   3.384   2.606  0.8359 -0.0231  0.1643
   54MOL   C21716223   4.034   3.326   2.573 -0.2087 -0.0491  0.2456
   54MOL   C21816224   4.136   3.437   2.514  0.5578 -0.2936 -0.8454
   54MOL   H21916225   3.624   3.544   2.751 -2.0057 -0.5792  2.4639
   54MOL   H22016226   3.765   3.470   2.794 -1.0370  0.1530  1.0692
   54MOL   H22116227   3.582   3.330   2.583 -0.6049  1.0596  1.4733
   54MOL   H22216228   4.079   3.265   2.652  0.6055 -3.0013 -2.4082
   54MOL   H22316229   4.017   3.261   2.488 -1.3243  1.8348 -1.0088
   54MOL   H22416230   4.165   3.505   2.594 -0.5836 -1.1382  0.3158
   54MOL   H22516231   4.089   3.480   2.426 -1.7741 -0.9951  0.0053
   54MOL   H22616232   4.230   3.397   2.479  1.0484  0.3966 -0.3401
   54MOL   C22716233   3.668   3.502   2.504  0.2306  0.5481  0.1175
   54MOL   C22816234   3.524   3.567   2.491  0.1761 -0.7101 -0.0061
   54MOL   C22916235   3.447   3.486   2.386 -1.1148 -0.3880 -0.0797
   54MOL   O23016236   3.499   3.439   2.284  0.2037 -0.4401  0.0150
   54MOL   O23116237   3.319   3.470   2.419  0.5118 -0.8233  0.2970
   54MOL   C23216238   3.223   3.407   2.331 -1.1393  0.1424 -0.5484
   54MOL   C23316239   3.083   3.457   2.374 -0.1338  0.1986  0.1659
   54MOL   H23416240   3.739   3.578   2.537  0.8240 -0.7539  1.9032
   54MOL   H23516241   3.700   3.461   2.408  0.9593  0.0938  0.5513
   54MOL   H23616242   3.477   3.559   2.589  0.9772 -3.0814  0.2225
   54MOL   H23716243   3.247   3.430   2.228  1.2403 -0.2790 -0.1201
   54MOL   H23816244   3.232   3.298   2.339 -0.8704  0.2247  0.4178
   54MOL   H23916245   3.064   3.444   2.480 -0.4820 -2.8585 -0.2147
   54MOL   H24016246   3.002   3.409   2.318 -1.3292 -0.0657  2.0731
   54MOL   H24116247   3.068   3.564   2.355  0.2837  0.4107  0.9984
   54MOL   C24216248   3.533   3.715   2.470 -0.1837  0.1279 -0.3780
   54MOL   C24316249   3.607   3.783   2.355 -0.4049 -0.2752  0.6964
   54MOL   C24416250   3.668   3.923   2.397 -0.3036  0.4530  0.3076
   54MOL   O24516251   3.787   3.948   2.384 -0.2334  0.5124  0.3259
   54MOL   O24616252   3.577   4.006   2.450  0.4283  0.0770 -0.1508
   54MOL   C24716253   3.611   4.140   2.486  0.3731  0.4495 -0.2413
   54MOL   C24816254   3.475   4.217   2.479  0.9414 -0.1113 -0.0219
   54MOL   H24916255   3.434   3.758   2.453  0.2445  0.6121 -1.7284
   54MOL   H25016256   3.567   3.751   2.567 -1.3724 -0.2614  0.1901
   54MOL   H25116257   3.704   3.734   2.340  0.6570  1.4516  1.8091
   54MOL   H25216258   3.662   4.137   2.583 -1.5188  1.6540  0.8093
   54MOL   H25316259   3.673   4.192   2.413  1.8628  0.8354  1.2720
   54MOL   H25416260   3.480   4.325   2.485  0.1939  0.0988 -2.6209
   54MOL   H25516261   3.404   4.180   2.552 -0.2380 -1.1108 -1.6466
   54MOL   H25616262   3.429   4.199   2.382 -1.6307  0.3087  1.0809
   54MOL   C25716263   3.539   3.769   2.213 -0.4423 -0.0497  0.3881
   54MOL   C25816264   3.438   3.883   2.177 -0.7325  0.2204 -0.1100
   54MOL   C25916265   3.305   3.885   2.253  0.5379 -0.3137  0.0693
   54MOL   O26016266   3.250   3.779   2.273 -0.5823  0.2551 -0.1994
   54MOL   O26116267   3.239   4.010   2.273  0.0708  0.5823 -0.1701
   54MOL   C26216268   3.143   4.016   2.376  0.2866 -0.3646  0.0255
   54MOL   C26316269   3.109   4.152   2.429  0.4276  0.1370 -0.2359
   54MOL   H26416270   3.613   3.761   2.133 -0.9206  1.6105 -0.2350
   54MOL   H26516271   3.486   3.675   2.220  1.7411 -1.2307  1.8736
   54MOL   H26616272   3.487   3.977   2.204  1.4314 -0.6840 -0.7490
   54MOL   H26716273   3.057   3.973   2.325 -1.2718  0.3006  2.0343
   54MOL   H26816274   3.168   3.953   2.461 -0.6498  1.9652  2.0700
   54MOL   H26916275   3.045   4.219   2.372 -1.3632  0.6204  2.2760
   54MOL   H27016276   3.191   4.209   2.474 -1.2764  1.3345  1.4359
   54MOL   H27116277   3.041   4.134   2.512 -1.3933  0.5721 -1.6083
   54MOL   C27216278   3.421   3.898   2.023 -0.4559 -0.4966  0.0146
   54MOL   C27316279   3.438   4.041   1.956  0.1413 -0.1046 -0.9509
   54MOL   C27416280   3.319   4.089   1.863  0.5505 -0.8565  0.1892
   54MOL   O27516281   3.332   4.120   1.745  0.5231 -0.5825  0.5534
   54MOL   O27616282   3.205   4.087   1.935 -0.7363 -0.0499  0.0181
   54MOL   C27716283   3.080   4.105   1.868  0.5772 -0.0343 -0.9747
   54MOL   C27816284   2.987   4.119   1.993 -0.2376  0.0754  0.0180
   54MOL   H27916285   3.490   3.826   1.979 -0.2424 -1.8007  2.3562
   54MOL   H28016286   3.322   3.857   2.001 -1.4513  0.4980  2.3962
   54MOL   H28116287   3.429   4.108   2.042  1.9287 -1.9958  0.7618
   54MOL   H28216288   3.064   4.200   1.817 -0.0957  0.8530  0.8405
   54MOL   H28316289   3.051   4.021   1.805 -0.8736 -1.4704  1.5433
   54MOL   H28416290   3.011   4.216   2.037  2.2652 -0.8684  0.8108
   54MOL   H28516291   3.007   4.042   2.067 -1.3975  0.9192  1.2216
   54MOL   H28616292   2.881   4.112   1.967  0.4298  2.2662 -3.6831
   54MOL   C28716293   3.576   4.070   1.902  0.3992 -0.3624 -0.2146
   54MOL   C28816294   3.614   3.993   1.779  0.4191  0.1298 -0.3720
   54MOL   C28916295   3.759   4.011   1.739  0.4543  0.0517 -0.0715
   54MOL   O29016296   3.852   4.039   1.813 -0.0021 -0.5085  0.2112
   54MOL   O29116297   3.772   3.988   1.604  0.0405  0.0248  0.6897
   54MOL   C29216298   3.897   3.984   1.543 -0.6797 -0.4549  0.2134
   54MOL   C29316299   3.888   3.904   1.410  0.1300  0.0160 -0.6585
   54MOL   H29416300   3.595   4.178   1.905 -0.0912 -0.2940  3.1064
   54MOL   H29516301   3.652   4.044   1.976  1.7667  3.1229 -0.3159
   54MOL   H29616302   3.599   3.887   1.796  0.0477 -0.4765 -4.0745
   54MOL   H29716303   3.939   4.081   1.518  0.1694 -0.7878  0.3030
   54MOL   H29816304   3.979   3.947   1.607 -0.7610 -1.5797 -0.3181
   54MOL   H29916305   3.826   3.814   1.416 -1.7381  1.2413 -1.0462
   54MOL   H30016306   3.985   3.875   1.371  0.2429  2.1730 -2.0791
   54MOL   H30116307   3.829   3.957   1.335  1.7932  0.2634 -1.8122
   54MOL   H30216308   3.556   4.032   1.695  0.0801 -2.6054 -1.4595
   55MOL     C116309   6.385   0.204   4.672  0.1958  1.0398  1.1030
   55MOL     C216310   6.343   0.057   4.645 -0.2292 -0.0567  0.3039
   55MOL     C316311   6.273   7.897   4.762  0.2527 -0.0318  0.1307
   55MOL     O416312   6.262   0.041   4.868  0.5266  0.8154  0.0884
   55MOL     O516313   6.218   7.775   4.731 -0.3851 -0.0667  0.3304
   55MOL     C616314   6.140   7.696   4.822  0.2318 -0.1925 -0.9545
   55MOL     C716315   6.231   7.586   4.883  0.0019  0.5026  0.0696
   55MOL     H816316   6.407   0.260   4.581  1.0849 -0.0805  0.6260
   55MOL     H916317   6.474   0.202   4.734  0.4354 -0.5668  0.7171
   55MOL    H1016318   6.259   0.062   4.575 -1.0393 -1.7361  1.1380
   55MOL    H1116319   6.116   7.767   4.900 -3.1138 -0.9330 -1.2294
   55MOL    H1216320   6.053   7.644   4.782  1.1917 -2.3528 -0.3118
   55MOL    H1316321   6.175   7.511   4.940  2.9294 -1.0342  1.0573
   55MOL    H1416322   6.306   7.622   4.954  2.5935 -1.0861 -1.7709
   55MOL    H1516323   6.285   7.520   4.815 -1.3514 -0.6640  0.0963
   55MOL    H1616324   6.300   0.248   4.725 -1.7903 -2.0868  0.6670
   55MOL    C1716325   6.460   7.885   4.587 -0.4684 -0.7064 -0.0156
   55MOL    C1816326   6.453   7.883   4.428 -0.2515 -0.3162 -0.2488
   55MOL    C1916327   6.332   7.812   4.377 -0.0533  0.3218  0.1157
   55MOL    O2016328   6.256   7.863   4.294 -0.0205  0.0688  0.4415
   55MOL    O2116329   6.332   7.684   4.427  0.2027  0.2964 -0.2615
   55MOL    C2216330   6.225   7.593   4.395  0.4257 -0.7110  0.1352
   55MOL    C2316331   6.223   7.492   4.511 -0.5622  0.0866  0.4491
   55MOL    H2416332   6.556   0.005   4.629 -0.1366 -0.3657 -0.9854
   55MOL    H2516333   6.449   7.783   4.623 -1.6163 -0.3927  0.5537
   55MOL    H2616334   6.448   0.075   4.384  1.3345  0.6677  1.7322
   55MOL    H2716335   6.128   7.637   4.372 -0.6012 -3.9873 -2.1771
   55MOL    H2816336   6.263   7.545   4.305 -0.3650 -0.3142 -0.4116
   55MOL    H2916337   6.130   7.435   4.503 -2.6637  3.4416 -0.3115
   55MOL    H3016338   6.221   7.544   4.607 -1.2893 -0.1529  0.5672
   55MOL    H3116339   6.308   7.424   4.514  0.8660  1.8495  0.8415
   55MOL    C3216340   6.588   7.831   4.369 -0.1250 -0.7636  0.0083
   55MOL    C3316341   6.711   0.023   4.373 -0.5554 -0.0322 -0.3154
   55MOL    C3416342   6.670   0.152   4.298  0.4528 -0.1178 -0.2658
   55MOL    O3516343   6.627   0.249   4.360 -0.1530  0.4703  0.9503
   55MOL    O3616344   6.682   0.140   4.167  0.1428 -0.3898 -0.4228
   55MOL    C3716345   6.689   0.255   4.088 -0.2060  0.6409  0.7725
   55MOL    C3816346   6.730   0.202   3.952 -0.9631  0.5534 -0.2425
   55MOL    H3916347   6.613   7.741   4.425 -0.5986 -0.6303  0.4437
   55MOL    H4016348   6.575   7.813   4.262 -2.0474 -0.7746  0.2238
   55MOL    H4116349   6.729   0.046   4.478  0.8377 -0.5283 -0.4366
   55MOL    H4216350   6.596   0.306   4.061  1.1170  2.8734  0.3528
   55MOL    H4316351   6.764   0.317   4.137 -0.9455 -0.5971  3.5813
   55MOL    H4416352   6.655   0.133   3.913  0.0619 -0.7335  0.0010
   55MOL    H4516353   6.831   0.161   3.946 -0.0551  2.6405  0.4335
   55MOL    H4616354   6.733   0.291   3.889 -1.4086  0.6870 -0.0758
   55MOL    C4716355   6.838   7.856   4.314  0.6373  0.0407 -0.0952
   55MOL    C4816356   6.966   0.020   4.358  0.5475  0.1747 -0.3172
   55MOL    C4916357   7.014   0.105   4.231  1.2473  0.4447  0.4960
   55MOL    O5016358   6.999   0.227   4.221  0.2064 -0.1612 -0.3369
   55MOL    O5116359   7.069   0.035   4.126 -0.6458  0.1156  0.3451
   55MOL    C5216360   7.145   0.105   4.024 -0.1680 -0.4006  0.8798
   55MOL    C5316361   7.288   0.079   4.073  0.3150 -0.4201  0.5846
   55MOL    H5416362   6.839   7.753   4.350 -3.8336 -0.0646 -0.0322
   55MOL    H5516363   6.839   7.841   4.206  1.8903  2.0590 -0.3812
   55MOL    H5616364   6.946   0.084   4.443  0.6266 -0.1907 -0.0235
   55MOL    H5716365   7.135   0.063   3.924 -0.4896  0.3784  0.5748
   55MOL    H5816366   7.131   0.213   4.018 -1.3308 -0.6658 -2.3224
   55MOL    H5916367   7.304   0.140   4.162  0.2741 -1.2854  1.1812
   55MOL    H6016368   7.359   0.122   4.002 -0.8804 -0.1825 -0.5021
   55MOL    H6116369   7.310   7.882   4.088 -0.9012 -0.6826  0.5729
   55MOL    C6216370   7.078   7.836   4.403  0.4507  0.1573 -0.0136
   55MOL    C6316371   7.196   0.001   4.471  0.1556 -0.0021  0.1520
   55MOL    C6416372   7.312   7.816   4.478 -0.3568 -0.4794  0.1930
   55MOL    O6516373   7.421   7.853   4.435  0.1504  0.0920 -0.2172
   55MOL    O6616374   7.278   7.701   4.538  0.4529  0.1443  0.1268
   55MOL    C6716375   7.373   7.602   4.528 -0.5110  0.1779  0.1081
   55MOL    C6816376   7.313   7.465   4.567 -0.0425 -0.3039 -0.2108
   55MOL    H6916377   7.040   7.764   4.476 -1.1033  0.6237 -0.3312
   55MOL    H7016378   7.103   7.789   4.308 -4.1472 -0.0765 -1.2187
   55MOL    H7116379   7.222   0.088   4.410  3.2003 -1.1368 -0.2840
   55MOL    H7216380   7.426   7.594   4.434 -1.1062 -0.6244 -0.1723
   55MOL    H7316381   7.456   7.620   4.595 -0.9402 -2.3407  1.4030
   55MOL    H7416382   7.377   7.383   4.534 -0.3287 -1.0984  1.1877
   55MOL    H7516383   7.222   7.438   4.514  0.0780 -1.5717  0.2078
   55MOL    H7616384   7.304   7.450   4.675 -1.7371  0.5198 -0.2188
   55MOL    C7716385   7.158   0.070   4.599  0.0622 -0.0316  0.3455
   55MOL    C7816386   7.102   7.886   4.704  0.1589  0.1611 -0.2279
   55MOL    C7916387   6.954   7.902   4.725 -0.0904 -0.4677 -0.2070
   55MOL    O8016388   6.873   7.816   4.678  0.4806 -0.3443 -0.3681
   55MOL    O8116389   6.915   0.093   4.801 -0.2637 -0.0657 -0.0384
   55MOL    C8216390   6.781   0.095   4.846  0.3224 -0.4121 -0.2113
   55MOL    C8316391   6.769   0.009   4.968  0.6780  0.0646 -0.9234
   55MOL    H8416392   7.236   0.130   4.648 -0.3180  0.5959  0.1893
   55MOL    H8516393   7.091   0.153   4.575 -1.0049 -0.8928  0.3394
   55MOL    H8616394   7.114   7.783   4.669 -0.6017 -0.1483  0.3989
   55MOL    H8716395   6.755   0.200   4.860  0.3301 -0.4709  0.2595
   55MOL    H8816396   6.719   0.071   4.760 -0.2394 -0.1430  0.1181
   55MOL    H8916397   6.666   0.014   5.000  1.3086 -0.1313  1.1870
   55MOL    H9016398   6.840   0.031   5.048  0.3799 -1.2451 -0.2836
   55MOL    H9116399   6.789   7.813   4.944  1.7238  0.2316 -0.8213
   55MOL    C9216400   7.186   7.896   4.835 -0.5158 -0.4978 -0.3355
   55MOL    C9316401   7.132   7.806   4.949  0.3318  0.2633 -0.2053
   55MOL    C9416402   7.172   7.855   5.087 -0.2367  0.2276  0.2411
   55MOL    O9516403   7.090   0.015   5.154 -0.0072 -0.1263  0.5502
   55MOL    O9616404   7.291   7.807   5.122 -0.3154 -0.8001  0.0355
   55MOL    C9716405   7.360   7.849   5.235  0.6846  0.1752  0.1712
   55MOL    C9816406   7.401   7.731   5.319  0.2929  0.4643 -0.3124
   55MOL    H9916407   7.293   7.876   4.832 -0.6746 -1.7928  1.8055
   55MOL   H10016408   7.179   0.091   4.870  0.4226 -1.5454  3.1516
   55MOL   H10116409   7.023   7.818   4.946  0.4237  1.0036 -0.8950
   55MOL   H10216410   7.444   0.007   5.215 -1.0950  1.9465 -1.8236
   55MOL   H10316411   7.301   0.005   5.300  1.6030 -0.2910  1.4712
   55MOL   H10416412   7.417   7.773   5.419  0.5350 -0.4731  0.0408
   55MOL   H10516413   7.490   7.683   5.279 -0.1933 -0.8247  0.1511
   55MOL   H10616414   7.319   7.661   5.331  0.0334  0.0483 -4.0825
   55MOL   C10716415   7.155   7.659   4.917  0.2744 -0.2419 -0.5435
   55MOL   C10816416   7.065   7.556   4.985  0.5449  1.1407 -0.2205
   55MOL   C10916417   7.127   7.416   4.993 -0.0076 -0.7681 -0.0100
   55MOL   O11016418   7.131   7.355   5.096 -0.4881  0.1571 -0.1796
   55MOL   O11116419   7.178   7.368   4.876  0.0409  0.3174 -0.3273
   55MOL   C11216420   7.240   7.244   4.865  0.4733  1.0094  0.0309
   55MOL   C11316421   7.199   7.169   4.739 -0.3623  0.5792  0.3480
   55MOL   H11416422   7.172   7.629   4.814 -4.0447 -0.7274 -1.2235
   55MOL   H11516423   7.257   7.642   4.952 -0.3349 -2.7898  0.1251
   55MOL   H11616424   7.058   7.593   5.087  0.5388  0.3268  0.0781
   55MOL   H11716425   7.348   7.261   4.866  0.4675  0.9586  2.2223
   55MOL   H11816426   7.202   7.172   4.937  1.5109  1.2080  0.7859
   55MOL   H11916427   7.266   7.083   4.734 -1.7575 -0.5392  0.4920
   55MOL   H12016428   7.200   7.219   4.642 -0.1744  0.3300  0.2212
   55MOL   H12116429   7.094   7.140   4.737 -0.1977  0.0016  0.2095
   55MOL   C12216430   6.925   7.544   4.915 -0.3068  0.6750 -0.2652
   55MOL   C12316431   6.806   7.484   4.996 -0.7132 -0.2538  0.1905
   55MOL   C12416432   6.786   7.572   5.124 -0.0646  0.4162  0.1821
   55MOL   O12516433   6.690   7.651   5.129  0.2584  0.0278 -0.5118
   55MOL   O12616434   6.871   7.548   5.225  0.6055  0.2431 -1.2140
   55MOL   C12716435   6.870   7.634   5.345 -0.5028  0.8947 -0.2783
   55MOL   C12816436   6.968   7.583   5.448  0.0612 -0.1493 -0.2183
   55MOL   H12916437   6.891   7.640   4.877  0.3704  1.7529  1.8122
   55MOL   H13016438   6.931   7.480   4.827 -0.0866 -0.3968  0.5130
   55MOL   H13116439   6.717   7.516   4.943 -1.1172  1.4321  1.7951
   55MOL   H13216440   6.891   7.739   5.323  3.0029 -0.0109 -1.6512
   55MOL   H13316441   6.768   7.619   5.380 -0.5409  0.6676 -0.4847
   55MOL   H13416442   6.961   7.639   5.541 -0.4459 -1.1636  0.3636
   55MOL   H13516443   7.067   7.590   5.404  0.5847  2.1321  1.3055
   55MOL   H13616444   6.958   7.478   5.477 -0.1944 -0.1400 -0.2639
   55MOL   C13716445   6.802   7.338   5.027  0.0446  0.5677 -0.1327
   55MOL   C13816446   6.669   7.266   5.079 -0.4009 -0.2594 -0.1214
   55MOL   C13916447   6.554   7.303   4.993  0.4061  0.5709 -0.5216
   55MOL   O14016448   6.476   7.386   5.036  0.1750 -0.1450  0.0985
   55MOL   O14116449   6.534   7.234   4.881 -0.1585  0.0389  0.0928
   55MOL   C14216450   6.410   7.248   4.809  0.4562  0.2720 -0.0945
   55MOL   C14316451   6.298   7.187   4.894 -0.4465  0.9395 -0.0100
   55MOL   H14416452   6.835   7.284   4.938 -2.6178  1.2694 -1.6058
   55MOL   H14516453   6.877   7.311   5.101  0.8252  1.0689 -0.7355
   55MOL   H14616454   6.689   7.159   5.072 -0.7291 -0.3111 -0.2554
   55MOL   H14716455   6.388   7.350   4.777 -0.3866 -0.4083 -1.7882
   55MOL   H14816456   6.424   7.193   4.715 -2.1486  1.2138 -1.0862
   55MOL   H14916457   6.281   7.254   4.978 -1.5580  3.5726 -2.2473
   55MOL   H15016458   6.302   7.083   4.927  0.6803  1.2162  0.7182
   55MOL   H15116459   6.206   7.184   4.835 -1.0009  0.2333  0.8763
   55MOL   C15216460   6.648   7.297   5.232 -0.1229 -0.4796 -0.4220
   55MOL   C15316461   6.567   7.186   5.303 -0.1527  0.0341 -0.0936
   55MOL   C15416462   6.421   7.226   5.303 -0.5268 -0.2614 -0.4089
   55MOL   O15516463   6.336   7.156   5.243 -0.2083 -0.1841  0.2694
   55MOL   O15616464   6.395   7.326   5.378 -0.1635 -0.4990  0.0141
   55MOL   C15716465   6.261   7.379   5.364  0.2320 -0.5265 -0.2208
   55MOL   C15816466   6.181   7.318   5.484 -0.2382  0.1124  0.3086
   55MOL   H15916467   6.741   7.315   5.286 -1.4137  1.2380  1.3065
   55MOL   H16016468   6.602   7.395   5.245 -1.6372 -1.2504  0.1008
   55MOL   H16116469   6.566   7.096   5.242 -0.3809 -0.1541  0.1832
   55MOL   H16216470   6.278   7.486   5.380  1.9603 -0.8735  0.4145
   55MOL   H16316471   6.210   7.372   5.268  0.3196  0.4868 -0.3551
   55MOL   H16416472   6.241   7.339   5.573  2.3115 -2.6361 -0.6922
   55MOL   H16516473   6.155   7.213   5.480 -0.7430  0.2445  0.0946
   55MOL   H16616474   6.089   7.374   5.498 -0.3108  0.2593 -0.7227
   55MOL   C16716475   6.598   7.133   5.440  0.1383 -0.2028 -0.6128
   55MOL   C16816476   6.730   7.049   5.441  0.3606  0.0026 -0.2949
   55MOL   C16916477   6.720   6.936   5.336 -0.2075  0.0409 -0.5398
   55MOL   O17016478   6.788   6.946   5.237 -0.3783 -0.5373  0.7565
   55MOL   O17116479   6.631   6.831   5.360 -0.0641  0.6273 -0.5709
   55MOL   C17216480   6.600   6.732   5.260 -0.4173 -0.0955 -0.2677
   55MOL   C17316481   6.504   6.793   5.152  0.2498  0.0582 -0.2644
   55MOL   H17416482   6.612   7.223   5.499  1.3633 -0.9383  0.2525
   55MOL   H17516483   6.521   7.069   5.484  1.8218  0.5230  3.7210
   55MOL   H17616484   6.810   7.114   5.405  0.8618 -0.7465 -0.5550
   55MOL   H17716485   6.697   6.711   5.214 -0.1163  0.2969  0.1846
   55MOL   H17816486   6.552   6.661   5.326 -2.1489  0.2503 -1.1149
   55MOL   H17916487   6.552   6.863   5.083  0.3146  1.3078  1.0172
   55MOL   H18016488   6.418   6.847   5.192 -0.8733 -1.7988 -0.1101
   55MOL   H18116489   6.475   6.709   5.089  0.0462  0.5537 -0.8446
   55MOL   C18216490   6.763   6.990   5.575 -0.5181  0.2874 -0.0050
   55MOL   C18316491   6.802   7.086   5.688 -0.0748 -0.0180 -0.5128
   55MOL   C18416492   6.910   7.184   5.650  0.1369 -0.7072 -0.4372
   55MOL   O18516493   6.884   7.302   5.648  0.4385 -0.0876  0.1674
   55MOL   O18616494   7.029   7.130   5.613  0.0786  0.3103  0.0838
   55MOL   C18716495   7.130   7.199   5.550 -0.2863 -0.1986 -0.3931
   55MOL   C18816496   7.106   7.226   5.400  0.5986  0.0817  0.0274
   55MOL   H18916497   6.671   6.941   5.608 -0.1273  0.0165  0.6863
   55MOL   H19016498   6.841   6.916   5.559 -0.9202 -0.7933  2.7207
   55MOL   H19116499   6.708   7.141   5.695 -0.6899 -1.3680  2.6494
   55MOL   H19216500   7.140   7.293   5.604 -1.0280 -0.0553 -0.4948
   55MOL   H19316501   7.226   7.153   5.569 -0.3763 -1.4905 -2.8365
   55MOL   H19416502   7.101   7.130   5.349  0.2555  0.8958 -1.4902
   55MOL   H19516503   7.185   7.283   5.351 -1.2036  2.2688 -0.4227
   55MOL   H19616504   7.018   7.281   5.368  0.1424 -0.7550 -0.1906
   55MOL   C19716505   6.827   6.996   5.814 -0.4159 -0.0712  0.1880
   55MOL   C19816506   6.844   7.069   5.945 -0.2736 -0.6268  0.0319
   55MOL   C19916507   6.894   6.990   6.061 -0.0893  0.4133 -0.2584
   55MOL   O20016508   7.015   6.984   6.090 -0.2371 -0.1524  0.5270
   55MOL   O20116509   6.798   6.923   6.132  0.1055 -0.0901 -0.0000
   55MOL   C20216510   6.829   6.831   6.234  0.4573  0.1958 -0.0578
   55MOL   C20316511   6.815   6.890   6.376 -0.1552  0.3107  0.7714
   55MOL   H20416512   6.744   6.926   5.826  0.9806 -2.1759 -1.8982
   55MOL   H20516513   6.913   6.932   5.795  0.7927  1.7878 -0.7963
   55MOL   H20616514   6.915   7.150   5.928 -1.6213 -0.0877 -3.3191
   55MOL   H20716515   6.775   6.737   6.222  0.5835  0.2772 -1.3151
   55MOL   H20816516   6.933   6.800   6.218  0.1450 -0.7480 -0.2574
   55MOL   H20916517   6.812   6.816   6.456  1.4600 -1.7550 -1.0142
   55MOL   H21016518   6.725   6.951   6.376 -0.0595  0.4545  0.5112
   55MOL   H21116519   6.905   6.948   6.393  0.1910 -0.2295  0.8119
   55MOL   C21216520   6.713   7.153   5.976 -0.0924  0.1820 -0.2274
   55MOL   C21316521   6.726   7.232   6.112  0.5033 -0.0482  0.0379
   55MOL   C21416522   6.590   7.288   6.154 -0.5730  0.2186  0.1700
   55MOL   O21516523   6.514   7.356   6.090  0.1363  0.4259  0.1092
   55MOL   O21616524   6.556   7.261   6.278  0.0897 -0.4715  0.1109
   55MOL   C21716525   6.424   7.275   6.326  0.5407  0.0663  0.3092
   55MOL   C21816526   6.404   7.214   6.470 -0.3675  0.3560 -0.4424
   55MOL   H21916527   6.686   7.229   5.903 -0.6963  0.3464  0.1670
   55MOL   H22016528   6.625   7.089   5.983  0.4676 -0.5707  0.0177
   55MOL   H22116529   6.740   7.173   6.203  1.5740  0.0122 -0.0776
   55MOL   H22216530   6.376   7.373   6.318  0.4484 -0.0182 -0.1613
   55MOL   H22316531   6.370   7.224   6.246  0.6613  2.7253 -1.5614
   55MOL   H22416532   6.476   7.250   6.543 -0.9974 -0.8773  0.8126
   55MOL   H22516533   6.418   7.107   6.454  0.3541  0.4386 -0.3681
   55MOL   H22616534   6.304   7.232   6.510 -0.4999 -3.1530  1.0421
   55MOL   C22716535   6.828   7.339   6.107 -0.2087 -0.4054  0.1949
   55MOL   C22816536   6.858   7.411   6.241 -0.1844 -0.6156 -0.0700
   55MOL   C22916537   6.840   7.559   6.244 -0.0727 -0.4760  0.2234
   55MOL   O23016538   6.932   7.641   6.247 -0.4193  0.2867  0.2353
   55MOL   O23116539   6.707   7.603   6.241 -0.0653  0.4613  0.1125
   55MOL   C23216540   6.674   7.739   6.220  0.0464  0.1923 -0.2547
   55MOL   C23316541   6.531   7.718   6.170 -0.2354  0.2029 -0.9313
   55MOL   H23416542   6.916   7.291   6.064 -0.8191  0.0000 -1.5576
   55MOL   H23516543   6.813   7.409   6.024  0.3721 -0.8259 -0.2664
   55MOL   H23616544   6.774   7.387   6.307  0.6586 -2.8116  0.2474
   55MOL   H23716545   6.672   7.799   6.311  3.2115 -0.0191  0.0156
   55MOL   H23816546   6.720   7.793   6.138  0.1276  0.3263 -0.1233
   55MOL   H23916547   6.535   7.673   6.072  0.2600  0.0167 -0.8287
   55MOL   H24016548   6.486   7.813   6.141  1.0744  0.7429 -1.2186
   55MOL   H24116549   6.473   7.655   6.238 -0.2278 -0.3090 -1.3978
   55MOL   C24216550   6.989   7.368   6.294 -0.1872 -0.4748  0.0078
   55MOL   C24316551   7.000   7.389   6.452 -0.1149  0.3386 -0.7329
   55MOL   C24416552   7.139   7.352   6.505  0.8867 -0.2918  0.2789
   55MOL   O24516553   7.199   7.261   6.451  0.1549  0.4501  0.3261
   55MOL   O24616554   7.173   7.414   6.614 -0.2672  0.5516  0.0128
   55MOL   C24716555   7.286   7.377   6.688  0.1825  0.7714 -0.1836
   55MOL   C24816556   7.243   7.278   6.801 -0.6811  0.2843 -0.3853
   55MOL   H24916557   7.014   7.266   6.265  3.2533 -0.0202  1.0863
   55MOL   H25016558   7.068   7.427   6.245  0.7401  1.3505  3.5318
   55MOL   H25116559   6.987   7.490   6.492 -3.3584 -0.1362 -0.4546
   55MOL   H25216560   7.367   7.327   6.634  4.5117  2.5075  4.2909
   55MOL   H25316561   7.330   7.467   6.731  2.4330  0.2142 -1.2614
   55MOL   H25416562   7.326   7.260   6.869  0.3471 -0.9499 -1.9229
   55MOL   H25516563   7.215   7.181   6.761  0.0635 -0.8673  1.8314
   55MOL   H25616564   7.161   7.329   6.852  0.3087  0.3003  1.2113
   55MOL   C25716565   6.901   7.291   6.531  0.1118 -0.6116 -0.0334
   55MOL   C25816566   6.858   7.347   6.668  0.4316  0.0613 -0.8685
   55MOL   C25916567   6.826   7.234   6.762  0.8080  0.0108 -0.1275
   55MOL   O26016568   6.896   7.204   6.857 -0.0084 -0.3151  0.4523
   55MOL   O26116569   6.717   7.162   6.729  0.5686 -0.4551 -0.5686
   55MOL   C26216570   6.659   7.074   6.826 -0.1177  0.0524  0.0905
   55MOL   C26316571   6.518   7.038   6.787  0.0329  0.0644 -0.4128
   55MOL   H26416572   6.808   7.270   6.478 -0.9340  0.8403  1.1636
   55MOL   H26516573   6.946   7.193   6.541  1.3161 -0.2312 -1.6369
   55MOL   H26616574   6.946   7.396   6.710  1.2113 -1.3664 -0.8199
   55MOL   H26716575   6.720   6.984   6.827 -0.5643 -0.2759  2.9962
   55MOL   H26816576   6.677   7.110   6.928 -1.8708 -1.2190  0.8691
   55MOL   H26916577   6.468   6.966   6.852  0.2037 -0.7496 -1.1627
   55MOL   H27016578   6.528   6.980   6.695 -1.5950 -0.7139 -0.1088
   55MOL   H27116579   6.459   7.125   6.758  1.3977  1.3189  0.5065
   55MOL   C27216580   6.746   7.459   6.654 -0.0530 -0.2415 -0.6401
   55MOL   C27316581   6.752   7.559   6.765  0.2204 -0.2567  0.4371
   55MOL   C27416582   6.864   7.661   6.773 -0.3928 -0.6060 -0.3041
   55MOL   O27516583   6.839   7.781   6.778 -0.0913  0.7694  0.3284
   55MOL   O27616584   6.989   7.605   6.783  0.0925 -0.0505  0.0321
   55MOL   C27716585   7.101   7.679   6.815  0.8751 -0.5960  0.3586
   55MOL   C27816586   7.147   7.753   6.693 -0.3053 -0.1936 -0.1983
   55MOL   H27916587   6.770   7.517   6.565  1.3213  0.7645  0.3608
   55MOL   H28016588   6.648   7.410   6.650 -0.0388 -0.4343  0.9106
   55MOL   H28116589   6.662   7.617   6.746 -0.3466 -1.3239 -0.1857
   55MOL   H28216590   7.069   7.763   6.877  0.4561 -0.9199  0.5749
   55MOL   H28316591   7.176   7.625   6.872 -0.3718 -0.1109  2.5121
   55MOL   H28416592   7.173   7.682   6.614  0.7721 -1.9612  1.7092
   55MOL   H28516593   7.223   7.826   6.720 -1.6654  0.5979  1.6220
   55MOL   H28616594   7.063   7.810   6.651  0.1599  0.6492  0.0112
   55MOL   C28716595   6.711   7.498   6.904  0.2430 -0.0380 -0.5402
   55MOL   C28816596   6.653   7.592   7.009 -0.4603 -0.2975 -0.9536
   55MOL   C28916597   6.637   7.530   7.146  0.2941 -0.3685 -0.1798
   55MOL   O29016598   6.652   7.594   7.253  0.0798  0.3885  0.6986
   55MOL   O29116599   6.598   7.403   7.133 -0.0989  0.7363  0.4551
   55MOL   C29216600   6.549   7.336   7.246 -0.2847 -0.0314  0.6133
   55MOL   C29316601   6.655   7.223   7.281 -0.3889 -0.2254  0.1004
   55MOL   H29416602   6.627   7.431   6.888 -1.2661  1.4596  0.8278
   55MOL   H29516603   6.794   7.439   6.945 -0.7164 -0.6033  0.6246
   55MOL   H29616604   6.726   7.672   7.017  0.3606 -0.9198 -2.1273
   55MOL   H29716605   6.532   7.402   7.332 -1.0576 -0.1068  0.5171
   55MOL   H29816606   6.448   7.297   7.236 -0.4721  0.7337 -0.5755
   55MOL   H29916607   6.676   7.173   7.186  2.2856 -0.2255  0.6584
   55MOL   H30016608   6.609   7.166   7.362 -0.6220 -0.8774 -0.4877
   55MOL   H30116609   6.747   7.267   7.317  1.2202 -0.4962 -3.4390
   55MOL   H30216610   6.556   7.624   6.972 -0.6866  0.8128  0.5490
   56MOL     C116611   5.712   7.139   1.815 -0.4706 -0.5340  0.9484
   56MOL     C216612   5.685   7.250   1.711  0.5365 -0.2750  0.0646
   56MOL     C316613   5.677   7.390   1.780  0.2068  0.3978  0.3660
   56MOL     O416614   5.579   7.469   1.763 -0.3927  0.4707  0.2161
   56MOL     O516615   5.782   7.413   1.855  0.0061  0.1248 -0.0599
   56MOL     C616616   5.796   7.539   1.914 -0.3202 -0.3157 -0.0050
   56MOL     C716617   5.913   7.523   2.016  0.0512  1.0464  0.2878
   56MOL     H816618   5.813   7.145   1.855 -0.6299  1.3091  1.0758
   56MOL     H916619   5.688   7.043   1.769 -0.2388 -0.2201  0.1620
   56MOL    H1016620   5.769   7.245   1.642  0.1391 -2.0496 -0.3128
   56MOL    H1116621   5.828   7.611   1.839 -0.1883 -0.7671 -0.3840
   56MOL    H1216622   5.705   7.579   1.958  0.3741  0.4415  0.7624
   56MOL    H1316623   5.933   7.610   2.078  1.5097  0.7308  0.3004
   56MOL    H1416624   6.005   7.496   1.963  0.2724 -0.8122  1.5405
   56MOL    H1516625   5.894   7.441   2.086  0.5754  1.3272  0.7614
   56MOL    H1616626   5.630   7.154   1.886 -3.3631  0.1586 -2.3695
   56MOL    C1716627   5.575   7.213   1.615  0.2794  0.1888  0.0180
   56MOL    C1816628   5.562   7.286   1.476 -0.1375  0.3670  0.7415
   56MOL    C1916629   5.426   7.269   1.412  0.4652  0.2758 -0.2870
   56MOL    O2016630   5.342   7.356   1.421  0.4660 -0.2366 -0.1032
   56MOL    O2116631   5.409   7.158   1.338 -0.1930 -0.5071 -0.5629
   56MOL    C2216632   5.283   7.130   1.279 -0.8727 -0.6441  0.0343
   56MOL    C2316633   5.190   7.044   1.367 -0.3096 -0.2327  0.1644
   56MOL    H2416634   5.586   7.109   1.584 -0.8932  0.1443 -0.2620
   56MOL    H2516635   5.480   7.213   1.667 -0.4349  0.9633 -1.2619
   56MOL    H2616636   5.569   7.394   1.487 -2.3068  0.6826 -0.6585
   56MOL    H2716637   5.240   7.227   1.258 -0.1976  0.0077  1.6012
   56MOL    H2816638   5.298   7.074   1.187  0.5432 -0.6184  0.2304
   56MOL    H2916639   5.162   7.098   1.458 -0.3232  0.8125 -0.4524
   56MOL    H3016640   5.228   6.949   1.405  0.3421  0.0917  0.3389
   56MOL    H3116641   5.093   7.026   1.322  0.3445 -1.3720 -0.8088
   56MOL    C3216642   5.672   7.246   1.375  0.0457  0.4964 -0.7584
   56MOL    C3316643   5.675   7.316   1.239 -0.5708  0.2444 -0.1260
   56MOL    C3416644   5.779   7.264   1.138  0.2282 -0.0942 -0.2271
   56MOL    O3516645   5.833   7.154   1.154  0.2532  0.3661  0.1927
   56MOL    O3616646   5.797   7.338   1.032 -0.2155  0.3610  0.1872
   56MOL    C3716647   5.892   7.312   0.936 -0.6840  0.0107  0.8122
   56MOL    C3816648   5.835   7.223   0.830  0.7033  1.1307  0.9926
   56MOL    H3916649   5.766   7.259   1.428 -1.6209  5.7568  1.2230
   56MOL    H4016650   5.663   7.138   1.368 -0.8325  0.4980  0.1384
   56MOL    H4116651   5.581   7.307   1.183  0.1660  1.0026 -1.5338
   56MOL    H4216652   5.908   7.401   0.875 -1.8389 -1.3571 -1.5583
   56MOL    H4316653   5.984   7.268   0.974  0.3262 -0.1404 -1.7155
   56MOL    H4416654   5.747   7.269   0.786 -0.8106 -0.6084  2.1433
   56MOL    H4516655   5.813   7.121   0.863 -1.3974  0.5612 -1.9595
   56MOL    H4616656   5.906   7.211   0.748  0.7738 -3.5253  1.5851
   56MOL    C4716657   5.680   7.473   1.243  0.0541  0.0403  0.0884
   56MOL    C4816658   5.816   7.549   1.250 -0.0945 -0.1398  0.6870
   56MOL    C4916659   5.908   7.512   1.364  0.3420 -0.1454  0.4680
   56MOL    O5016660   5.869   7.505   1.484 -0.9048  0.4406  0.6727
   56MOL    O5116661   6.030   7.488   1.320 -0.1861  0.0584  0.0304
   56MOL    C5216662   6.130   7.441   1.421  0.0059  0.0778 -0.1932
   56MOL    C5316663   6.190   7.561   1.507  1.0604 -0.1382  0.3421
   56MOL    H5416664   5.626   7.504   1.153 -0.3881  1.3150  0.7779
   56MOL    H5516665   5.617   7.507   1.326  0.8955 -2.1494  1.6612
   56MOL    H5616666   5.869   7.507   1.165 -2.5098 -2.5541  0.2940
   56MOL    H5716667   6.077   7.370   1.485 -0.7072 -0.3093 -1.2048
   56MOL    H5816668   6.204   7.384   1.364 -1.2709 -0.6992 -1.1119
   56MOL    H5916669   6.225   7.631   1.430  1.6313 -0.7820  0.0147
   56MOL    H6016670   6.271   7.530   1.573  1.5720  2.2541  0.8971
   56MOL    H6116671   6.111   7.616   1.558  1.2324 -1.2683  1.8449
   56MOL    C6216672   5.801   7.705   1.245  0.4952  0.6373 -0.2896
   56MOL    C6316673   5.705   7.766   1.132 -0.1561 -0.1946  0.3415
   56MOL    C6416674   5.766   7.750   0.994 -0.1551 -0.1799 -0.6911
   56MOL    O6516675   5.705   7.729   0.886  0.4514 -0.5673  0.0890
   56MOL    O6616676   5.904   7.779   0.992  0.0292  0.0229  0.6710
   56MOL    C6716677   5.973   7.757   0.875 -0.4889 -0.5301 -0.7038
   56MOL    C6816678   6.087   7.662   0.897 -0.3484 -0.1686 -0.3017
   56MOL    H6916679   5.752   7.728   1.339 -1.7519  0.6145 -1.4175
   56MOL    H7016680   5.896   7.757   1.238  0.8202  0.1802  0.7173
   56MOL    H7116681   5.607   7.718   1.132  0.7073 -2.0095  1.0521
   56MOL    H7216682   5.909   7.718   0.796 -1.4548 -1.6540  0.6204
   56MOL    H7316683   6.022   7.846   0.834 -0.9144 -0.0320 -0.1376
   56MOL    H7416684   6.167   7.699   0.961  0.1945 -0.4893 -0.7954
   56MOL    H7516685   6.134   7.623   0.807 -0.3915  2.6947 -1.6200
   56MOL    H7616686   6.033   7.588   0.956  0.3946  0.6364  1.4201
   56MOL    C7716687   5.671   0.006   1.159 -0.1445 -0.5783 -0.2404
   56MOL    C7816688   5.530   0.051   1.104 -0.5295  0.7614 -0.0475
   56MOL    C7916689   5.545   0.187   1.033 -0.9875  0.1223 -0.5048
   56MOL    O8016690   5.542   0.202   0.912 -0.5335 -0.3741  0.5115
   56MOL    O8116691   5.575   0.285   1.115 -0.1273 -0.1041  0.0952
   56MOL    C8216692   5.620   0.402   1.062 -0.1727 -0.3499 -0.5229
   56MOL    C8316693   5.665   0.501   1.171  0.0007  0.6490 -0.5865
   56MOL    H8416694   5.668   0.007   1.267 -0.1901 -2.3401 -0.2141
   56MOL    H8516695   5.750   0.076   1.131 -0.7579  1.7293  3.5321
   56MOL    H8616696   5.511   7.893   1.019  3.4544 -1.0053  0.3174
   56MOL    H8716697   5.699   0.376   0.991  0.4326  1.2918 -0.4709
   56MOL    H8816698   5.534   0.440   1.007 -0.8711  0.2011  0.9292
   56MOL    H8916699   5.676   0.601   1.130 -1.7380  1.0985  0.0350
   56MOL    H9016700   5.760   0.470   1.215  0.2388  0.3815 -1.2864
   56MOL    H9116701   5.597   0.512   1.255  0.9983  0.2093  0.2943
   56MOL    C9216702   5.413   0.031   1.210 -0.2354 -0.0620  0.5822
   56MOL    C9316703   5.279   7.892   1.140  0.7528  1.0070 -0.0017
   56MOL    C9416704   5.207   0.095   1.072 -0.5715  0.2573  0.2488
   56MOL    O9516705   5.141   0.073   0.973 -0.1112 -0.1168 -0.1569
   56MOL    O9616706   5.224   0.212   1.134  0.0785 -0.2532 -0.5922
   56MOL    C9716707   5.174   0.324   1.074  0.6462 -0.4887 -0.5897
   56MOL    C9816708   5.227   0.439   1.169  0.4603 -0.2684 -0.4389
   56MOL    H9916709   5.430   7.851   1.271 -1.4134 -0.6776  0.0488
   56MOL   H10016710   5.399   0.119   1.273  0.4612 -0.4403  1.2685
   56MOL   H10116711   5.305   7.818   1.065 -1.7142  0.8860 -0.7585
   56MOL   H10216712   5.204   0.335   0.970 -0.0395  2.5250 -0.4848
   56MOL   H10316713   5.066   0.313   1.080  0.6048 -0.7264 -1.7835
   56MOL   H10416714   5.333   0.421   1.189  0.3487  0.1738  0.5614
   56MOL   H10516715   5.175   0.436   1.264 -0.2560 -0.4934 -0.8347
   56MOL   H10616716   5.205   0.540   1.136  0.5019  0.9201  2.9665
   56MOL   C10716717   5.183   7.824   1.238  0.7014  0.2641  0.1773
   56MOL   C10816718   5.230   7.692   1.306  1.3300  0.0719 -0.1126
   56MOL   C10916719   5.243   7.584   1.194 -0.7558 -0.0248  0.3574
   56MOL   O11016720   5.353   7.541   1.162 -0.1159 -0.2836 -0.5418
   56MOL   O11116721   5.120   7.538   1.154 -0.0298 -0.1582 -0.3046
   56MOL   C11216722   5.107   7.438   1.058 -0.0007 -0.0031  0.0109
   56MOL   C11316723   5.045   7.499   0.927 -0.3028  0.6654 -1.0931
   56MOL   H11416724   5.166   7.895   1.320  1.7804 -0.2501  0.8529
   56MOL   H11516725   5.089   7.800   1.190  1.8922 -2.2272 -0.9826
   56MOL   H11616726   5.326   7.694   1.359  1.7032  0.8523 -0.8061
   56MOL   H11716727   5.206   7.409   1.024 -0.4333 -1.4973 -0.0350
   56MOL   H11816728   5.061   7.352   1.108 -0.7179  0.1325 -0.4178
   56MOL   H11916729   5.081   7.442   0.842 -0.1953  1.2947 -1.4709
   56MOL   H12016730   5.081   7.602   0.918  1.6554 -0.0496 -1.5099
   56MOL   H12116731   4.936   7.491   0.934  0.0015 -1.2219  4.4710
   56MOL   C12216732   5.133   7.643   1.412 -0.4665 -0.4666 -0.6436
   56MOL   C12316733   5.119   7.733   1.539 -0.0896  0.3552 -0.6492
   56MOL   C12416734   5.253   7.800   1.589  0.1770  0.0014 -0.2155
   56MOL   O12516735   5.264   0.015   1.571 -0.0922 -0.3289  0.0166
   56MOL   O12616736   5.333   7.712   1.635 -0.3213  0.3571 -0.4440
   56MOL   C12716737   5.462   7.749   1.694  0.0681  0.1962 -0.3096
   56MOL   C12816738   5.568   7.714   1.590  0.2607  0.2994 -0.0876
   56MOL   H12916739   5.031   7.622   1.381 -1.1895 -1.0081  1.9513
   56MOL   H13016740   5.164   7.545   1.449 -2.3383 -1.7621 -2.4420
   56MOL   H13116741   5.054   7.817   1.513  1.1771  2.7320  3.3869
   56MOL   H13216742   5.451   7.857   1.705 -2.3656 -0.1338  1.1131
   56MOL   H13316743   5.471   7.692   1.786 -0.2085 -1.0927 -1.0707
   56MOL   H13416744   5.557   7.772   1.498  0.7920  0.2162 -0.2037
   56MOL   H13516745   5.568   7.612   1.552 -0.8275  0.7899 -1.4317
   56MOL   H13616746   5.666   7.735   1.632  0.2310  0.3397 -0.0378
   56MOL   C13716747   5.040   7.661   1.645  0.0777  0.1464  0.0934
   56MOL   C13816748   4.988   7.755   1.754 -0.1780 -0.2793  0.3647
   56MOL   C13916749   4.940   7.677   1.876  0.4415 -0.4907 -0.1268
   56MOL   O14016750   4.998   7.685   1.984  0.3880  0.0514 -0.6047
   56MOL   O14116751   4.831   7.605   1.856 -0.5178 -0.4459  0.5852
   56MOL   C14216752   4.771   7.530   1.959  0.2276 -0.0613 -0.2530
   56MOL   C14316753   4.632   7.473   1.914 -0.1043 -0.3095 -0.3837
   56MOL   H14416754   4.954   7.611   1.602  0.9878 -1.6331  0.2714
   56MOL   H14516755   5.103   7.584   1.691  2.4210  1.7147 -0.3711
   56MOL   H14616756   5.067   7.818   1.796 -1.3490 -0.7317  3.3626
   56MOL   H14716757   4.837   7.451   1.994 -1.3888 -1.0646  0.6136
   56MOL   H14816758   4.767   7.591   2.050  0.0995  0.4663 -0.6110
   56MOL   H14916759   4.552   7.546   1.919 -1.4153 -1.8055  0.9654
   56MOL   H15016760   4.613   7.392   1.984  1.5566  0.4267  0.9618
   56MOL   H15116761   4.626   7.432   1.813 -0.2885 -3.5910  0.8989
   56MOL   C15216762   4.878   7.866   1.714 -0.5577  0.6626 -0.6325
   56MOL   C15316763   4.725   7.829   1.702  0.0948  0.5905  0.0275
   56MOL   C15416764   4.695   7.729   1.587 -0.2161 -0.2429  0.6981
   56MOL   O15516765   4.663   7.612   1.610 -0.2194 -0.2062  0.0336
   56MOL   O15616766   4.710   7.780   1.472  0.2180 -0.1258  0.0637
   56MOL   C15716767   4.658   7.715   1.361  0.3642  0.2578  0.6147
   56MOL   C15816768   4.765   7.658   1.272 -1.2913 -0.2828  0.7475
   56MOL   H15916769   4.893   0.020   1.802  0.8082 -0.8253  0.2348
   56MOL   H16016770   4.913   0.007   1.624  2.0741  1.1317  0.5921
   56MOL   H16116771   4.690   7.772   1.789  1.4046  0.0189  0.2006
   56MOL   H16216772   4.586   7.637   1.384 -3.0643  2.2891 -2.6806
   56MOL   H16316773   4.586   7.785   1.317  1.9622  1.1494 -0.6382
   56MOL   H16416774   4.823   7.586   1.331 -1.2892  0.1108  1.2309
   56MOL   H16516775   4.828   7.741   1.241 -3.5618  0.9771 -0.6220
   56MOL   H16616776   4.733   7.610   1.180 -0.0440  0.3387 -0.0303
   56MOL   C16716777   4.640   0.051   1.687 -0.2174 -0.6144  0.1658
   56MOL   C16816778   4.490   0.049   1.721  0.2009  0.4265  0.7062
   56MOL   C16916779   4.461   7.873   1.855 -0.6988 -0.1609  0.2300
   56MOL   O17016780   4.397   7.763   1.862 -0.3820 -0.3415  0.0528
   56MOL   O17116781   4.533   0.017   1.958 -0.7934  0.1809 -0.1350
   56MOL   C17216782   4.552   7.835   2.064  0.8147 -0.3763 -0.4739
   56MOL   C17316783   4.699   7.870   2.118  0.1683  0.4098  0.8499
   56MOL   H17416784   4.689   0.134   1.737 -2.6221  2.0271 -1.6648
   56MOL   H17516785   4.649   0.081   1.583 -0.9791 -0.9179  0.0065
   56MOL   H17616786   4.454   0.149   1.747 -0.1871 -0.0225  1.9533
   56MOL   H17716787   4.471   7.853   2.135  0.9692 -1.1830 -0.0810
   56MOL   H17816788   4.549   7.727   2.045 -1.7409 -0.6736  1.2875
   56MOL   H17916789   4.770   7.869   2.036 -1.8796  3.4403 -1.0970
   56MOL   H18016790   4.728   7.797   2.193  0.3372  0.9191  1.2859
   56MOL   H18116791   4.713   0.065   2.149  2.7726  0.3301  0.0169
   56MOL   C18216792   4.398   7.906   1.611 -0.4252 -0.1672  0.1007
   56MOL   C18316793   4.410   0.060   1.470  0.1499  0.1986  0.0386
   56MOL   C18416794   4.389   0.216   1.486 -0.6947 -0.2165  0.6457
   56MOL   O18516795   4.472   0.294   1.443  0.1150 -0.3423 -0.0175
   56MOL   O18616796   4.280   0.242   1.547 -0.2876  0.5548 -0.0973
   56MOL   C18716797   4.233   0.373   1.575 -0.1498 -0.2816  0.6460
   56MOL   C18816798   4.312   0.441   1.689 -0.3250  0.8219 -0.5555
   56MOL   H18916799   4.429   7.802   1.600  0.2959  0.0760 -0.2123
   56MOL   H19016800   4.293   7.903   1.640 -0.4988 -1.0282 -0.2244
   56MOL   H19116801   4.507   0.029   1.431 -0.3966 -2.7976  0.9196
   56MOL   H19216802   4.216   0.431   1.485 -3.5786  0.8661  1.9465
   56MOL   H19316803   4.132   0.352   1.612 -0.4224  2.2424  1.4533
   56MOL   H19416804   4.264   0.535   1.715 -3.3128 -0.7468 -0.1721
   56MOL   H19516805   4.413   0.451   1.648  0.0270 -1.5269 -0.3683
   56MOL   H19616806   4.302   0.382   1.781 -1.7945  2.8346  0.6105
   56MOL   C19716807   4.293   0.014   1.376 -0.6785  0.5959  0.1844
   56MOL   C19816808   4.319   0.033   1.226 -0.7085 -0.4112 -0.2405
   56MOL   C19916809   4.300   0.178   1.183 -1.2284  0.0635 -0.4182
   56MOL   O20016810   4.195   0.235   1.204  0.3699 -0.3875  0.6554
   56MOL   O20116811   4.405   0.223   1.129 -0.2250 -1.2381  0.7574
   56MOL   C20216812   4.404   0.344   1.061 -0.3460 -0.7003  0.7105
   56MOL   C20316813   4.471   0.451   1.146 -0.1708 -0.0074 -0.4861
   56MOL   H20416814   4.265   7.819   1.399  0.2340  0.4997  0.8865
   56MOL   H20516815   4.199   0.055   1.413 -0.7000  0.9995 -0.3183
   56MOL   H20616816   4.427   0.014   1.226 -0.2314  2.0207 -2.2106
   56MOL   H20716817   4.442   0.350   0.959 -3.5849 -1.8067 -0.6427
   56MOL   H20816818   4.305   0.380   1.033 -0.9271  0.2160  3.7424
   56MOL   H20916819   4.504   0.529   1.078  1.5613  0.0645  0.3948
   56MOL   H21016820   4.566   0.415   1.187 -0.2622  0.0826 -0.1889
   56MOL   H21116821   4.400   0.489   1.220 -1.6861 -1.5843 -1.0999
   56MOL   C21216822   4.245   7.837   1.142 -0.4292 -0.2518 -0.5015
   56MOL   C21316823   4.277   7.828   0.991 -0.5164  0.2748  0.3742
   56MOL   C21416824   4.189   7.723   0.922  0.0288  1.2595  0.5431
   56MOL   O21516825   4.233   7.629   0.849 -0.2633  0.4498  0.4220
   56MOL   O21616826   4.057   7.737   0.946 -0.5213 -0.2832 -0.1038
   56MOL   C21716827   3.952   7.669   0.878  0.5890  0.2833  0.0101
   56MOL   C21816828   3.823   7.654   0.951  0.6258 -0.0342 -0.0417
   56MOL   H21916829   4.276   7.742   1.184 -2.5140 -1.3730 -1.4536
   56MOL   H22016830   4.145   7.843   1.184  1.5978  4.7027  4.2986
   56MOL   H22116831   4.254   0.021   0.957  0.4532  0.6533  0.7975
   56MOL   H22216832   3.927   7.718   0.783  1.0770  0.5529  0.0182
   56MOL   H22316833   3.983   7.566   0.860 -1.4112 -0.1523 -1.0627
   56MOL   H22416834   3.752   7.592   0.896  0.3046 -1.8586  2.3455
   56MOL   H22516835   3.779   7.747   0.986  1.9048  0.0985  1.2521
   56MOL   H22616836   3.849   7.599   1.041  1.6523 -0.1735 -0.4210
   56MOL   C22716837   4.430   7.816   0.960  0.1342 -0.0753  0.2126
   56MOL   C22816838   4.462   7.845   0.808  0.4860  0.0420  0.0808
   56MOL   C22916839   4.599   7.802   0.762  0.2714 -0.1757  0.0660
   56MOL   O23016840   4.620   7.729   0.661  0.4710 -0.0837 -0.2693
   56MOL   O23116841   4.700   7.852   0.840  0.2329 -0.0535 -0.8908
   56MOL   C23216842   4.824   7.789   0.855 -0.2589  0.1236  0.1041
   56MOL   C23316843   4.930   7.835   0.758 -0.7317  0.5616  0.5537
   56MOL   H23416844   4.488   7.876   1.030  0.5622 -0.7963  0.4815
   56MOL   H23516845   4.453   7.713   0.985  0.3111 -0.0525  0.1503
   56MOL   H23616846   4.389   7.780   0.760 -2.5682  1.9956  1.9092
   56MOL   H23716847   4.857   7.822   0.954 -0.5381  1.8967 -0.3777
   56MOL   H23816848   4.814   7.681   0.846 -0.1727 -0.1426  2.6985
   56MOL   H23916849   4.910   0.031   0.734 -0.9535  0.1712 -0.9858
   56MOL   H24016850   4.925   7.770   0.671  0.3212  0.7311  0.3602
   56MOL   H24116851   5.033   7.833   0.795  0.9087 -0.6229 -3.8225
   56MOL   C24216852   4.439   0.082   0.756  0.0601 -0.2788 -0.2757
   56MOL   C24316853   4.339   0.106   0.642  0.1595  0.4253 -0.1865
   56MOL   C24416854   4.393   0.050   0.509  0.1484  0.1886  0.2536
   56MOL   O24516855   4.439   0.131   0.429 -0.4067  0.1047 -0.2376
   56MOL   O24616856   4.368   7.827   0.484  0.1486  0.1635  0.2776
   56MOL   C24716857   4.401   7.772   0.354 -0.2503  1.0612  0.0353
   56MOL   C24816858   4.529   7.689   0.360 -0.8204  1.1192 -0.8331
   56MOL   H24916859   4.391   0.134   0.838 -0.3104 -1.5645  0.3418
   56MOL   H25016860   4.532   0.133   0.731 -0.0806 -0.2235 -0.6791
   56MOL   H25116861   4.254   0.045   0.671 -0.4537  1.0504 -0.6671
   56MOL   H25216862   4.319   7.711   0.316  1.2623 -0.8585 -0.2359
   56MOL   H25316863   4.428   7.855   0.289  0.1839  1.2078  0.4010
   56MOL   H25416864   4.612   7.739   0.409  0.7906  0.1971 -2.5884
   56MOL   H25516865   4.562   7.645   0.266  1.3121  0.4559  0.1950
   56MOL   H25616866   4.520   7.598   0.420  1.8616  2.2181  1.3488
   56MOL   C25716867   4.310   0.261   0.629  0.4746 -0.3904 -0.9766
   56MOL   C25816868   4.206   0.325   0.728  0.7504 -0.7587 -0.0014
   56MOL   C25916869   4.073   0.249   0.746 -0.0511 -0.5433  0.3479
   56MOL   O26016870   4.052   0.137   0.696  0.2704 -0.3273 -0.1331
   56MOL   O26116871   3.992   0.323   0.822 -0.1978  0.2517 -0.2590
   56MOL   C26216872   3.867   0.287   0.875 -0.5782 -0.0258  0.4258
   56MOL   C26316873   3.897   0.216   1.002 -0.1656 -0.4127  0.0656
   56MOL   H26416874   4.396   0.327   0.614 -0.1150 -0.0547 -3.1011
   56MOL   H26516875   4.259   0.270   0.533 -1.6480  1.9322  0.2984
   56MOL   H26616876   4.258   0.328   0.824  0.9949  2.9390 -0.1683
   56MOL   H26716877   3.814   0.382   0.888  0.5954  1.3639 -4.1385
   56MOL   H26816878   3.816   0.220   0.806  1.5852 -3.0497  1.6424
   56MOL   H26916879   3.806   0.200   1.059 -1.1341 -1.7475 -1.7998
   56MOL   H27016880   3.957   0.278   1.069 -0.2783  0.0030 -0.2206
   56MOL   H27116881   3.951   0.122   0.990  0.3180 -0.0524 -0.6417
   56MOL   C27216882   4.186   0.475   0.679  0.0303 -0.3725 -0.2709
   56MOL   C27316883   4.222   0.581   0.785  0.6430  0.1674 -0.5165
   56MOL   C27416884   4.120   0.593   0.898 -0.1823 -0.3064 -0.2226
   56MOL   O27516885   4.153   0.557   1.010  0.3683  0.0122  0.3798
   56MOL   O27616886   4.002   0.647   0.860  0.1927  0.3428  0.4461
   56MOL   C27716887   3.918   0.689   0.959 -1.1459 -0.7231  0.6811
   56MOL   C27816888   3.833   0.815   0.919  0.2310  0.5793  0.6493
   56MOL   H27916889   4.238   0.483   0.583  0.6657  2.5556  0.2741
   56MOL   H28016890   4.085   0.481   0.640 -0.6547  1.2316  1.6813
   56MOL   H28116891   4.307   0.533   0.833 -1.7053 -2.0683  1.5937
   56MOL   H28216892   3.870   0.595   0.983  0.8077 -1.8124  0.3908
   56MOL   H28316893   3.974   0.717   1.049  1.7732 -0.9346 -1.0397
   56MOL   H28416894   3.882   0.883   0.850  2.2700  0.0167  1.5116
   56MOL   H28516895   3.807   0.860   1.015 -1.2647 -1.1842  1.1027
   56MOL   H28616896   3.741   0.782   0.869  0.6011  0.9504 -0.2869
   56MOL   C28716897   4.261   0.716   0.727 -0.1957 -0.1875  0.9534
   56MOL   C28816898   4.406   0.720   0.679  0.0474  0.1899  0.4659
   56MOL   C28916899   4.431   0.852   0.604  0.0609  0.5053  0.7197
   56MOL   O29016900   4.485   0.848   0.494 -0.6625  0.4790  0.1037
   56MOL   O29116901   4.390   0.957   0.672  0.2140  0.0886 -0.4984
   56MOL   C29216902   4.454   1.080   0.656  0.1135 -0.3813  0.1549
   56MOL   C29316903   4.438   1.179   0.779  0.2941  0.2583 -0.1836
   56MOL   H29416904   4.185   0.736   0.652  0.6419 -1.9327 -0.4200
   56MOL   H29516905   4.245   0.797   0.798 -2.0777 -1.4094  1.9669
   56MOL   H29616906   4.485   0.714   0.753  0.4990 -0.3596 -0.0620
   56MOL   H29716907   4.561   1.061   0.647 -0.1683 -1.7796 -0.2371
   56MOL   H29816908   4.416   1.126   0.565  0.0978 -0.5884  0.0566
   56MOL   H29916909   4.485   1.141   0.870 -0.2903  2.6308  1.1439
   56MOL   H30016910   4.334   1.193   0.810 -0.1223 -0.2777 -1.3048
   56MOL   H30116911   4.487   1.273   0.753  1.0257  0.0839  0.5210
   56MOL   H30216912   4.420   0.643   0.603  1.7493  2.4909 -1.6093
   57MOL     C116913   0.555   3.203   0.826  0.2343 -0.5757 -0.4257
   57MOL     C216914   0.549   3.139   0.971  0.3387 -0.3878  0.6933
   57MOL     C316915   0.593   3.230   1.080  0.2014  0.3336  0.9885
   57MOL     O416916   0.702   3.210   1.127 -0.1330  0.1340  0.1442
   57MOL     O516917   0.516   3.344   1.107  0.0138 -0.2524 -0.3322
   57MOL     C616918   0.554   3.431   1.213 -0.2081  0.0348  1.4720
   57MOL     C716919   0.528   3.379   1.349  0.5103  0.1893 -0.6233
   57MOL     H816920   0.483   3.282   0.804 -0.2650 -0.8328  0.2469
   57MOL     H916921   0.539   3.125   0.752  1.3868 -1.3685  0.1449
   57MOL    H1016922   0.443   3.122   0.993 -0.2352  1.2550 -0.6884
   57MOL    H1116923   0.655   3.468   1.197 -0.3879 -0.7040 -1.7465
   57MOL    H1216924   0.489   3.517   1.194 -1.9287 -1.6183 -0.3833
   57MOL    H1316925   0.589   3.430   1.422  1.5287 -0.5673 -0.9309
   57MOL    H1416926   0.552   3.273   1.357 -0.9598  0.0588  2.6393
   57MOL    H1516927   0.425   3.395   1.382  0.3197 -1.3234 -0.4247
   57MOL    H1616928   0.653   3.246   0.805  0.9743 -0.7152  2.4345
   57MOL    C1716929   0.620   3.007   0.969  0.8228 -0.5722  0.1096
   57MOL    C1816930   0.564   2.890   0.881  0.2384 -0.1401  0.4176
   57MOL    C1916931   0.463   2.801   0.960  0.1085  0.7204 -0.6947
   57MOL    O2016932   0.340   2.796   0.931 -0.1523 -0.3742  0.0541
   57MOL    O2116933   0.517   2.726   1.055 -1.1147 -0.3161 -0.2102
   57MOL    C2216934   0.440   2.625   1.124  0.5854  0.7013  0.2139
   57MOL    C2316935   0.470   2.623   1.281  0.1524 -0.4932  0.8754
   57MOL    H2416936   0.723   3.024   0.937  0.4205 -1.5991 -1.7740
   57MOL    H2516937   0.626   2.963   1.068  3.0782 -2.3259 -0.7762
   57MOL    H2616938   0.500   2.940   0.807  0.5515 -1.3671 -0.6984
   57MOL    H2716939   0.333   2.611   1.114  0.7267 -0.4427  0.1433
   57MOL    H2816940   0.486   2.528   1.102  1.2275  0.9429  0.4845
   57MOL    H2916941   0.454   2.724   1.318  0.5339 -0.3534  0.6708
   57MOL    H3016942   0.578   2.613   1.294  0.6096 -1.3224 -2.8302
   57MOL    H3116943   0.418   2.555   1.347  1.8686 -1.5660  1.1603
   57MOL    C3216944   0.676   2.803   0.820 -0.7643 -0.2223 -0.1247
   57MOL    C3316945   0.719   2.832   0.668  0.1773  0.4625 -0.2517
   57MOL    C3416946   0.610   2.794   0.569  0.7022 -0.1838 -0.2499
   57MOL    O3516947   0.520   2.718   0.607 -0.1537  0.0700 -0.2661
   57MOL    O3616948   0.611   2.866   0.456 -0.5197 -0.3986  0.2005
   57MOL    C3716949   0.506   2.844   0.360 -0.1359  0.1984  0.2765
   57MOL    C3816950   0.411   2.957   0.364  0.5501 -0.0965  0.2512
   57MOL    H3916951   0.766   2.793   0.881 -0.6843  0.2485 -0.1629
   57MOL    H4016952   0.648   2.698   0.810  1.3698 -0.8267 -0.1258
   57MOL    H4116953   0.721   2.940   0.658  3.0216  0.5031  0.1968
   57MOL    H4216954   0.548   2.817   0.263  0.1614  0.4362  0.3384
   57MOL    H4316955   0.441   2.759   0.383  1.3939 -1.1117 -0.0785
   57MOL    H4416956   0.351   2.955   0.455  0.4529  2.0782  0.2611
   57MOL    H4516957   0.344   2.957   0.278  2.3862  1.6245 -1.2249
   57MOL    H4616958   0.453   3.056   0.345 -1.2487  0.9033  1.2360
   57MOL    C4716959   0.867   2.785   0.632 -0.9599  0.8740 -0.6280
   57MOL    C4816960   0.877   2.633   0.611  0.2653  0.0656 -0.4693
   57MOL    C4916961   0.887   2.556   0.746  0.1499 -1.0779  0.4446
   57MOL    O5016962   0.950   2.608   0.837 -0.3235  0.4342 -0.2172
   57MOL    O5116963   0.826   2.433   0.742 -0.1962 -0.6433  0.1453
   57MOL    C5216964   0.820   2.359   0.864 -0.5307  0.8366 -0.4336
   57MOL    C5316965   0.672   2.316   0.891  0.2240  0.1811  0.5751
   57MOL    H5416966   0.898   2.832   0.539 -3.3073  2.6074 -0.5860
   57MOL    H5516967   0.940   2.816   0.706  0.4095  1.5128 -2.2016
   57MOL    H5616968   0.787   2.590   0.566 -0.2104  3.1985 -2.7116
   57MOL    H5716969   0.888   2.276   0.846  1.2389  2.1086  0.1869
   57MOL    H5816970   0.866   2.412   0.947 -0.1560 -0.7519  0.3827
   57MOL    H5916971   0.656   2.258   0.982 -1.0826  1.5608  1.2435
   57MOL    H6016972   0.628   2.257   0.811  1.1274  0.7993 -0.3997
   57MOL    H6116973   0.615   2.406   0.912  0.2581 -0.4230  3.4395
   57MOL    C6216974   1.005   2.592   0.530  0.4526  0.6330 -0.2203
   57MOL    C6316975   1.025   2.442   0.513  0.3881 -0.0993 -0.3943
   57MOL    C6416976   1.168   2.397   0.517  0.2104  0.0791 -0.0021
   57MOL    O6516977   1.230   2.359   0.415 -0.2288  0.9599  0.0042
   57MOL    O6616978   1.221   2.401   0.642 -0.0742  0.1341  0.8487
   57MOL    C6716979   1.353   2.358   0.665  0.5262 -0.3920 -0.1071
   57MOL    C6816980   1.353   2.200   0.685 -0.0105 -0.3542  0.2023
   57MOL    H6916981   0.987   2.645   0.436  1.3662  1.2938 -0.0297
   57MOL    H7016982   1.087   2.633   0.590  1.3641  0.5152 -1.3626
   57MOL    H7116983   0.989   2.377   0.592 -0.1279 -2.6092 -2.6434
   57MOL    H7216984   1.420   2.391   0.586 -0.8040 -0.3240 -1.2205
   57MOL    H7316985   1.383   2.411   0.756 -2.6145  0.7915  0.2907
   57MOL    H7416986   1.266   2.169   0.745  1.2161 -1.9981  1.1811
   57MOL    H7516987   1.444   2.170   0.736 -1.5389 -4.4204  0.7582
   57MOL    H7616988   1.338   2.148   0.590  0.9866  0.9631 -0.6806
   57MOL    C7716989   0.956   2.402   0.380  0.1231 -0.4737 -0.3397
   57MOL    C7816990   0.925   2.251   0.348 -0.0693 -0.3762 -0.1627
   57MOL    C7916991   0.865   2.219   0.214  0.1228  0.3472 -0.7016
   57MOL    O8016992   0.832   2.099   0.187  0.1123 -0.2351  0.1406
   57MOL    O8116993   0.873   2.319   0.125  0.0947  0.4146 -0.4858
   57MOL    C8216994   0.822   2.295   7.904 -0.5999  0.6147 -0.4241
   57MOL    C8316995   0.854   2.402   7.800  0.4265  0.4283 -0.0673
   57MOL    H8416996   0.858   2.449   0.376  0.1353 -0.4537 -0.4207
   57MOL    H8516997   1.017   2.447   0.302 -0.6519 -1.1457 -1.3545
   57MOL    H8616998   1.015   2.192   0.359  0.9568  1.1072 -0.4943
   57MOL    H8716999   0.857   2.199   7.868 -0.0986  1.2308 -1.6174
   57MOL    H8817000   0.713   2.290   7.905 -0.5976  0.6235  1.6830
   57MOL    H8917001   0.849   2.501   7.846  0.6335  0.5854 -0.3827
   57MOL    H9017002   0.783   2.393   7.717 -0.3440  1.6811  0.4290
   57MOL    H9117003   0.956   2.397   7.762  0.5913 -1.6972  0.5970
   57MOL    C9217004   0.820   2.192   0.456  0.4785  0.1983  0.0528
   57MOL    C9317005   0.844   2.043   0.486 -0.1796  0.0221  0.3315
   57MOL    C9417006   0.721   1.968   0.539 -0.6081 -0.5562 -0.0279
   57MOL    O9517007   0.672   1.860   0.491  0.0290 -0.2538  0.2163
   57MOL    O9617008   0.675   2.024   0.658  0.2722  0.1642  0.4631
   57MOL    C9717009   0.561   1.973   0.714 -0.5105  0.4172  0.5477
   57MOL    C9817010   0.571   1.865   0.828  0.2448 -0.0930  0.2876
   57MOL    H9917011   0.829   2.245   0.550 -0.8902 -1.3849  1.1180
   57MOL   H10017012   0.718   2.207   0.421 -0.1749  0.1757  1.9271
   57MOL   H10117013   0.859   1.982   0.397 -1.1959 -1.0690  0.9028
   57MOL   H10217014   0.514   2.053   0.770  0.2816  0.2275  1.5065
   57MOL   H10317015   0.488   1.944   0.639 -1.0103  2.3586  0.2653
   57MOL   H10417016   0.635   1.783   0.794  0.2144  0.2032 -0.4987
   57MOL   H10517017   0.473   1.831   0.859  0.3824 -1.6838 -0.9510
   57MOL   H10617018   0.617   1.912   0.915 -1.8780  0.8604  0.9203
   57MOL   C10717019   0.962   2.022   0.580 -0.0978 -0.1400 -0.4173
   57MOL   C10817020   1.039   1.886   0.568  0.1857  0.9674  0.2869
   57MOL   C10917021   1.099   1.828   0.701 -0.7243 -0.2072  0.2127
   57MOL   O11017022   1.043   1.733   0.759  0.4980 -0.6412  0.0864
   57MOL   O11117023   1.209   1.880   0.744  0.1750 -0.4762 -0.2623
   57MOL   C11217024   1.282   1.826   0.855 -0.0657 -0.1904 -0.2072
   57MOL   C11317025   1.402   1.912   0.886 -0.1988  0.3365  0.2635
   57MOL   H11417026   1.040   2.095   0.564 -0.5753  0.2236 -1.1277
   57MOL   H11517027   0.937   2.046   0.684 -0.8249 -0.5051 -0.5001
   57MOL   H11617028   0.963   1.815   0.535  0.2951 -0.0333  2.1166
   57MOL   H11717029   1.219   1.826   0.944 -0.7073  1.8638 -0.6465
   57MOL   H11817030   1.320   1.725   0.840  2.6388  0.3857  2.2628
   57MOL   H11917031   1.389   2.019   0.868 -0.2847  0.1157 -1.0704
   57MOL   H12017032   1.479   1.898   0.809 -1.3865 -0.7147 -0.7574
   57MOL   H12117033   1.447   1.898   0.984 -1.6261  0.2292  0.9085
   57MOL   C12217034   1.145   1.887   0.452  0.1962  0.4128  0.0388
   57MOL   C12317035   1.187   1.757   0.390 -0.4546  0.6360  0.2949
   57MOL   C12417036   1.067   1.665   0.344  0.1605  0.0225 -0.6892
   57MOL   O12517037   1.047   1.568   0.416 -0.7978  0.4347 -0.0507
   57MOL   O12617038   1.002   1.702   0.238  0.0666 -0.2126  0.6298
   57MOL   C12717039   0.889   1.634   0.183 -0.0190  0.5705  0.2402
   57MOL   C12817040   0.755   1.673   0.239 -0.3241  0.0553  0.0098
   57MOL   H12917041   1.101   1.936   0.365  1.4455  0.9911 -0.2696
   57MOL   H13017042   1.230   1.949   0.479 -0.4305  0.1789  2.7096
   57MOL   H13117043   1.235   1.781   0.295 -1.0295 -0.4587 -0.2778
   57MOL   H13217044   0.900   1.650   0.076  1.0369 -1.0095  0.0876
   57MOL   H13317045   0.905   1.526   0.189  0.6380  0.7175  1.2557
   57MOL   H13417046   0.749   1.782   0.234  0.6852  0.0573 -1.3892
   57MOL   H13517047   0.746   1.649   0.345  0.8602  0.1340  0.1283
   57MOL   H13617048   0.668   1.628   0.192  1.3430 -0.8942 -2.2303
   57MOL   C13717049   1.305   1.678   0.475  0.3426  0.8719  0.4714
   57MOL   C13817050   1.420   1.635   0.379 -0.2961 -0.0411  0.0124
   57MOL   C13917051   1.380   1.547   0.270 -0.6553  0.5239 -0.0522
   57MOL   O14017052   1.391   1.569   0.153 -0.5330  0.1499  0.1940
   57MOL   O14117053   1.347   1.426   0.318 -0.1542 -0.0593 -0.0958
   57MOL   C14217054   1.312   1.313   0.232  0.2659 -0.4356 -0.4082
   57MOL   C14317055   1.380   1.183   0.272  0.4381  0.5163 -0.1062
   57MOL   H14417056   1.350   1.747   0.547 -1.7582 -0.4566  3.1829
   57MOL   H14517057   1.258   1.605   0.541  1.4647  0.0417  0.3557
   57MOL   H14617058   1.458   1.727   0.335  0.8666 -0.7780 -0.5588
   57MOL   H14717059   1.204   1.298   0.233  0.1984  0.0846  0.4383
   57MOL   H14817060   1.344   1.333   0.129 -0.6375 -1.2338 -0.8567
   57MOL   H14917061   1.484   1.195   0.302  0.0716 -0.5938  1.6641
   57MOL   H15017062   1.372   1.115   0.186  2.0195  0.6795 -0.3883
   57MOL   H15117063   1.345   1.124   0.357 -0.5870  0.9950 -0.1889
   57MOL   C15217064   1.534   1.574   0.447 -0.0879 -0.6375  0.4608
   57MOL   C15317065   1.669   1.553   0.363 -0.0503  0.2732 -0.4870
   57MOL   C15417066   1.726   1.412   0.387 -0.1612 -0.8490 -0.3508
   57MOL   O15517067   1.704   1.318   0.312 -0.6968  0.4987 -0.1171
   57MOL   O15617068   1.794   1.400   0.500 -0.5481  0.5002 -0.4145
   57MOL   C15717069   1.863   1.279   0.537 -0.2246  0.5148  0.1811
   57MOL   C15817070   2.005   1.323   0.577 -0.1395 -0.4892  0.9386
   57MOL   H15917071   1.576   1.636   0.526  0.8047  0.0788 -0.5584
   57MOL   H16017072   1.509   1.489   0.511 -0.4529  0.0596  1.2576
   57MOL   H16117073   1.647   1.550   0.256  0.9446  0.3986 -0.7034
   57MOL   H16217074   1.807   1.246   0.625 -1.2998  1.1539 -0.2525
   57MOL   H16317075   1.860   1.207   0.455  0.0955  0.2089  0.4373
   57MOL   H16417076   2.058   1.242   0.627 -1.2705 -0.8059  1.6437
   57MOL   H16517077   2.015   1.416   0.634  0.4180 -0.6059  1.0356
   57MOL   H16617078   2.056   1.340   0.482 -1.8712  0.9302  0.2416
   57MOL   C16717079   1.772   1.665   0.390 -0.3660  0.5032 -0.4910
   57MOL   C16817080   1.738   1.797   0.319  0.0900 -0.4137  0.7452
   57MOL   C16917081   1.754   1.787   0.163  0.7228  0.1248 -0.3824
   57MOL   O17017082   1.809   1.686   0.116  0.2633  0.0333 -0.1586
   57MOL   O17117083   1.685   1.882   0.101 -0.1819  0.1166 -0.4805
   57MOL   C17217084   1.653   1.883   7.871  0.4395 -0.0841  0.4769
   57MOL   C17317085   1.730   1.989   7.803  0.0281 -0.5367  0.1611
   57MOL   H17417086   1.784   1.680   0.498 -0.8334  0.0884 -0.3846
   57MOL   H17517087   1.871   1.638   0.354  0.5840 -0.5257  2.6968
   57MOL   H17617088   1.633   1.817   0.341 -0.6564 -1.4156 -1.7273
   57MOL   H17717089   1.665   1.786   7.823  2.7094 -0.4022  1.5996
   57MOL   H17817090   1.549   1.915   7.868  0.2027 -0.7559  1.4048
   57MOL   H17917091   1.703   2.091   7.829  1.4015 -0.2883  0.6811
   57MOL   H18017092   1.714   1.977   7.696 -0.5122  0.7219  0.0988
   57MOL   H18117093   1.838   1.979   7.815 -0.1926 -0.3813  2.3952
   57MOL   C18217094   1.830   1.911   0.367  0.3343 -0.1501  0.2584
   57MOL   C18317095   1.777   1.978   0.500  0.1000  0.0353  0.3310
   57MOL   C18417096   1.636   2.043   0.466  0.1507  0.5906  0.4578
   57MOL   O18517097   1.538   1.996   0.519  0.1388 -0.0170  0.1192
   57MOL   O18617098   1.637   2.141   0.375  0.1495 -0.2651  0.3307
   57MOL   C18717099   1.512   2.187   0.323 -0.1342  0.0240  0.4603
   57MOL   C18817100   1.530   2.285   0.204 -0.0567  0.1510  0.3805
   57MOL   H18917101   1.931   1.871   0.380  0.6705  0.4173 -0.5382
   57MOL   H19017102   1.843   1.991   0.294 -0.5891  0.7844  1.1024
   57MOL   H19117103   1.758   1.906   0.579 -1.9292 -1.4565 -1.4689
   57MOL   H19217104   1.460   2.098   0.287 -0.7670  1.2170 -1.6783
   57MOL   H19317105   1.459   2.236   0.405 -2.0312 -0.5648 -0.3928
   57MOL   H19417106   1.574   2.243   0.113  0.2695 -0.3082  0.7491
   57MOL   H19517107   1.590   2.372   0.226 -1.1619  1.8580 -2.9881
   57MOL   H19617108   1.428   2.323   0.198  0.4843  1.5599  0.0698
   57MOL   C19717109   1.874   2.084   0.554  0.1182 -0.3944  0.0444
   57MOL   C19817110   1.825   2.158   0.688  0.2370  0.0735 -0.2501
   57MOL   C19917111   1.909   2.288   0.702  0.1038 -0.0237 -0.4713
   57MOL   O20017112   1.862   2.395   0.682  0.2195 -0.4556  0.4168
   57MOL   O20117113   2.037   2.255   0.735 -0.3587  0.2162 -0.1472
   57MOL   C20217114   2.133   2.360   0.745  0.2712  0.3846  0.6541
   57MOL   C20317115   2.195   2.366   0.879  0.1071  0.1054  0.0013
   57MOL   H20417116   1.978   2.051   0.563  0.7331  1.8830  1.7923
   57MOL   H20517117   1.891   2.148   0.468  2.6521 -2.1693 -0.8274
   57MOL   H20617118   1.723   2.193   0.672  0.1149 -0.1001  0.1542
   57MOL   H20717119   2.208   2.334   0.670  0.4195  0.1363  0.8887
   57MOL   H20817120   2.094   2.460   0.722  2.8347  1.9958  2.9751
   57MOL   H20917121   2.136   2.414   0.957  3.4215  3.5470  0.5716
   57MOL   H21017122   2.289   2.421   0.888  2.0881 -3.3957  1.5495
   57MOL   H21117123   2.222   2.266   0.913 -2.5540 -1.0203 -1.0850
   57MOL   C21217124   1.835   2.069   0.812  0.4808  0.0601  0.0162
   57MOL   C21317125   1.802   2.142   0.950  0.2029  0.7514  0.7385
   57MOL   C21417126   1.879   2.083   1.060 -0.1213  0.1306  0.2829
   57MOL   O21517127   1.827   2.038   1.158  0.0966  0.0885 -0.3533
   57MOL   O21617128   2.015   2.090   1.049  0.0726  0.0280  0.3688
   57MOL   C21717129   2.097   2.019   1.138 -0.3956 -0.3307  0.8702
   57MOL   C21817130   2.247   2.024   1.114  0.0856  0.1659 -0.2847
   57MOL   H21917131   1.772   1.981   0.801 -2.0199  1.6718  0.9342
   57MOL   H22017132   1.938   2.034   0.806  0.8122  0.8311  1.0906
   57MOL   H22117133   1.838   2.245   0.938  2.0566 -0.0244 -0.6738
   57MOL   H22217134   2.077   2.057   1.239  0.8863  0.3969  0.8683
   57MOL   H22317135   2.074   1.913   1.145  0.3802 -1.0258 -4.9150
   57MOL   H22417136   2.267   1.969   1.022 -1.4143 -0.7518 -0.0822
   57MOL   H22517137   2.295   1.976   1.199  2.4420  0.1574 -1.5478
   57MOL   H22617138   2.281   2.125   1.093 -1.4356  0.9386  0.8721
   57MOL   C22717139   1.651   2.145   0.967 -0.2624 -0.0390 -0.1768
   57MOL   C22817140   1.591   2.247   1.069  0.2843 -0.0745  0.2595
   57MOL   C22917141   1.455   2.199   1.130  0.1259 -0.2749  0.1513
   57MOL   O23017142   1.460   2.123   1.225  0.4589 -0.1499  0.3107
   57MOL   O23117143   1.340   2.236   1.060  0.4854  0.4375 -0.2781
   57MOL   C23217144   1.214   2.180   1.107 -0.1955  0.5819 -0.0075
   57MOL   C23317145   1.124   2.204   0.996 -0.2231  0.6201  0.1909
   57MOL   H23417146   1.612   2.174   0.869 -0.0230 -0.3290 -0.3585
   57MOL   H23517147   1.622   2.041   0.983  1.7354 -0.4511  0.8766
   57MOL   H23617148   1.666   2.256   1.147  0.6778 -1.1907  0.0302
   57MOL   H23717149   1.211   2.074   1.132  1.0424  0.4379 -0.4347
   57MOL   H23817150   1.189   2.239   1.195  1.4866  2.0483 -0.4771
   57MOL   H23917151   1.124   2.121   0.925  0.6879  1.4633 -0.8006
   57MOL   H24017152   1.142   2.296   0.941 -1.3978  1.4815  1.2067
   57MOL   H24117153   1.022   2.207   1.035  0.8116  2.1470  2.8440
   57MOL   C24217154   1.588   2.389   1.008  0.1349  0.3931 -0.4638
   57MOL   C24317155   1.528   2.498   1.102 -0.2232  0.0252  0.0618
   57MOL   C24417156   1.399   2.552   1.048  0.9102  0.4731 -0.5567
   57MOL   O24517157   1.292   2.524   1.102 -0.6657  0.5532 -0.1213
   57MOL   O24617158   1.416   2.632   0.940  0.0659  0.3100  0.4187
   57MOL   C24717159   1.306   2.692   0.873 -0.2945  0.1328  0.0578
   57MOL   C24817160   1.289   2.837   0.926 -0.3540 -0.1653  0.8738
   57MOL   H24917161   1.689   2.419   0.982  0.8048 -1.1037  0.3756
   57MOL   H25017162   1.523   2.395   0.920 -0.0509 -1.7598 -0.4892
   57MOL   H25117163   1.504   2.445   1.195 -1.3433  0.2787 -0.0856
   57MOL   H25217164   1.337   2.695   0.769 -1.3176 -0.8466 -0.2767
   57MOL   H25317165   1.221   2.625   0.873  0.3051 -0.6338 -0.4186
   57MOL   H25417166   1.337   2.850   1.023  0.2400  0.5006  0.4929
   57MOL   H25517167   1.182   2.852   0.940 -0.8770 -1.2045 -1.6832
   57MOL   H25617168   1.331   2.905   0.852  0.9324 -0.9808  0.8490
   57MOL   C25717169   1.623   2.610   1.133 -0.1813 -0.4240 -0.2432
   57MOL   C25817170   1.744   2.563   1.216  0.3122 -0.5386 -0.2300
   57MOL   C25917171   1.705   2.526   1.363 -0.1249  0.1474 -0.8663
   57MOL   O26017172   1.686   2.404   1.386 -0.7856  0.5036  0.5859
   57MOL   O26117173   1.705   2.629   1.446  0.2049  0.6570 -0.0584
   57MOL   C26217174   1.664   2.619   1.580  0.1747  0.3169 -0.4349
   57MOL   C26317175   1.761   2.534   1.669  0.3204  0.0294  0.3291
   57MOL   H26417176   1.653   2.651   1.036  1.9288  1.4863  1.1623
   57MOL   H26517177   1.579   2.699   1.178 -1.8838 -1.0191 -0.7110
   57MOL   H26617178   1.793   2.473   1.179 -0.3098 -0.7440 -0.5584
   57MOL   H26717179   1.651   2.721   1.617 -1.8272  0.2248 -0.8143
   57MOL   H26817180   1.560   2.588   1.571  0.5606 -0.7466 -1.2453
   57MOL   H26917181   1.763   2.439   1.616  1.8880  0.9894 -1.3849
   57MOL   H27017182   1.733   2.521   1.773 -1.1462 -1.1674 -0.1974
   57MOL   H27117183   1.862   2.572   1.654  0.2503 -0.1971 -0.7919
   57MOL   C27217184   1.854   2.670   1.203  0.4644  0.2936  0.3319
   57MOL   C27317185   1.987   2.632   1.270  0.0541  0.4434  0.6858
   57MOL   C27417186   2.070   2.759   1.297  0.8695 -0.4698  0.5490
   57MOL   O27517187   2.054   2.864   1.240 -0.8588 -0.4435  0.0913
   57MOL   O27617188   2.146   2.745   1.411 -0.1043  0.0520 -0.1157
   57MOL   C27717189   2.208   2.855   1.477 -0.1428 -0.6098  0.1486
   57MOL   C27817190   2.112   2.914   1.577 -0.1594  0.3538 -0.0975
   57MOL   H27917191   1.900   2.686   1.105  0.2894  1.4578  0.4276
   57MOL   H28017192   1.817   2.766   1.238 -2.1004 -0.9893  1.2458
   57MOL   H28117193   1.948   2.586   1.361  0.2278  1.0630  1.0789
   57MOL   H28217194   2.296   2.812   1.525 -1.2049 -0.9472  1.8375
   57MOL   H28317195   2.249   2.918   1.399 -1.8797 -0.3908 -0.6260
   57MOL   H28417196   2.021   2.952   1.530 -0.4110 -0.3760 -0.1960
   57MOL   H28517197   2.162   2.997   1.629  1.5889 -0.8304  0.1542
   57MOL   H28617198   2.069   2.843   1.647  0.0081 -0.5305 -0.8956
   57MOL   C28717199   2.071   2.525   1.198 -0.3572  0.4052  0.5304
   57MOL   C28817200   2.159   2.427   1.265  0.7986 -0.3721  0.2132
   57MOL   C28917201   2.109   2.370   1.396  0.6628  0.2523  0.1236
   57MOL   O29017202   2.071   2.253   1.402  0.4218 -0.2111 -0.3105
   57MOL   O29117203   2.110   2.455   1.494  0.1289 -0.1579  0.0910
   57MOL   C29217204   2.086   2.414   1.628 -0.2947  0.3126 -0.1870
   57MOL   C29317205   2.119   2.519   1.724  0.2661  0.3961 -0.4834
   57MOL   H29417206   1.997   2.465   1.146  0.0512  1.3685 -1.2024
   57MOL   H29517207   2.132   2.572   1.120 -1.9849  1.4168 -0.1519
   57MOL   H29617208   2.165   2.337   1.205 -0.9696 -0.2941 -0.1094
   57MOL   H29717209   1.984   2.376   1.639  0.1298 -1.0093 -0.7633
   57MOL   H29817210   2.151   2.331   1.656  0.7340  1.4616  0.9416
   57MOL   H29917211   2.095   2.487   1.825  0.4827 -0.2866 -0.6465
   57MOL   H30017212   2.081   2.616   1.693  1.4567  1.1131  0.2368
   57MOL   H30117213   2.228   2.528   1.722  0.3723 -0.9594 -1.5435
   57MOL   H30217214   2.261   2.465   1.273  0.6194  0.4141 -1.0333
   58MOL     C117215   7.365   2.420   0.809  0.8163  0.2181 -0.0421
   58MOL     C217216   7.377   2.503   0.929 -0.6750 -0.0405  0.4195
   58MOL     C317217   7.432   2.646   0.894  0.3354  0.1010 -0.3808
   58MOL     O417218   7.366   2.749   0.913  0.0315  0.0516  0.0593
   58MOL     O517219   7.555   2.646   0.837  0.0776 -0.3020  0.2759
   58MOL     C617220   7.623   2.761   0.789 -0.0110 -0.3719 -0.1474
   58MOL     C717221   7.595   2.800   0.641  0.6562 -0.1921 -0.4383
   58MOL     H817222   7.301   2.337   0.838  0.4908 -0.2238 -1.9100
   58MOL     H917223   7.459   2.385   0.766  0.5364 -1.0195  0.3352
   58MOL    H1017224   7.284   2.531   0.980  0.2013 -1.0578  2.6725
   58MOL    H1117225   7.603   2.851   0.848 -0.3061 -0.4610 -0.1127
   58MOL    H1217226   7.730   2.744   0.806  0.1322  1.8348  1.4717
   58MOL    H1317227   7.610   2.711   0.580  1.8500  0.0097 -0.4568
   58MOL    H1417228   7.646   2.892   0.610  2.2177 -0.5642  0.9073
   58MOL    H1517229   7.489   2.809   0.621  0.7148 -0.3877 -0.8475
   58MOL    H1617230   7.308   2.476   0.734 -1.1801 -0.6525  0.7964
   58MOL    C1717231   7.460   2.437   1.034 -0.3811 -0.0958 -0.4980
   58MOL    C1817232   7.470   2.499   1.179 -0.1757  0.1694  0.5527
   58MOL    C1917233   7.615   2.506   1.224  0.2768  0.1284  0.6984
   58MOL    O2017234   7.659   2.431   1.306 -0.1021  0.1631 -0.0221
   58MOL    O2117235   7.694   2.599   1.163 -0.5395  0.3972 -0.5068
   58MOL    C2217236   7.830   2.620   1.189  0.3117  0.0155  0.6755
   58MOL    C2317237   0.004   2.717   1.095  0.3107  0.5047 -0.0797
   58MOL    H2417238   7.425   2.334   1.040 -1.1200 -0.0060 -2.7721
   58MOL    H2517239   7.560   2.428   0.991 -0.4539  0.9713 -0.9071
   58MOL    H2617240   7.436   2.603   1.184  1.1869  0.6736 -0.6017
   58MOL    H2717241   7.843   2.656   1.291  1.7536 -0.7455  0.7882
   58MOL    H2817242   7.885   2.525   1.195  2.4296  1.1619  0.0428
   58MOL    H2917243   7.865   2.814   1.082  0.7411  1.2463  3.2522
   58MOL    H3017244   0.017   2.666   1.000 -2.3942 -1.7246  0.6890
   58MOL    H3117245   0.102   2.736   1.140 -0.3690  0.9791  1.2377
   58MOL    C3217246   7.377   2.431   1.281  0.7142 -0.0664 -0.3102
   58MOL    C3317247   7.223   2.453   1.255  0.1451  0.2660  0.3466
   58MOL    C3417248   7.174   2.595   1.293 -0.1321 -0.0234  0.1848
   58MOL    O3517249   7.219   2.660   1.388 -0.4505 -0.3476 -0.1961
   58MOL    O3617250   7.074   2.634   1.205 -0.7656 -0.7036  0.4976
   58MOL    C3717251   7.002   2.760   1.235 -0.4178  1.0511  0.3659
   58MOL    C3817252   6.865   2.729   1.306 -0.8578  0.4131  0.2942
   58MOL    H3917253   7.413   2.328   1.280 -2.0610 -1.0987  1.3558
   58MOL    H4017254   7.397   2.477   1.378  1.6743 -0.8015 -0.1379
   58MOL    H4117255   7.200   2.440   1.149  0.1842  0.9448  0.2511
   58MOL    H4217256   7.063   2.825   1.298 -0.3112 -0.3303  1.7244
   58MOL    H4317257   6.990   2.813   1.141  3.1580 -0.4277 -1.0253
   58MOL    H4417258   6.881   2.651   1.381  2.1310  1.3106  0.6309
   58MOL    H4517259   6.788   2.700   1.234  0.7769 -1.6073 -0.6664
   58MOL    H4617260   6.813   2.813   1.353 -0.3660  0.3033  1.0441
   58MOL    C4717261   7.155   2.335   1.322  0.6062  0.3501  0.2650
   58MOL    C4817262   7.001   2.330   1.322  0.1032 -0.0371  0.4528
   58MOL    C4917263   6.952   2.295   1.459  0.1799  0.6855  0.0212
   58MOL    O5017264   6.905   2.188   1.481  0.3008  0.4621  0.1573
   58MOL    O5117265   6.964   2.393   1.553 -0.4474 -0.1907 -0.1958
   58MOL    C5217266   6.892   2.384   1.677  0.5572  0.8744  0.4739
   58MOL    C5317267   6.844   2.531   1.703 -0.4526 -0.6477 -0.7605
   58MOL    H5417268   7.185   2.244   1.270 -0.8543 -0.0195  0.0256
   58MOL    H5517269   7.192   2.331   1.424 -0.0001  0.7036  0.4995
   58MOL    H5617270   6.982   2.434   1.295  1.4404  0.2315  0.5095
   58MOL    H5717271   6.805   2.318   1.673 -1.2880  3.0659  2.7916
   58MOL    H5817272   6.961   2.339   1.749  0.9576 -1.9930 -1.6095
   58MOL    H5917273   6.928   2.601   1.710 -0.0555 -1.2425  0.5516
   58MOL    H6017274   6.790   2.543   1.797 -0.4425  1.2171 -0.9818
   58MOL    H6117275   6.778   2.558   1.621 -2.2783 -1.5034  0.4058
   58MOL    C6217276   6.936   2.254   1.200 -0.4654  0.0054 -0.7284
   58MOL    C6317277   6.785   2.259   1.184  0.1425  0.2128  0.1573
   58MOL    C6417278   6.734   2.188   1.059  0.3863  0.0946  0.3865
   58MOL    O6517279   6.788   2.208   0.955 -0.0498  0.2196 -0.2810
   58MOL    O6617280   6.633   2.107   1.080  0.2214 -0.3972  0.1002
   58MOL    C6717281   6.561   2.044   0.976 -0.5567 -0.1253  0.3913
   58MOL    C6817282   6.430   1.996   1.029  0.0162  0.4375  0.3177
   58MOL    H6917283   6.976   2.292   1.106 -0.7073  1.1224 -0.3819
   58MOL    H7017284   6.953   2.146   1.201  3.2406  0.5368  0.2031
   58MOL    H7117285   6.738   2.212   1.271 -0.0049  0.5566  0.2638
   58MOL    H7217286   6.547   2.114   0.893 -0.3817  1.1273  1.3933
   58MOL    H7317287   6.628   1.964   0.946  1.2905  1.4866  0.1142
   58MOL    H7417288   6.440   1.927   1.113 -0.0565 -0.7590 -0.6457
   58MOL    H7517289   6.377   1.949   0.946  2.4176 -0.3223 -0.8248
   58MOL    H7617290   6.375   2.085   1.061 -0.7845  0.8764 -2.2200
   58MOL    C7717291   6.732   2.403   1.189 -1.1049 -0.2778 -0.7822
   58MOL    C7817292   6.582   2.436   1.187 -0.8158 -0.7248  0.2698
   58MOL    C7917293   6.515   2.362   1.305  0.1150  0.2733  0.2199
   58MOL    O8017294   6.434   2.264   1.290  0.4312  0.3670  0.5128
   58MOL    O8117295   6.553   2.409   1.426 -0.0021  0.4408 -0.3628
   58MOL    C8217296   6.508   2.357   1.551  0.1050  0.7056  0.8499
   58MOL    C8317297   6.446   2.456   1.645 -0.1102 -0.4989 -0.5143
   58MOL    H8417298   6.779   2.457   1.271  0.2890 -2.6910  0.0331
   58MOL    H8517299   6.770   2.459   1.103  1.7888  0.9121  1.1839
   58MOL    H8617300   6.564   2.540   1.214 -0.1198 -0.8019  1.0368
   58MOL    H8717301   6.431   2.283   1.528 -0.9037  0.3906  4.8696
   58MOL    H8817302   6.585   2.287   1.585 -1.2342 -0.6348  1.1861
   58MOL    H8917303   6.362   2.491   1.585 -0.7596 -0.7807  0.2189
   58MOL    H9017304   6.521   2.535   1.650 -1.3769  0.5793  1.6055
   58MOL    H9117305   6.416   2.407   1.737  1.5178  0.1144  0.3679
   58MOL    C9217306   6.510   2.439   1.055  0.0067  0.1389  0.8663
   58MOL    C9317307   6.359   2.483   1.060 -0.4534  0.7061 -0.4369
   58MOL    C9417308   6.282   2.366   1.004  0.1199  0.0753  0.6149
   58MOL    O9517309   6.197   2.306   1.070  0.2842 -0.4901  0.0227
   58MOL    O9617310   6.313   2.344   0.871  0.4533  0.1577  0.0713
   58MOL    C9717311   6.242   2.245   0.797 -0.2316 -0.5271  0.2608
   58MOL    C9817312   6.130   2.327   0.719 -0.3877 -0.0535 -0.2618
   58MOL    H9917313   6.561   2.510   0.990 -2.1325 -0.0992 -1.1183
   58MOL   H10017314   6.526   2.340   1.012  0.4513  0.6051 -0.0407
   58MOL   H10117315   6.327   2.484   1.164  0.4264 -0.3981 -0.1444
   58MOL   H10217316   6.305   2.199   0.722 -0.9773 -1.7866  0.3944
   58MOL   H10317317   6.198   2.170   0.863  2.1779 -0.7478  1.7010
   58MOL   H10417318   6.167   2.407   0.655 -0.7503  1.2619  1.1265
   58MOL   H10517319   6.061   2.369   0.793  0.6609 -1.3427  1.4856
   58MOL   H10617320   6.068   2.257   0.662 -0.2584 -0.5419  0.1968
   58MOL   C10717321   6.337   2.620   0.988  0.3615  1.0424 -0.1345
   58MOL   C10817322   6.190   2.658   0.978 -0.4123 -0.0305 -0.3293
   58MOL   C10917323   6.172   2.746   0.860  0.0265 -1.0854  0.4823
   58MOL   O11017324   6.167   2.871   0.866  0.1011 -0.0151  0.0456
   58MOL   O11117325   6.159   2.681   0.743  0.2511 -0.2739  0.1688
   58MOL   C11217326   6.141   2.753   0.626  0.1369  0.4868 -0.3288
   58MOL   C11317327   6.275   2.764   0.562 -0.1460 -0.5307 -0.6981
   58MOL   H11417328   6.389   2.698   1.044  0.6398  0.3134  0.6334
   58MOL   H11517329   6.387   2.611   0.892  0.8119 -0.4623  0.2289
   58MOL   H11617330   6.135   2.569   0.949 -0.2317 -0.2241 -0.0731
   58MOL   H11717331   6.075   2.702   0.556 -0.6511  0.7026  0.2382
   58MOL   H11817332   6.093   2.850   0.634  3.0458  2.0645 -1.4881
   58MOL   H11917333   6.260   2.801   0.460 -2.2854  1.1874  0.1946
   58MOL   H12017334   6.315   2.664   0.542  0.8227 -0.0847 -0.9948
   58MOL   H12117335   6.338   2.831   0.620 -0.4999  0.9684 -2.0207
   58MOL   C12217336   6.131   2.720   1.106 -0.4631  0.3459  0.1759
   58MOL   C12317337   5.989   2.757   1.099 -0.3857  0.0144 -0.7305
   58MOL   C12417338   5.951   2.845   1.214 -0.3711 -0.2292 -0.0821
   58MOL   O12517339   5.879   2.944   1.207  0.1673 -0.2051 -0.2549
   58MOL   O12617340   6.006   2.804   1.332  0.0199  0.0153  0.4557
   58MOL   C12717341   5.999   2.888   1.449 -0.0171  0.2365 -0.2255
   58MOL   C12817342   6.114   2.994   1.454 -0.5180  0.7759 -0.3571
   58MOL   H12917343   6.148   2.650   1.188  1.2382 -3.9245 -3.6164
   58MOL   H13017344   6.187   2.812   1.118  0.4629 -0.4478  2.1639
   58MOL   H13117345   5.976   2.821   1.012  0.6128 -0.7346 -1.4497
   58MOL   H13217346   5.903   2.938   1.464 -0.3035 -0.0036 -1.2428
   58MOL   H13317347   6.026   2.821   1.531 -0.5851 -2.7607 -2.4291
   58MOL   H13417348   6.099   3.062   1.538  0.1743  1.0227 -0.4298
   58MOL   H13517349   6.115   3.058   1.366  1.0744  1.0246 -0.1762
   58MOL   H13617350   6.217   2.960   1.454 -0.7648 -0.0053  0.5425
   58MOL   C13717351   5.898   2.633   1.103 -0.4984  0.2162  0.0592
   58MOL   C13817352   5.858   2.583   0.959 -0.4420  0.8054  0.0528
   58MOL   C13917353   5.766   2.677   0.885 -0.1521  0.0182 -0.3764
   58MOL   O14017354   5.774   2.703   0.765  0.0605  0.3481 -0.1827
   58MOL   O14117355   5.677   2.734   0.968  0.8880 -0.2418  0.0029
   58MOL   C14217356   5.600   2.844   0.917 -0.2861 -0.9146  0.3224
   58MOL   C14317357   5.527   2.910   1.040  0.3661 -0.8440  1.0048
   58MOL   H14417358   5.940   2.543   1.148  0.7067 -0.5232 -2.4583
   58MOL   H14517359   5.809   2.650   1.165 -0.8959 -0.1450 -0.4126
   58MOL   H14617360   5.952   2.589   0.904 -0.5454  1.4409 -0.0590
   58MOL   H14717361   5.671   2.913   0.871 -0.1847  2.0338  4.5837
   58MOL   H14817362   5.535   2.815   0.835 -0.0615 -0.1821 -0.1237
   58MOL   H14917363   5.601   2.939   1.116 -0.4688  0.0340  1.4969
   58MOL   H15017364   5.459   2.834   1.076 -3.0908  1.2541 -0.8099
   58MOL   H15117365   5.474   3.000   1.007  0.5643 -0.6697  1.1578
   58MOL   C15217366   5.807   2.439   0.956  0.0535 -0.2281  0.2383
   58MOL   C15317367   5.675   2.414   1.024 -0.5257  0.0596  0.5948
   58MOL   C15417368   5.691   2.403   1.173 -0.0134  0.4111  0.7767
   58MOL   O15517369   5.758   2.313   1.227  0.6582  0.0626  0.1094
   58MOL   O15617370   5.619   2.498   1.227  0.6792 -0.1765  0.1925
   58MOL   C15717371   5.605   2.502   1.372 -0.2337  0.3236  1.0280
   58MOL   C15817372   5.575   2.651   1.394 -0.7347 -0.2318 -0.5192
   58MOL   H15917373   5.795   2.422   0.850 -1.0845  0.5262  0.2424
   58MOL   H16017374   5.888   2.376   0.996  2.8245  2.9607 -0.1191
   58MOL   H16117375   5.607   2.495   0.999  1.1799  1.4548  0.3232
   58MOL   H16217376   5.529   2.437   1.414  0.5591  0.6779  3.0573
   58MOL   H16317377   5.699   2.476   1.421  0.2572  1.5322  0.7682
   58MOL   H16417378   5.667   2.702   1.422 -0.6302 -0.5945 -0.1921
   58MOL   H16517379   5.504   2.653   1.477 -0.1063 -3.2181  0.1487
   58MOL   H16617380   5.527   2.692   1.305 -0.8003  0.0865 -0.3379
   58MOL   C16717381   5.603   2.296   0.974  0.8969  0.2903  0.7517
   58MOL   C16817382   5.507   2.313   0.854 -0.2070 -0.0995 -0.5930
   58MOL   C16917383   5.384   2.402   0.884  0.1407  0.0810 -0.0118
   58MOL   O17017384   5.359   2.500   0.811 -0.1620 -0.0300  0.3995
   58MOL   O17117385   5.307   2.371   0.989  0.0831 -0.4954  0.0239
   58MOL   C17217386   5.213   2.466   1.039  0.2339  0.4315 -0.0477
   58MOL   C17317387   5.276   2.523   1.171  0.1953  0.0420 -0.4439
   58MOL   H17417388   5.671   2.212   0.958  1.7688  1.0499  0.4484
   58MOL   H17517389   5.544   2.251   1.054 -0.2095 -0.0504 -0.2333
   58MOL   H17617390   5.563   2.368   0.778 -0.6683  2.5740  0.9268
   58MOL   H17717391   5.194   2.548   0.970  1.2162  0.4429 -0.3124
   58MOL   H17817392   5.122   2.409   1.056  0.3188  0.5444  0.8485
   58MOL   H17917393   5.352   2.597   1.145  1.1926 -0.7791  0.0770
   58MOL   H18017394   5.338   2.448   1.221  0.4851  0.0991 -0.7142
   58MOL   H18117395   5.195   2.551   1.238  0.1349  1.5203 -1.1217
   58MOL   C18217396   5.465   2.178   0.792  0.1724  0.4293  0.0384
   58MOL   C18317397   5.387   2.074   0.887  0.4621  0.5920 -0.1478
   58MOL   C18417398   5.488   1.988   0.967 -0.3671 -0.6193  0.1679
   58MOL   O18517399   5.597   1.948   0.926 -0.1292 -0.3026 -0.0201
   58MOL   O18617400   5.444   1.964   1.094 -0.2521  0.1239  0.1261
   58MOL   C18717401   5.531   1.899   1.184 -0.6216  0.2875  0.1404
   58MOL   C18817402   5.508   1.931   1.329  0.6116  0.5500  0.0007
   58MOL   H18917403   5.403   2.199   0.706 -0.3445  0.5197  0.4315
   58MOL   H19017404   5.557   2.133   0.755  0.1681  1.0664 -0.7493
   58MOL   H19117405   5.326   2.122   0.964  0.6315 -0.5072  0.6921
   58MOL   H19217406   5.525   1.791   1.169  0.3448  0.1553  0.6804
   58MOL   H19317407   5.636   1.915   1.161 -0.5059 -1.7102 -0.8403
   58MOL   H19417408   5.403   1.908   1.349  0.9154  0.0982  1.0875
   58MOL   H19517409   5.523   2.039   1.340 -0.7136  0.5450  2.0324
   58MOL   H19617410   5.572   1.879   1.399  0.1611 -0.7786 -0.5526
   58MOL   C19717411   5.293   1.982   0.804  0.3061 -0.3565  0.2865
   58MOL   C19817412   5.149   2.049   0.792 -0.3088 -0.1645 -0.3764
   58MOL   C19917413   5.050   2.022   0.908  0.3702 -0.1337  0.4193
   58MOL   O20017414   5.079   1.952   1.007  0.2618 -0.4578  0.2309
   58MOL   O20117415   4.937   2.097   0.898 -1.1710 -0.3082 -0.0260
   58MOL   C20217416   4.849   2.084   1.011 -0.7565  0.3440  0.4250
   58MOL   C20317417   4.719   2.148   0.991  1.4258  0.4320  0.2883
   58MOL   H20417418   5.332   1.962   0.704  2.5510 -0.3373  1.1300
   58MOL   H20517419   5.286   1.878   0.836  0.2229 -0.9827 -1.6442
   58MOL   H20617420   5.161   2.157   0.804 -0.0686 -0.2720  0.3631
   58MOL   H20717421   4.825   1.980   1.033  1.9237 -0.0271  1.8177
   58MOL   H20817422   4.892   2.129   1.100 -0.9192 -2.0245  1.7434
   58MOL   H20917423   4.672   2.154   1.089 -2.1325 -0.3590 -1.2912
   58MOL   H21017424   4.654   2.099   0.918  0.6250  1.4367  0.3227
   58MOL   H21117425   4.734   2.247   0.950 -1.2646  0.2683 -1.2244
   58MOL   C21217426   5.077   2.016   0.660 -0.0213 -0.6845  0.0931
   58MOL   C21317427   5.009   1.877   0.635 -0.3256 -0.7550 -0.6910
   58MOL   C21417428   5.114   1.774   0.599  0.6129  0.5418  0.1248
   58MOL   O21517429   5.207   1.814   0.531 -0.0868 -0.1112 -0.6225
   58MOL   O21617430   5.088   1.654   0.647 -0.3683 -0.8109 -0.6446
   58MOL   C21717431   5.191   1.556   0.645 -0.6854 -0.2896 -0.6632
   58MOL   C21817432   5.123   1.422   0.596 -0.0488 -0.0712  0.7395
   58MOL   H21917433   5.010   2.099   0.637 -2.2637 -2.3753  0.3668
   58MOL   H22017434   5.138   2.042   0.573  0.1963 -0.9517  0.1654
   58MOL   H22117435   4.969   1.842   0.730  0.5741 -0.9727 -0.3933
   58MOL   H22217436   5.264   1.568   0.565  0.8760 -0.8796  0.6372
   58MOL   H22317437   5.238   1.541   0.742 -2.1392 -1.3343 -0.0945
   58MOL   H22417438   5.200   1.345   0.596 -0.2877 -0.3291 -0.7549
   58MOL   H22517439   5.080   1.429   0.496 -1.1232 -0.0265  1.1971
   58MOL   H22617440   5.047   1.382   0.663 -2.2053  1.2444 -0.8595
   58MOL   C22717441   4.904   1.892   0.523  0.1023 -0.2103 -0.2327
   58MOL   C22817442   4.756   1.917   0.580 -0.0057 -0.7140  0.7072
   58MOL   C22917443   4.711   1.833   0.700  0.2214 -0.7958  0.3257
   58MOL   O23017444   4.647   1.881   0.795 -0.3358  0.3532 -0.2067
   58MOL   O23117445   4.740   1.707   0.684 -0.4984 -0.5518  0.0047
   58MOL   C23217446   4.723   1.604   0.776  0.1077 -0.4228  0.5128
   58MOL   C23317447   4.734   1.470   0.703  0.2896 -0.6117  0.2605
   58MOL   H23417448   4.931   1.966   0.448  0.3728 -0.3058 -0.2295
   58MOL   H23517449   4.901   1.797   0.471 -0.6606 -0.6176  0.5370
   58MOL   H23617450   4.746   2.016   0.624  0.8441 -0.1163 -0.4505
   58MOL   H23717451   4.801   1.613   0.852 -1.2742  0.4132  1.8305
   58MOL   H23817452   4.627   1.614   0.825  0.6191  0.5876  1.3244
   58MOL   H23917453   4.736   1.381   0.765  1.0006 -0.8426 -0.0834
   58MOL   H24017454   4.823   1.466   0.640 -0.0185  1.8452 -0.3700
   58MOL   H24117455   4.655   1.452   0.630 -0.5979  1.2064  0.7645
   58MOL   C24217456   4.656   1.902   0.459  0.5056  0.0562  0.0056
   58MOL   C24317457   4.663   2.012   0.358 -0.1500 -0.1061  0.1858
   58MOL   C24417458   4.628   2.147   0.422 -0.6004 -0.1876 -0.0806
   58MOL   O24517459   4.515   2.188   0.414 -0.5344 -0.3768  0.2416
   58MOL   O24617460   4.736   2.206   0.479  0.2669 -0.6054 -0.1772
   58MOL   C24717461   4.732   2.343   0.526  0.6019  0.0362 -0.6922
   58MOL   C24817462   4.804   2.365   0.658 -0.1826 -0.1652 -0.4723
   58MOL   H24917463   4.669   1.807   0.408 -0.2062 -0.4421  0.7430
   58MOL   H25017464   4.557   1.898   0.503  0.6724  0.9704  0.4851
   58MOL   H25117465   4.761   2.027   0.314 -0.0274 -0.4056  0.3524
   58MOL   H25217466   4.772   2.398   0.440 -0.6988  0.7867 -0.8221
   58MOL   H25317467   4.633   2.381   0.548  1.8805  1.4709  2.9552
   58MOL   H25417468   4.910   2.341   0.660 -0.5180 -1.7455  1.6038
   58MOL   H25517469   4.761   2.304   0.738  0.2752  1.3876  0.9790
   58MOL   H25617470   4.795   2.471   0.680  0.3854  0.3220 -2.5254
   58MOL   C25717471   4.576   1.964   0.238 -0.0359 -0.7702 -0.3304
   58MOL   C25817472   4.590   2.033   0.098 -0.5924  0.7781  0.2804
   58MOL   C25917473   4.719   1.973   0.034  0.4896  0.8796 -0.4703
   58MOL   O26017474   4.705   1.912   7.834  0.0745  0.1268  0.0552
   58MOL   O26117475   4.834   2.002   0.098 -0.4377 -0.7553  0.3164
   58MOL   C26217476   4.961   1.989   0.030 -0.3348  0.1339 -0.7679
   58MOL   C26317477   5.012   1.847   0.062 -0.0350 -0.5004 -0.1268
   58MOL   H26417478   4.574   1.858   0.214  3.2058 -1.2212  1.1540
   58MOL   H26517479   4.473   1.983   0.267 -0.4565  0.6890 -2.6335
   58MOL   H26617480   4.506   1.991   0.043  1.3530 -0.9963 -1.4458
   58MOL   H26717481   4.951   2.015   7.833  0.9750 -1.7818 -1.3758
   58MOL   H26817482   5.021   2.067   0.079 -1.2502  0.0319  0.5556
   58MOL   H26917483   4.930   1.776   0.054  0.3836 -0.8433 -1.3908
   58MOL   H27017484   5.061   1.853   0.159  0.7537 -1.3345 -0.4694
   58MOL   H27117485   5.086   1.808   7.901 -0.3239 -2.3307  0.5631
   58MOL   C27217486   4.576   2.186   0.099 -0.0833 -0.0392  0.1181
   58MOL   C27317487   4.562   2.254   7.863 -0.5220 -1.0686  0.5600
   58MOL   C27417488   4.699   2.254   7.793  0.4145  0.0348 -0.5108
   58MOL   O27517489   4.797   2.306   7.850 -0.5118 -0.0437  0.0357
   58MOL   O27617490   4.695   2.198   7.672  0.2338  0.0433  0.1768
   58MOL   C27717491   4.805   2.185   7.585 -0.3174  0.0354 -0.0941
   58MOL   C27817492   4.806   2.049   7.513 -0.1111 -0.1765  0.9803
   58MOL   H27917493   4.491   2.212   0.163 -1.3127 -0.0948 -1.4739
   58MOL   H28017494   4.661   2.225   0.155  0.4387 -0.0928 -0.6431
   58MOL   H28117495   4.497   2.188   7.807 -1.9006  0.6361  0.1163
   58MOL   H28217496   4.799   2.269   7.516 -2.4827 -0.2724 -0.3251
   58MOL   H28317497   4.904   2.200   7.628  0.4680  2.0873 -2.5214
   58MOL   H28417498   4.896   2.041   7.451  0.4409 -0.3221  1.7958
   58MOL   H28517499   4.710   2.032   7.465 -0.0144  0.7710  0.4215
   58MOL   H28617500   4.812   1.973   7.591  2.0824 -0.1374  0.9047
   58MOL   C28717501   4.500   2.393   7.872 -0.1528  0.2194 -0.1351
   58MOL   C28817502   4.477   2.478   7.743  0.4229  1.2605  0.3812
   58MOL   C28917503   4.468   2.624   7.774  0.1030 -0.2238 -0.2938
   58MOL   O29017504   4.551   2.699   7.727  0.3193  0.3478  0.5036
   58MOL   O29117505   4.367   2.649   7.852  0.5457 -0.4559  0.1104
   58MOL   C29217506   4.347   2.784   7.893  0.1595 -0.2991 -0.0234
   58MOL   C29317507   4.213   2.804   0.059  0.5590 -0.0343  0.6239
   58MOL   H29417508   4.406   2.388   0.019 -0.6557  1.4294 -0.8610
   58MOL   H29517509   4.562   2.444   0.038  0.7726  0.0254 -0.7600
   58MOL   H29617510   4.556   2.453   7.672  0.2557 -0.2865  0.7397
   58MOL   H29717511   4.441   2.814   0.031 -0.6562  0.9615  0.8685
   58MOL   H29817512   4.337   2.845   7.803 -0.2256 -0.1380  0.1241
   58MOL   H29917513   4.131   2.762   0.000 -0.2278  1.2501  0.7896
   58MOL   H30017514   4.206   2.911   0.079 -0.0997  0.3776 -1.7213
   58MOL   H30117515   4.199   2.751   0.153 -2.8950  0.4566  0.4307
   58MOL   H30217516   4.386   2.449   7.691  0.5076 -0.6633  1.2792
   59MOL     C117517   4.668   6.631   3.545  1.1072  0.0735 -0.0440
   59MOL     C217518   4.558   6.544   3.609  0.1989  0.6756 -0.1011
   59MOL     C317519   4.616   6.410   3.648  0.3399  0.4793  0.2757
   59MOL     O417520   4.657   6.390   3.762  0.1910 -0.2369  0.8996
   59MOL     O517521   4.619   6.323   3.547  0.1709 -0.2734 -0.0650
   59MOL     C617522   4.661   6.191   3.564  0.0384 -0.8777  0.1787
   59MOL     C717523   4.541   6.099   3.571  0.7426 -0.2419  0.3954
   59MOL     H817524   4.646   6.734   3.571  1.8805  0.2283  0.0157
   59MOL     H917525   4.673   6.620   3.437  1.1426  0.5061 -0.0855
   59MOL    H1017526   4.540   6.585   3.709 -1.7752  3.2471 -1.4523
   59MOL    H1117527   4.713   6.152   3.477  0.3509 -1.8472  0.7848
   59MOL    H1217528   4.724   6.184   3.653 -1.5773 -1.3676  1.2988
   59MOL    H1317529   4.486   6.101   3.477 -1.5579 -0.2299  1.7009
   59MOL    H1417530   4.475   6.128   3.653  1.0508  1.8839 -0.0888
   59MOL    H1517531   4.568   5.998   3.602 -1.7263 -0.9859  0.2286
   59MOL    H1617532   4.759   6.603   3.600 -0.3784 -2.8932  1.0384
   59MOL    C1717533   4.431   6.542   3.531 -0.1399 -0.1955  0.2994
   59MOL    C1817534   4.351   6.678   3.515  0.5319  0.2920 -0.0101
   59MOL    C1917535   4.357   6.778   3.641  0.4652 -0.8763  0.2164
   59MOL    O2017536   4.422   6.884   3.636 -0.2212 -0.3194  0.8829
   59MOL    O2117537   4.275   6.746   3.748  0.0421  0.3527  0.2603
   59MOL    C2217538   4.257   6.837   3.852 -0.1775 -0.0912 -1.0687
   59MOL    C2317539   4.128   6.926   3.846 -0.3369 -0.3079 -0.6846
   59MOL    H2417540   4.447   6.488   3.438  1.6632 -0.2437  0.6374
   59MOL    H2517541   4.359   6.483   3.588 -1.4473  0.2264 -0.8609
   59MOL    H2617542   4.408   6.739   3.445  1.5878 -1.5570 -0.7872
   59MOL    H2717543   4.268   6.788   3.949  0.4004  1.2603 -0.4468
   59MOL    H2817544   4.339   6.908   3.851  0.8277 -1.1829  0.5468
   59MOL    H2917545   4.154   6.988   3.760  0.2562 -1.8321 -1.6370
   59MOL    H3017546   4.120   6.978   3.941  0.4266  1.0769 -1.3546
   59MOL    H3117547   4.038   6.866   3.832  0.1349 -0.9572 -1.0053
   59MOL    C3217548   4.208   6.674   3.447  0.9047 -0.6882 -0.0453
   59MOL    C3317549   4.196   6.699   3.297  0.6033  0.2052 -0.6820
   59MOL    C3417550   4.288   6.608   3.219  0.3232  0.3515 -0.0569
   59MOL    O3517551   4.384   6.641   3.147  0.4894 -0.2351  0.2582
   59MOL    O3617552   4.265   6.470   3.246 -0.2396  0.6513  0.1680
   59MOL    C3717553   4.338   6.366   3.180  1.1087 -0.1530  0.6107
   59MOL    C3817554   4.336   6.237   3.266 -0.0014 -0.0625  0.0652
   59MOL    H3917555   4.159   6.585   3.487 -2.1078 -0.1496 -2.3135
   59MOL    H4017556   4.159   6.758   3.496  1.7449 -0.1207 -0.1705
   59MOL    H4117557   4.100   6.666   3.258  1.2055 -1.3233 -0.9157
   59MOL    H4217558   4.280   6.342   3.090  0.7691 -3.4690  1.6392
   59MOL    H4317559   4.443   6.387   3.164  0.2519  2.6498 -1.7067
   59MOL    H4417560   4.354   6.146   3.209  0.2956 -1.4323  2.2667
   59MOL    H4517561   4.238   6.217   3.310 -0.6349  0.8132 -0.9253
   59MOL    H4617562   4.407   6.261   3.345  0.6139 -0.9748 -0.2075
   59MOL    C4717563   4.217   6.845   3.261 -0.2908  0.1978  0.2625
   59MOL    C4817564   4.099   6.938   3.282 -0.0806  0.7841  0.8633
   59MOL    C4917565   3.977   6.891   3.207 -0.0879 -0.3389  0.5410
   59MOL    O5017566   3.887   6.835   3.268  0.2020 -0.0199  0.3953
   59MOL    O5117567   3.983   6.908   3.076 -0.0482  0.2032  0.0396
   59MOL    C5217568   3.874   6.861   2.992 -0.0677 -0.3288  0.3394
   59MOL    C5317569   3.758   6.965   2.986  0.0311 -0.2055 -0.5817
   59MOL    H5417570   4.302   6.884   3.317  1.1966 -0.4474 -1.5102
   59MOL    H5517571   4.255   6.859   3.160  2.3440  0.0540  1.2083
   59MOL    H5617572   4.070   6.933   3.387 -0.2124  0.2789  0.8049
   59MOL    H5717573   3.919   6.846   2.894  0.7101  0.1243  0.6189
   59MOL    H5817574   3.835   6.766   3.028 -0.1045 -0.5530 -0.2949
   59MOL    H5917575   3.800   7.058   2.947  4.3895 -2.3617 -1.4280
   59MOL    H6017576   3.705   6.990   3.078  2.3288 -0.1723  0.7704
   59MOL    H6117577   3.680   6.930   2.919 -0.0635 -0.1491 -0.5005
   59MOL    C6217578   4.131   7.084   3.245 -0.4466 -0.1314 -0.1898
   59MOL    C6317579   4.062   7.181   3.342  0.4204 -0.6777 -0.2294
   59MOL    C6417580   4.105   7.170   3.485 -0.5489 -0.2497 -0.3430
   59MOL    O6517581   4.027   7.143   3.574 -0.1657  0.4019 -0.2725
   59MOL    O6617582   4.235   7.218   3.497 -0.3118 -0.4383 -0.1057
   59MOL    C6717583   4.272   7.274   3.626  0.4176  0.3383  0.5778
   59MOL    C6817584   4.279   7.431   3.632 -0.5278  0.2852 -0.2456
   59MOL    H6917585   4.237   7.097   3.266 -0.4419 -1.0613  0.3471
   59MOL    H7017586   4.110   7.117   3.143 -0.6748 -0.6829 -0.3216
   59MOL    H7117587   4.100   7.280   3.320 -0.9916  0.1566  0.9726
   59MOL    H7217588   4.209   7.232   3.705  0.3621  0.8537  0.8110
   59MOL    H7317589   4.376   7.241   3.637 -0.4101 -2.3392  0.8867
   59MOL    H7417590   4.185   7.473   3.596 -1.8690 -1.6838  0.8666
   59MOL    H7517591   4.358   7.474   3.571 -0.2754  0.2030  0.0224
   59MOL    H7617592   4.304   7.457   3.735  0.1944 -0.3547 -0.2551
   59MOL    C7717593   3.910   7.190   3.312  0.3712 -0.2753 -0.0573
   59MOL    C7817594   3.837   7.304   3.389  0.3351 -1.1009  0.1845
   59MOL    C7917595   3.686   7.279   3.388  0.3799 -0.1307  0.1577
   59MOL    O8017596   3.631   7.228   3.480  0.3949 -0.2153 -0.5377
   59MOL    O8117597   3.634   7.291   3.263  0.5973 -0.7325  0.5542
   59MOL    C8217598   3.505   7.258   3.241  0.2405 -0.3075 -0.2686
   59MOL    C8317599   3.469   7.276   3.088 -0.3562  0.1437 -0.4034
   59MOL    H8417600   3.893   7.210   3.206  3.9947 -0.9735 -0.8260
   59MOL    H8517601   3.875   7.092   3.345  2.3203 -1.4010 -1.2579
   59MOL    H8617602   3.872   7.307   3.492  2.2020  1.0778 -0.4835
   59MOL    H8717603   3.486   7.153   3.263  0.0421  0.0206  1.1728
   59MOL    H8817604   3.435   7.322   3.295 -0.9698 -0.8290 -1.1893
   59MOL    H8917605   3.484   7.374   3.042  0.2103  0.5427  0.6044
   59MOL    H9017606   3.365   7.248   3.075 -0.4241  1.0833 -1.9095
   59MOL    H9117607   3.516   7.208   3.017  0.6895 -1.7813  2.0465
   59MOL    C9217608   3.869   7.447   3.335 -0.1060 -0.7769 -0.7652
   59MOL    C9317609   3.838   7.561   3.433  0.6090 -0.4640 -0.4282
   59MOL    C9417610   3.851   7.701   3.364  0.2809  0.2344  0.6119
   59MOL    O9517611   3.754   7.772   3.359  0.6596 -0.6740 -0.6703
   59MOL    O9617612   3.962   7.728   3.309 -0.3567  0.3295  0.2176
   59MOL    C9717613   3.997   7.852   3.244  0.1279  0.0107 -0.2100
   59MOL    C9817614   4.137   7.860   3.177  0.4095 -0.6924  0.0980
   59MOL    H9917615   3.972   7.455   3.302 -0.3031 -0.4980 -1.3018
   59MOL   H10017616   3.810   7.462   3.245 -2.4961 -1.7544  0.5591
   59MOL   H10117617   3.738   7.531   3.465  1.2635 -0.8277  1.3521
   59MOL   H10217618   3.919   7.882   3.174 -0.1740  0.1970  0.2016
   59MOL   H10317619   3.979   0.021   3.319  2.4373 -0.8419  1.2859
   59MOL   H10417620   4.216   7.861   3.252  2.1519  1.6405 -1.7055
   59MOL   H10517621   4.162   0.048   3.132  0.1011  0.8191  3.0593
   59MOL   H10617622   4.146   7.775   3.109 -3.5678 -1.0362 -0.0873
   59MOL   C10717623   3.928   7.558   3.569 -0.3549  0.0849 -0.3579
   59MOL   C10817624   3.851   7.634   3.687  0.4579  0.2785 -0.6924
   59MOL   C10917625   3.950   7.670   3.800 -0.0838 -0.3686  0.2180
   59MOL   O11017626   3.958   7.784   3.851 -0.3669 -0.1357 -0.6237
   59MOL   O11117627   4.036   7.566   3.839 -0.3968  0.6249 -0.4497
   59MOL   C11217628   4.139   7.593   3.932  0.1863  0.0539 -1.4475
   59MOL   C11317629   4.076   7.617   4.074  0.4732  0.3921  0.0883
   59MOL   H11417630   3.968   7.462   3.600 -1.4622 -0.5176 -0.7576
   59MOL   H11517631   4.016   7.620   3.550  0.2632 -0.2485  1.3810
   59MOL   H11617632   3.813   7.728   3.649 -0.2275  0.5295  0.5591
   59MOL   H11717633   4.211   7.511   3.934  0.6109  0.4509  1.4136
   59MOL   H11817634   4.198   7.680   3.902 -0.9130  0.1995 -3.2694
   59MOL   H11917635   4.007   7.538   4.102  1.2974 -0.3652  0.0139
   59MOL   H12017636   4.033   7.717   4.084  0.8249  0.3560  2.1569
   59MOL   H12117637   4.157   7.604   4.145  1.6135 -2.3653 -1.6281
   59MOL   C12217638   3.734   7.549   3.749  0.0452  0.6017  0.6147
   59MOL   C12317639   3.599   7.610   3.723  0.0055 -0.4541  0.7197
   59MOL   C12417640   3.586   7.757   3.756 -0.0103  0.0253  0.6941
   59MOL   O12517641   3.556   7.833   3.670  0.1348 -0.4094 -0.1386
   59MOL   O12617642   3.617   7.793   3.881  0.1192  0.6304 -0.1078
   59MOL   C12717643   3.629   0.019   3.916  0.0732  0.0498 -0.1605
   59MOL   C12817644   3.629   0.022   4.066  0.1150 -0.1356 -0.3924
   59MOL   H12917645   3.746   7.458   3.691  0.3421  0.0767  1.4967
   59MOL   H13017646   3.753   7.513   3.850 -0.4908 -0.8625  0.1975
   59MOL   H13117647   3.579   7.599   3.616  1.3826  0.0818  0.3973
   59MOL   H13217648   3.720   0.069   3.882  1.2386 -1.8126  0.1805
   59MOL   H13317649   3.546   0.081   3.881 -0.2693 -1.4084 -1.9965
   59MOL   H13417650   3.614   0.126   4.097  3.8941  0.5894 -0.7660
   59MOL   H13517651   3.730   7.900   4.091  0.1707  2.4834  2.9278
   59MOL   H13617652   3.550   7.873   4.116  2.5952 -2.5394  0.8885
   59MOL   C13717653   3.491   7.530   3.805  0.6637  0.6634 -0.3798
   59MOL   C13817654   3.418   7.423   3.725  0.0499 -0.3933 -0.6038
   59MOL   C13917655   3.343   7.476   3.603 -0.1656  0.2479 -0.2365
   59MOL   O14017656   3.338   7.414   3.499 -0.5265 -0.3499 -0.3135
   59MOL   O14117657   3.302   7.604   3.613 -0.1933 -0.1719 -0.1095
   59MOL   C14217658   3.192   7.660   3.542 -0.4341 -0.0904 -0.7289
   59MOL   C14317659   3.243   7.754   3.426  0.4621 -0.2855  0.1301
   59MOL   H14417660   3.529   7.498   3.903  0.9426 -0.0545 -0.7200
   59MOL   H14517661   3.413   7.602   3.829  0.7448 -0.0081  2.0541
   59MOL   H14617662   3.491   7.349   3.693 -0.2506 -1.2336  0.6082
   59MOL   H14717663   3.115   7.590   3.508 -2.0465  1.8228 -1.1312
   59MOL   H14817664   3.136   7.724   3.610  0.6843 -1.4174  1.4918
   59MOL   H14917665   3.304   7.833   3.469  0.7440  0.2031 -1.1688
   59MOL   H15017666   3.159   7.806   3.379 -0.9130 -1.6570  0.9900
   59MOL   H15117667   3.296   7.696   3.351  2.9421 -0.6101  2.0970
   59MOL   C15217668   3.313   7.350   3.806 -0.3304  0.2375  0.3411
   59MOL   C15317669   3.300   7.197   3.775 -0.4761  0.2151  0.2249
   59MOL   C15417670   3.174   7.143   3.842  0.6037 -0.4360 -0.3968
   59MOL   O15517671   3.150   7.177   3.958  0.4202  0.1323  0.0960
   59MOL   O15617672   3.106   7.056   3.772 -0.2948  0.1885  0.4443
   59MOL   C15717673   2.982   6.993   3.829 -0.8942 -0.0471  0.2226
   59MOL   C15817674   2.968   6.850   3.786  0.0957 -0.4473  0.8722
   59MOL   H15917675   3.343   7.356   3.911  3.3435  2.3651 -0.7509
   59MOL   H16017676   3.215   7.396   3.789 -0.4665  1.0477  3.0315
   59MOL   H16117677   3.281   7.192   3.668  0.9402  2.8009 -0.1880
   59MOL   H16217678   2.973   6.993   3.938 -1.8629 -2.3290  0.1616
   59MOL   H16317679   2.893   7.048   3.797  1.5306  2.0271 -3.3182
   59MOL   H16417680   2.922   6.834   3.688 -0.8486  1.2296  1.0345
   59MOL   H16517681   2.891   6.800   3.845  0.6426 -0.9131  1.2010
   59MOL   H16617682   3.062   6.796   3.790 -0.3986 -1.3387  0.5623
   59MOL   C16717683   3.426   7.112   3.810  0.2188  0.2881 -0.3771
   59MOL   C16817684   3.460   7.097   3.960  0.2620 -0.2423  0.4743
   59MOL   C16917685   3.555   7.195   4.023  0.0263 -0.6300 -0.1457
   59MOL   O17017686   3.519   7.253   4.127  0.2744 -0.5260  0.3774
   59MOL   O17117687   3.679   7.199   3.957 -0.5841 -0.1074  0.1275
   59MOL   C17217688   3.784   7.260   4.028 -0.7210  0.4532  0.2663
   59MOL   C17317689   3.914   7.226   3.953 -0.7187  0.0013 -0.2977
   59MOL   H17417690   3.411   7.013   3.765 -1.5921  0.8556 -1.0737
   59MOL   H17517691   3.518   7.146   3.761 -0.8392  1.7133 -1.4008
   59MOL   H17617692   3.365   7.108   4.012  0.2142  1.0754  0.1350
   59MOL   H17717693   3.773   7.368   4.031 -1.8365  0.3190  1.2336
   59MOL   H17817694   3.786   7.217   4.128 -1.0482 -2.8686 -1.0923
   59MOL   H17917695   3.956   7.126   3.962  0.8447  0.6181 -0.5384
   59MOL   H18017696   3.996   7.284   3.995  0.8629 -1.7195 -0.9401
   59MOL   H18117697   3.892   7.260   3.852  1.5689  2.4418 -0.0597
   59MOL   C18217698   3.515   6.952   3.996  0.8839  0.2091  0.1401
   59MOL   C18317699   3.406   6.852   4.043  0.4648 -0.6357 -0.1324
   59MOL   C18417700   3.332   6.890   4.176  0.0418 -0.0233 -0.2525
   59MOL   O18517701   3.381   6.868   4.288 -0.1474 -0.2916  0.0496
   59MOL   O18617702   3.226   6.962   4.144 -0.3529 -0.6745 -0.1623
   59MOL   C18717703   3.162   7.032   4.245 -0.2202 -0.4397  0.8461
   59MOL   C18817704   3.224   7.174   4.282  0.8987  0.3175 -0.1111
   59MOL   H18917705   3.576   6.917   3.913  1.1358  1.0267 -0.0198
   59MOL   H19017706   3.588   6.949   4.076  0.4100  0.1189  0.5737
   59MOL   H19117707   3.327   6.867   3.968 -1.8358  0.5199  2.4473
   59MOL   H19217708   3.065   7.058   4.203  0.0751 -0.0368  0.3957
   59MOL   H19317709   3.149   6.962   4.327  2.1040 -0.0497  1.5992
   59MOL   H19417710   3.158   7.235   4.343  0.8880 -0.1701  0.3665
   59MOL   H19517711   3.260   7.230   4.196 -0.7396 -3.6214 -3.5227
   59MOL   H19617712   3.319   7.168   4.334  0.0612  2.1772  1.7207
   59MOL   C19717713   3.475   6.715   4.044  0.5458  0.1931  0.7609
   59MOL   C19817714   3.480   6.637   3.907  0.1891  0.4767 -0.2748
   59MOL   C19917715   3.348   6.596   3.849 -0.5529  0.1151  0.3380
   59MOL   O20017716   3.315   6.631   3.735  0.2276  0.3270 -0.2730
   59MOL   O20117717   3.276   6.525   3.941  0.0208 -0.1797 -0.1202
   59MOL   C20217718   3.140   6.516   3.925 -0.0821  0.1241 -0.0614
   59MOL   C20317719   3.077   6.612   4.028 -0.6194 -0.2860  0.5787
   59MOL   H20417720   3.580   6.723   4.072  1.2836  0.6174 -1.9719
   59MOL   H20517721   3.424   6.659   4.122 -1.4536  0.5593 -0.2375
   59MOL   H20617722   3.515   6.704   3.829 -0.6482 -2.0279 -2.8981
   59MOL   H20717723   3.099   6.518   3.825  1.6241 -3.2792 -0.8920
   59MOL   H20817724   3.104   6.416   3.951 -0.5507  0.1829 -0.4732
   59MOL   H20917725   3.117   6.710   4.000 -0.0025 -0.1007  2.0576
   59MOL   H21017726   3.096   6.600   4.135  0.4893 -0.3836  0.3781
   59MOL   H21117727   2.969   6.620   4.020 -0.6621 -1.4598 -0.1244
   59MOL   C21217728   3.569   6.515   3.919 -0.2155  0.0832 -0.9785
   59MOL   C21317729   3.582   6.434   3.781 -1.3631  0.1894  0.3361
   59MOL   C21417730   3.494   6.311   3.772  0.5266  0.2302  0.1027
   59MOL   O21517731   3.390   6.312   3.699 -0.1432  0.3970  0.1179
   59MOL   O21617732   3.528   6.215   3.861  0.3117 -0.2714 -0.3806
   59MOL   C21717733   3.478   6.081   3.858 -0.0472 -0.1499 -0.9752
   59MOL   C21817734   3.533   6.012   3.737  0.3614  0.3359  0.0309
   59MOL   H21917735   3.663   6.537   3.969 -0.5931  1.6308 -0.9140
   59MOL   H22017736   3.533   6.446   3.994 -2.6108 -0.0556 -2.1988
   59MOL   H22117737   3.541   6.495   3.701 -1.9109 -0.9052 -0.2290
   59MOL   H22217738   3.515   6.037   3.951 -3.4778 -1.0748  0.0089
   59MOL   H22317739   3.369   6.076   3.858 -0.0455 -0.1863 -0.9074
   59MOL   H22417740   3.641   5.998   3.750  0.2717 -0.7081 -0.3374
   59MOL   H22517741   3.508   6.073   3.650  0.9984  0.6932  0.0953
   59MOL   H22617742   3.487   5.914   3.721 -0.0266  0.9500 -2.8406
   59MOL   C22717743   3.731   6.398   3.762 -0.3607 -0.0874  0.3125
   59MOL   C22817744   3.836   6.511   3.745  0.0248 -1.0670  0.7851
   59MOL   C22917745   3.793   6.632   3.652  0.5033  0.3045  0.0573
   59MOL   O23017746   3.704   6.622   3.569  0.5564  0.0118  0.4066
   59MOL   O23117747   3.868   6.741   3.676 -0.3369  0.2789 -0.4498
   59MOL   C23217748   3.845   6.863   3.598 -0.0734  0.2741  0.4695
   59MOL   C23317749   3.750   6.963   3.670  0.3604  0.3154 -0.1401
   59MOL   H23417750   3.765   6.346   3.852  0.3198 -0.3857 -0.1144
   59MOL   H23517751   3.745   6.333   3.675  0.1870  1.0459 -0.4488
   59MOL   H23617752   3.848   6.559   3.842  2.6576  0.8462 -0.4150
   59MOL   H23717753   3.938   6.912   3.569 -0.1309  0.0235 -0.1493
   59MOL   H23817754   3.795   6.840   3.504  0.6264  1.0385 -0.0970
   59MOL   H23917755   3.767   6.982   3.776 -2.4566 -1.7811  0.7458
   59MOL   H24017756   3.646   6.932   3.677 -0.0014  1.2547 -1.3165
   59MOL   H24117757   3.761   7.060   3.621  1.5284  0.2924  0.0505
   59MOL   C24217758   3.980   6.463   3.695 -0.8350  0.2133  0.7697
   59MOL   C24317759   4.044   6.344   3.760  0.1501  0.4247 -0.0161
   59MOL   C24417760   4.104   6.390   3.895  0.0323  0.0659  0.0556
   59MOL   O24517761   4.088   6.506   3.940 -0.3566  0.3338 -0.2349
   59MOL   O24617762   4.180   6.300   3.952  0.2329 -0.0527 -0.1861
   59MOL   C24717763   4.244   6.332   4.065 -0.3725  0.1128 -0.4525
   59MOL   C24817764   4.368   6.235   4.062 -0.8967 -0.3536 -0.6547
   59MOL   H24917765   3.958   6.446   3.590  1.4808 -0.3893  0.3462
   59MOL   H25017766   4.054   6.543   3.689 -0.5086 -0.1642 -0.4029
   59MOL   H25117767   3.972   6.263   3.775 -1.7192  1.9423 -0.6228
   59MOL   H25217768   4.274   6.436   4.076  2.4003 -0.8642  1.9236
   59MOL   H25317769   4.173   6.312   4.146 -0.7247  0.1614 -0.7446
   59MOL   H25417770   4.418   6.247   4.158  0.9250  1.0258 -1.7372
   59MOL   H25517771   4.433   6.262   3.979  1.8081 -1.3068  1.0891
   59MOL   H25617772   4.362   6.131   4.028  0.7119 -0.3112 -1.1019
   59MOL   C25717773   4.148   6.274   3.669 -0.9075  0.0551 -0.2464
   59MOL   C25817774   4.099   6.150   3.595  0.7549 -1.1365 -0.1900
   59MOL   C25917775   3.980   6.163   3.504  0.1829 -0.2068 -0.3987
   59MOL   O26017776   3.876   6.100   3.518  0.2738 -0.0159  0.0135
   59MOL   O26117777   3.991   6.262   3.413 -0.2157 -0.3539  0.2760
   59MOL   C26217778   3.874   6.316   3.342  0.2090 -0.3683 -0.3240
   59MOL   C26317779   3.908   6.452   3.294 -0.0105  0.9009 -0.0770
   59MOL   H26417780   4.166   6.347   3.590 -2.2703 -0.5322 -1.1160
   59MOL   H26517781   4.239   6.258   3.726 -1.3972  0.2436  0.5999
   59MOL   H26617782   4.184   6.140   3.528  1.7431 -0.4255  0.9400
   59MOL   H26717783   3.842   6.243   3.268  0.7612 -1.2140  0.2683
   59MOL   H26817784   3.783   6.321   3.403  1.4868 -2.4866  1.8069
   59MOL   H26917785   3.839   6.488   3.218  1.0437 -1.7991 -2.4011
   59MOL   H27017786   4.009   6.475   3.260  1.0749 -0.9163  1.8211
   59MOL   H27117787   3.882   6.516   3.379 -2.6472  0.8219 -0.7650
   59MOL   C27217788   4.087   6.025   3.679 -0.0385  0.1075 -0.4266
   59MOL   C27317789   4.085   5.895   3.605  0.8022  0.0639 -0.3345
   59MOL   C27417790   4.027   5.784   3.682 -0.8195 -0.3358  0.3398
   59MOL   O27517791   3.935   5.722   3.630  0.0365 -0.1982 -0.5151
   59MOL   O27617792   4.089   5.761   3.802 -0.0053  0.3839 -0.3816
   59MOL   C27717793   4.066   5.643   3.877  0.0918 -0.3664 -0.6588
   59MOL   C27817794   4.126   5.516   3.818 -0.0078  0.2100  0.0033
   59MOL   H27917795   4.159   6.019   3.761 -1.4154 -0.3004  0.7732
   59MOL   H28017796   4.001   6.030   3.746 -0.5511  0.2760 -1.1023
   59MOL   H28117797   4.027   5.911   3.514 -0.0528  0.0156  0.1923
   59MOL   H28217798   4.099   5.646   3.980 -2.7044  0.3069  0.2802
   59MOL   H28317799   3.957   5.632   3.879  0.5153 -5.3783  1.4947
   59MOL   H28417800   4.228   5.498   3.854  0.1295 -0.8270 -0.8723
   59MOL   H28517801   4.137   5.527   3.710 -2.0805  0.7926 -0.1604
   59MOL   H28617802   4.055   5.433   3.821  0.1589  0.0063 -1.3767
   59MOL   C28717803   4.230   5.848   3.565  0.2445 -0.0083 -0.1033
   59MOL   C28817804   4.224   5.737   3.449 -0.1234 -0.3643 -0.1373
   59MOL   C28917805   4.311   5.778   3.325  0.6496 -0.5497 -0.2509
   59MOL   O29017806   4.277   5.769   3.204 -0.6435 -0.5713  0.1054
   59MOL   O29117807   4.441   5.814   3.375  0.5802  0.0318 -0.1810
   59MOL   C29217808   4.539   5.823   3.275  0.4924  0.9824 -0.8561
   59MOL   C29317809   4.674   5.882   3.324  0.7320  0.3105  0.9403
   59MOL   H29417810   4.277   5.939   3.529  1.6781 -0.2695  1.0672
   59MOL   H29517811   4.286   5.813   3.652  0.2687 -1.1284 -0.5632
   59MOL   H29617812   4.269   5.641   3.473  0.9797 -0.1113 -1.1363
   59MOL   H29717813   4.555   5.718   3.254  0.1374  1.0171 -1.3148
   59MOL   H29817814   4.503   5.865   3.181  0.7955  1.4239 -0.7790
   59MOL   H29917815   4.672   5.991   3.328  0.3771  0.3880 -0.9356
   59MOL   H30017816   4.742   5.850   3.245 -1.0151  0.5936 -0.7119
   59MOL   H30117817   4.709   5.853   3.423  0.9154 -0.9809  0.4976
   59MOL   H30217818   4.119   5.722   3.422 -0.4459 -0.1210  0.9762
   60MOL     C117819   4.350   2.481   0.397  0.3966 -0.0381  0.3461
   60MOL     C217820   4.291   2.523   0.535 -0.7444 -0.2087 -0.4793
   60MOL     C317821   4.360   2.444   0.645 -1.0682  0.3442 -0.6235
   60MOL     O417822   4.454   2.489   0.711  0.4044  0.3979  0.2926
   60MOL     O517823   4.316   2.313   0.647 -0.2786  0.5964  0.7546
   60MOL     C617824   4.363   2.228   0.754 -0.0669  0.3005  0.1763
   60MOL     C717825   4.355   2.079   0.714  0.2459  0.5634  0.1383
   60MOL     H817826   4.440   2.422   0.415  1.0198  0.8799  0.2594
   60MOL     H917827   4.373   2.561   0.328 -0.8612 -0.1458 -0.2273
   60MOL    H1017828   4.327   2.624   0.551 -0.2386 -0.6831  1.5268
   60MOL    H1117829   4.466   2.261   0.770  0.0722  0.3013 -0.7169
   60MOL    H1217830   4.316   2.254   0.849  0.4718 -2.2540  1.1922
   60MOL    H1317831   4.251   2.047   0.705  0.3717  0.0800  0.3408
   60MOL    H1417832   4.402   2.019   0.793  0.0465 -0.6718 -0.6658
   60MOL    H1517833   4.407   2.058   0.621 -1.4876 -1.8187 -0.3475
   60MOL    H1617834   4.281   2.414   0.346 -2.0731  1.2354  1.9075
   60MOL    C1717835   4.130   2.516   0.557 -0.1854  0.2838 -0.2483
   60MOL    C1817836   4.071   2.622   0.472  0.0647  0.2487  0.1243
   60MOL    C1917837   4.076   2.761   0.533 -0.7567 -0.2413 -0.3263
   60MOL    O2017838   4.147   2.845   0.478  0.2170  0.1718 -0.1008
   60MOL    O2117839   3.995   2.795   0.633  0.0667  0.0685 -0.2213
   60MOL    C2217840   3.994   2.926   0.683 -0.3935  0.2065  0.1085
   60MOL    C2317841   3.917   2.940   0.807 -0.0834 -0.4835 -0.3602
   60MOL    H2417842   4.095   2.414   0.541 -0.1527  0.1947  0.2226
   60MOL    H2517843   4.103   2.536   0.661 -3.0940 -2.5932 -0.3851
   60MOL    H2617844   4.133   2.632   0.383 -0.4823  0.3040 -0.2548
   60MOL    H2717845   4.089   2.960   0.723 -0.5627  2.1806 -1.0899
   60MOL    H2817846   3.963   3.000   0.610 -0.6953  0.4958  0.5264
   60MOL    H2917847   3.931   3.044   0.837  0.4389 -0.9949  1.2159
   60MOL    H3017848   3.945   2.879   0.893 -0.0163 -0.0689 -0.0872
   60MOL    H3117849   3.810   2.926   0.786 -0.2273 -0.4825  0.3868
   60MOL    C3217850   3.931   2.591   0.418 -0.0118 -0.3827  0.7450
   60MOL    C3317851   3.937   2.469   0.325 -0.0834  0.3120  0.2534
   60MOL    C3417852   3.893   2.502   0.178 -0.4674  0.2349 -0.0186
   60MOL    O3517853   3.988   2.513   0.095 -0.4528  0.8532  0.4389
   60MOL    O3617854   3.759   2.516   0.173 -0.1504  0.1684 -0.9407
   60MOL    C3717855   3.697   2.545   0.045 -0.2048 -0.1662 -0.4555
   60MOL    C3817856   3.697   2.694   0.003 -0.3514 -0.0868  0.3474
   60MOL    H3917857   3.856   2.580   0.497 -1.3300  0.8819 -0.2991
   60MOL    H4017858   3.899   2.680   0.364  0.7576  0.7774  2.1852
   60MOL    H4117859   4.043   2.447   0.312 -0.4202  0.2647 -2.6117
   60MOL    H4217860   3.738   2.479   7.877 -0.6840  0.5027 -1.2974
   60MOL    H4317861   3.595   2.509   0.053 -0.3652 -0.1923 -2.3198
   60MOL    H4417862   3.651   2.695   7.813  0.2996 -1.1680  0.0196
   60MOL    H4517863   3.798   2.735   7.904 -0.8038  1.1005  0.5833
   60MOL    H4617864   3.641   2.756   0.073 -0.1258 -0.3918  0.7947
   60MOL    C4717865   3.859   2.344   0.385  0.0314 -0.7704 -0.7823
   60MOL    C4817866   3.894   2.214   0.323  0.0884  0.0110  0.2809
   60MOL    C4917867   3.772   2.117   0.342 -0.6743 -0.0291  0.1998
   60MOL    O5017868   3.707   2.084   0.245  0.0948 -0.5759  0.0885
   60MOL    O5117869   3.749   2.061   0.463 -0.1284 -0.0218 -0.6265
   60MOL    C5217870   3.644   1.963   0.479  0.2358  0.5394  0.3129
   60MOL    C5317871   3.727   1.827   0.487  0.7784  0.1992  0.4426
   60MOL    H5417872   3.888   2.337   0.489  0.6510 -1.0641 -0.9750
   60MOL    H5517873   3.753   2.360   0.366  0.0291 -3.2567 -3.1767
   60MOL    H5617874   3.910   2.229   0.216  1.4744  1.8760  0.7230
   60MOL    H5717875   3.593   1.980   0.573  0.6115  1.5621  0.3384
   60MOL    H5817876   3.570   1.959   0.399  1.7770 -0.5317 -1.0796
   60MOL    H5917877   3.665   1.738   0.500  1.4803 -0.5378 -1.0878
   60MOL    H6017878   3.798   1.828   0.570 -0.0689 -0.1012  1.1874
   60MOL    H6117879   3.776   1.818   0.390  2.1323 -0.2093  1.1421
   60MOL    C6217880   4.024   2.148   0.378 -0.2905 -0.9654 -0.5256
   60MOL    C6317881   4.079   2.044   0.274 -0.2715  0.4101 -0.2178
   60MOL    C6417882   4.135   1.916   0.348 -0.0833  0.2877  0.9127
   60MOL    O6517883   4.219   1.921   0.436  0.3393  0.3499 -0.2450
   60MOL    O6617884   4.087   1.801   0.294 -0.0002  0.0670 -0.4334
   60MOL    C6717885   4.139   1.674   0.323  0.4308  0.2155 -0.1958
   60MOL    C6817886   4.044   1.608   0.422 -0.3351  0.3847  0.5347
   60MOL    H6917887   4.101   2.220   0.405  0.3007 -1.9159  0.3344
   60MOL    H7017888   3.996   2.105   0.474  2.3932  0.8458  1.1271
   60MOL    H7117889   4.004   1.993   0.213  0.8663  1.4460 -2.5576
   60MOL    H7217890   4.126   1.606   0.238  0.8225 -1.9014  1.3898
   60MOL    H7317891   4.244   1.679   0.350 -0.2949 -1.3495  3.1326
   60MOL    H7417892   4.082   1.509   0.446 -2.1386  0.0970  2.3613
   60MOL    H7517893   3.940   1.615   0.388  0.2510  0.9538 -1.1588
   60MOL    H7617894   4.040   1.663   0.516 -4.1467 -0.2300  0.8284
   60MOL    C7717895   4.185   2.109   0.183  0.3206  0.1735  0.3943
   60MOL    C7817896   4.206   2.051   0.033  0.2488 -0.1305  0.5102
   60MOL    C7917897   4.091   2.092   7.853 -1.0168  0.1812 -0.0043
   60MOL    O8017898   3.990   2.026   7.845  0.0633 -0.5085 -0.4293
   60MOL    O8117899   4.110   2.207   7.790 -0.3972  0.1531  0.0563
   60MOL    C8217900   4.009   2.267   7.721  0.1633 -0.2725  0.0729
   60MOL    C8317901   4.053   2.412   7.684 -0.0406  0.0316 -0.1637
   60MOL    H8417902   4.169   2.216   0.174  1.2265  0.2864  0.1842
   60MOL    H8517903   4.283   2.099   0.229  0.7501 -0.4836 -0.6395
   60MOL    H8617904   4.297   2.093   7.899  0.0975 -0.0206  0.2936
   60MOL    H8717905   3.975   2.216   7.631 -1.6770  1.2005 -0.0978
   60MOL    H8817906   3.916   2.289   7.772  0.4435 -0.5477  0.7096
   60MOL    H8917907   4.050   2.476   7.772  0.7500 -0.2978  0.1090
   60MOL    H9017908   3.974   2.445   7.616 -1.5027 -1.4946  0.7399
   60MOL    H9117909   4.153   2.399   7.642 -0.9035 -2.0578 -1.7010
   60MOL    C9217910   4.223   1.894   0.030  0.3507  0.0712 -0.2225
   60MOL    C9317911   4.309   1.839   7.827 -0.1113  0.2795  0.0766
   60MOL    C9417912   4.269   1.867   7.680  0.3971 -0.0689 -0.5066
   60MOL    O9517913   4.160   1.823   7.638  0.5297  0.6747  1.0127
   60MOL    O9617914   4.363   1.942   7.609  0.1862 -0.1488 -0.6313
   60MOL    C9717915   4.324   1.990   7.476 -0.4093  0.5108  0.3512
   60MOL    C9817916   4.244   2.120   7.478 -0.1055  0.7633  0.1295
   60MOL    H9917917   4.273   1.856   0.119 -0.9877  0.2539  0.6392
   60MOL   H10017918   4.130   1.838   0.024 -0.0427  0.7827 -0.9420
   60MOL   H10117919   4.411   1.877   7.824  0.0941 -0.3989 -2.3703
   60MOL   H10217920   4.417   2.013   7.424 -0.0548 -2.4167 -0.4084
   60MOL   H10317921   4.276   1.910   7.418 -2.1151  1.2250  0.7340
   60MOL   H10417922   4.285   2.185   7.555 -0.6090  1.7276 -0.3895
   60MOL   H10517923   4.135   2.112   7.480 -0.0378 -0.0145  0.5571
   60MOL   H10617924   4.268   2.175   7.386  0.6551 -1.1463 -0.8323
   60MOL   C10717925   4.321   1.685   7.847  0.3162 -0.5811 -0.2676
   60MOL   C10817926   4.473   1.646   7.866  0.5821 -0.0534 -0.0082
   60MOL   C10917927   4.548   1.618   7.739 -0.1385 -0.3084 -0.9896
   60MOL   O11017928   4.491   1.611   7.630 -0.1085  0.1053 -0.5416
   60MOL   O11117929   4.680   1.597   7.763 -0.3772  0.4246 -0.3493
   60MOL   C11217930   4.781   1.580   7.666  0.0316 -0.3613  0.0854
   60MOL   C11317931   4.920   1.546   7.736  0.3662  0.0477  0.3742
   60MOL   H11417932   4.273   1.648   0.029 -0.5996 -1.9458 -1.2992
   60MOL   H11517933   4.277   1.634   7.762 -1.9575  1.3738 -0.3206
   60MOL   H11617934   4.514   1.733   0.008 -0.1349  0.2425  0.0634
   60MOL   H11717935   4.776   1.491   7.603  0.4000 -0.0654 -0.3661
   60MOL   H11817936   4.781   1.669   7.602 -1.3856 -0.0023  0.5662
   60MOL   H11917937   4.928   1.611   7.823  0.9695  1.3577 -0.6508
   60MOL   H12017938   4.999   1.548   7.661  0.2260 -0.6925  0.1963
   60MOL   H12117939   4.922   1.444   7.776  1.3095  0.0948  0.4539
   60MOL   C12217940   4.482   1.538   0.064  0.2423  0.3386  0.3465
   60MOL   C12317941   4.453   1.391   0.011 -0.2661  0.1036 -0.1449
   60MOL   C12417942   4.305   1.358   0.031  0.2333 -0.1572 -0.0477
   60MOL   O12517943   4.247   1.384   0.137  0.6216 -0.4011 -0.5294
   60MOL   O12617944   4.255   1.288   7.838 -0.1373  0.4369  0.4212
   60MOL   C12717945   4.132   1.217   7.851  0.2405 -0.3061 -0.0424
   60MOL   C12817946   4.153   1.068   7.889  0.5882 -0.0278  0.5189
   60MOL   H12917947   4.585   1.542   0.099 -0.2141 -0.1991  1.7814
   60MOL   H13017948   4.428   1.555   0.157  0.2863 -1.6667  0.7577
   60MOL   H13117949   4.469   1.368   7.814 -1.3881 -1.3111 -0.0263
   60MOL   H13217950   4.055   1.263   0.005 -1.2233 -1.0963 -1.2328
   60MOL   H13317951   4.088   1.216   7.752  2.1659 -2.0067 -0.9295
   60MOL   H13417952   4.070   0.997   7.882  1.0970 -0.5044 -0.7894
   60MOL   H13517953   4.194   1.061   0.081  0.2876  0.4591  0.6807
   60MOL   H13617954   4.233   1.024   7.830 -0.0940 -0.7716  0.1289
   60MOL   C13717955   4.526   1.278   0.082 -0.0613 -0.3679 -0.1594
   60MOL   C13817956   4.670   1.263   0.048 -0.0693  0.0335 -0.2943
   60MOL   C13917957   4.667   1.202   7.816  0.1773 -0.5598 -0.6098
   60MOL   O14017958   4.699   1.277   7.723  0.2360  0.5302 -0.3785
   60MOL   O14117959   4.629   1.077   7.811 -0.0057 -0.7011  0.0147
   60MOL   C14217960   4.602   1.018   7.689  0.4971  0.0695 -0.2623
   60MOL   C14317961   4.735   0.968   7.627  0.2913 -0.7982 -0.2902
   60MOL   H14417962   4.512   1.278   0.190 -0.7013  1.2107 -0.2218
   60MOL   H14517963   4.459   1.193   0.070 -1.8031  1.0600 -0.8693
   60MOL   H14617964   4.706   1.366   0.046 -1.3497  0.5451  1.9989
   60MOL   H14717965   4.532   0.935   7.691  0.2544  0.2821  0.3445
   60MOL   H14817966   4.566   1.093   7.619  4.1326 -0.8990 -3.2806
   60MOL   H14917967   4.796   1.058   7.616  0.4911 -1.0378 -1.1773
   60MOL   H15017968   4.712   0.937   7.525  2.5467  2.0058 -1.7403
   60MOL   H15117969   4.792   0.894   7.683 -0.4462 -1.0648  0.1157
   60MOL   C15217970   4.750   1.175   0.151 -0.5673  0.8444 -0.2550
   60MOL   C15317971   4.902   1.223   0.169 -0.1998 -0.4294  0.1883
   60MOL   C15417972   4.918   1.370   0.216  0.0340  0.2597 -0.7535
   60MOL   O15517973   4.818   1.431   0.262  0.0176 -0.6758 -0.4798
   60MOL   O15617974   5.046   1.414   0.202 -0.4159 -0.1722  0.4512
   60MOL   C15717975   5.055   1.548   0.250 -0.2086  0.0620 -0.5214
   60MOL   C15817976   5.202   1.580   0.286  0.0383  0.2733 -0.6406
   60MOL   H15917977   4.699   1.177   0.247 -2.8353  1.6278 -1.4451
   60MOL   H16017978   4.748   1.074   0.110 -1.5986  0.6079  0.3818
   60MOL   H16117979   4.936   1.166   0.256  1.1156  1.3793  0.8864
   60MOL   H16217980   5.027   1.613   0.167  1.1119  0.7944 -0.4088
   60MOL   H16317981   4.992   1.568   0.336  0.1954 -1.5236  0.1673
   60MOL   H16417982   5.220   1.667   0.349 -1.8106 -0.7065  1.3311
   60MOL   H16517983   5.267   1.602   0.202  2.2381 -0.1196  0.8976
   60MOL   H16617984   5.236   1.486   0.330 -0.6701  0.3128 -0.0078
   60MOL   C16717985   4.999   1.192   0.043 -0.7594 -0.3781 -0.4071
   60MOL   C16817986   5.025   1.039   0.008  0.4889 -0.5009 -0.3067
   60MOL   C16917987   5.055   0.957   0.141 -0.2652 -0.5735  0.3384
   60MOL   O17017988   4.967   0.887   0.194 -0.1909 -0.0320 -0.2092
   60MOL   O17117989   5.166   0.989   0.205 -0.6498 -0.5924 -0.3240
   60MOL   C17217990   5.188   0.952   0.345 -0.3968  0.6665  0.8778
   60MOL   C17317991   5.220   1.078   0.423  0.3052  0.3767  0.0794
   60MOL   H17417992   4.952   1.247   7.869 -0.3667  2.3524  1.1089
   60MOL   H17517993   5.097   1.240   0.051 -2.1061  2.3903  0.2380
   60MOL   H17617994   4.932   0.996   7.880 -0.2827  1.4668 -0.7213
   60MOL   H17717995   5.109   0.890   0.387  0.2053 -1.2931 -0.7936
   60MOL   H17817996   5.280   0.894   0.356 -0.1632  0.6828 -0.8766
   60MOL   H17917997   5.123   1.127   0.433 -0.6308 -1.5860  0.8131
   60MOL   H18017998   5.275   1.155   0.368  0.4413 -0.9680 -1.7115
   60MOL   H18117999   5.259   1.060   0.523 -1.0342 -1.3514  0.3180
   60MOL   C18218000   5.118   1.022   7.797  0.6835 -0.5985 -0.0521
   60MOL   C18318001   5.097   0.899   7.702  1.0737 -0.5643 -0.1304
   60MOL   C18418002   5.101   0.761   7.770  0.3428  0.2346 -0.3330
   60MOL   O18518003   5.193   0.725   7.849 -0.5932  0.0598 -0.2199
   60MOL   O18618004   4.997   0.681   7.738 -0.0759  0.8832  0.1090
   60MOL   C18718005   4.989   0.550   7.810 -0.1811 -0.6533  0.3492
   60MOL   C18818006   5.015   0.443   7.702  0.0392 -0.5926  0.2091
   60MOL   H18918007   5.089   1.103   7.730  0.9416 -0.4533  0.0102
   60MOL   H19018008   5.223   1.047   7.815  0.6155 -0.9448  0.8934
   60MOL   H19118009   5.001   0.911   7.653  0.2215  0.1479  1.6755
   60MOL   H19218010   5.051   0.540   7.900  1.1799 -0.2457 -0.5318
   60MOL   H19318011   4.887   0.549   7.848  0.1269 -0.0701  1.2281
   60MOL   H19418012   5.104   0.463   7.641  0.3973  0.8794  1.1901
   60MOL   H19518013   4.929   0.466   7.640  0.3884  0.1621 -0.0082
   60MOL   H19618014   5.009   0.346   7.751 -2.2206  0.1212  1.3652
   60MOL   C19718015   5.204   0.901   7.586  0.6436  0.4839 -0.2174
   60MOL   C19818016   5.178   0.790   7.480 -0.0359  0.5595  0.2314
   60MOL   C19918017   5.313   0.721   7.442 -0.4499 -0.3476  0.1090
   60MOL   O20018018   5.346   0.609   7.492  0.1048 -0.2327 -0.1489
   60MOL   O20118019   5.394   0.791   7.361  0.6314 -0.6074  0.0681
   60MOL   C20218020   5.529   0.745   7.336 -0.2448  0.0819  0.4148
   60MOL   C20318021   5.535   0.702   7.189  0.0285 -0.1145 -0.1372
   60MOL   H20418022   5.201   1.000   7.542  0.4531  0.9168  0.7540
   60MOL   H20518023   5.299   0.884   7.637 -0.2160 -0.8148  0.9770
   60MOL   H20618024   5.112   0.714   7.522  2.6042  0.0850  3.7377
   60MOL   H20718025   5.594   0.830   7.357 -1.3284  1.6638 -2.3195
   60MOL   H20818026   5.552   0.670   7.411  1.4281  0.0635 -0.1030
   60MOL   H20918027   5.461   0.623   7.175  2.4659 -2.3216 -0.8338
   60MOL   H21018028   5.624   0.645   7.165  0.7878  1.1903 -0.5112
   60MOL   H21118029   5.521   0.784   7.118 -0.1344  0.4047  0.4779
   60MOL   C21218030   5.118   0.842   7.342  0.1913 -1.2162  0.1963
   60MOL   C21318031   4.969   0.874   7.352 -0.1109  0.1093  0.6320
   60MOL   C21418032   4.886   0.748   7.353 -0.0116 -0.6330 -0.6712
   60MOL   O21518033   4.825   0.714   7.453  0.2866  0.0239 -0.6943
   60MOL   O21618034   4.896   0.671   7.244  0.5507 -0.3449  0.4130
   60MOL   C21718035   4.813   0.556   7.232 -0.2289  0.2317 -0.2958
   60MOL   C21818036   4.703   0.583   7.130  0.3008  0.3941 -0.1085
   60MOL   H21918037   5.175   0.927   7.308  0.2713 -1.1876  0.3993
   60MOL   H22018038   5.136   0.767   7.265  2.2563 -1.8138  1.2363
   60MOL   H22118039   4.946   0.940   7.435  0.7897  0.4554  0.6105
   60MOL   H22218040   4.874   0.473   7.196  0.6977  1.9007 -2.7129
   60MOL   H22318041   4.772   0.527   7.329  0.0441  0.6770 -0.0468
   60MOL   H22418042   4.630   0.502   7.129  0.0479  0.5925  1.0438
   60MOL   H22518043   4.741   0.593   7.029  0.6375  1.9321  0.1676
   60MOL   H22618044   4.636   0.658   7.171 -1.0242 -1.5844  1.4794
   60MOL   C22718045   4.938   0.956   7.223 -0.4122 -0.1132 -0.2913
   60MOL   C22818046   4.960   1.111   7.234  0.2197 -0.2321  0.1737
   60MOL   C22918047   4.891   1.183   7.351  0.2216  0.0188 -0.2035
   60MOL   O23018048   4.953   1.215   7.451 -0.1161 -0.0109 -0.3793
   60MOL   O23118049   4.762   1.212   7.323  0.3729  0.0925 -0.2871
   60MOL   C23218050   4.684   1.283   7.411  0.1176 -0.7014 -0.3822
   60MOL   C23318051   4.623   1.407   7.337 -0.1175 -0.1370 -1.1441
   60MOL   H23418052   5.012   0.919   7.152  3.0333  1.7596  2.2372
   60MOL   H23518053   4.842   0.936   7.174  1.0025 -3.3021 -1.9441
   60MOL   H23618054   5.068   1.120   7.247  0.5389 -2.3027 -0.8585
   60MOL   H23718055   4.606   1.213   7.440  2.4282 -2.8185  0.9022
   60MOL   H23818056   4.734   1.318   7.501  0.4320  0.6602 -1.0738
   60MOL   H23918057   4.566   1.460   7.413 -1.1502 -1.6495 -0.8394
   60MOL   H24018058   4.560   1.384   7.251 -2.7732 -2.3702  1.3117
   60MOL   H24118059   4.709   1.469   7.315  0.7352 -0.4844  1.1221
   60MOL   C24218060   4.936   1.188   7.100 -0.8349  0.3256 -0.3396
   60MOL   C24318061   4.983   1.333   7.084  0.3294  0.1538  0.3245
   60MOL   C24418062   4.929   1.377   6.945 -0.0545  0.4244  0.0780
   60MOL   O24518063   5.001   1.398   6.849 -0.0503 -0.0482  0.1887
   60MOL   O24618064   4.794   1.392   6.950 -0.1368 -0.1011  0.3746
   60MOL   C24718065   4.723   1.446   6.837  0.2946 -0.4132  0.4882
   60MOL   C24818066   4.639   1.333   6.771  0.7262 -0.0838 -0.3844
   60MOL   H24918067   4.989   1.139   7.018 -1.2247  1.7359 -1.4608
   60MOL   H25018068   4.830   1.174   7.080 -0.3400 -1.6052 -1.7060
   60MOL   H25118069   4.932   1.394   7.158 -0.4339 -0.9317  0.7133
   60MOL   H25218070   4.663   1.521   6.887  0.4353 -0.9381  1.4645
   60MOL   H25318071   4.786   1.491   6.760  0.2795 -0.7039  0.3028
   60MOL   H25418072   4.571   1.373   6.695  0.5613  0.4790  0.0562
   60MOL   H25518073   4.579   1.281   6.846 -1.4441  1.2634 -1.1306
   60MOL   H25618074   4.697   1.259   6.715  1.0842  0.2955 -0.5179
   60MOL   C25718075   5.143   1.347   7.099  0.0166 -0.5168 -0.0861
   60MOL   C25818076   5.200   1.481   7.147 -0.4877  0.0584  0.1678
   60MOL   C25918077   5.291   1.538   7.030  0.9057  0.1321 -0.3235
   60MOL   O26018078   5.393   1.471   7.008 -0.6022 -0.2874 -0.1757
   60MOL   O26118079   5.252   1.649   6.957  0.4314  0.4509 -0.6307
   60MOL   C26218080   5.308   1.685   6.832  0.6977 -0.4490 -0.2788
   60MOL   C26318081   5.208   1.664   6.716 -0.3277 -0.2647  0.2040
   60MOL   H26418082   5.187   1.272   7.165  0.7409  0.0500  0.0760
   60MOL   H26518083   5.190   1.319   7.005 -0.1133 -1.2848  0.0771
   60MOL   H26618084   5.115   1.548   7.142 -1.2573 -0.9736 -1.1297
   60MOL   H26718085   5.345   1.787   6.846 -1.8330  0.3530  0.7645
   60MOL   H26818086   5.401   1.634   6.805  1.3978  1.1953 -1.0350
   60MOL   H26918087   5.123   1.730   6.727 -0.1428  0.0021  0.0413
   60MOL   H27018088   5.173   1.563   6.696 -2.1888  0.7017 -1.5250
   60MOL   H27118089   5.256   1.699   6.625 -0.5542 -1.2295 -0.2887
   60MOL   C27218090   5.285   1.484   7.269 -0.6389 -0.0264 -0.5402
   60MOL   C27318091   5.202   1.463   7.399  0.4980  0.3848 -0.5678
   60MOL   C27418092   5.106   1.580   7.419 -0.0427 -0.1792 -0.7447
   60MOL   O27518093   4.987   1.573   7.380 -0.3009  0.3648  0.0634
   60MOL   O27618094   5.166   1.685   7.471 -0.1884  0.0042  0.3385
   60MOL   C27718095   5.100   1.810   7.469 -0.2294  0.2190 -0.6016
   60MOL   C27818096   5.097   1.855   7.613 -0.0820  1.1327 -0.2040
   60MOL   H27918097   5.370   1.415   7.260 -0.4565 -0.1311  1.7984
   60MOL   H28018098   5.323   1.586   7.279  1.4935 -0.7745 -0.6924
   60MOL   H28118099   5.150   1.368   7.393 -0.2200  0.7973 -0.8987
   60MOL   H28218100   5.165   1.874   7.409 -1.4548  1.0348 -1.0882
   60MOL   H28318101   4.999   1.813   7.427 -0.2459  1.0493 -0.5184
   60MOL   H28418102   5.200   1.841   7.646  0.2202  0.0330 -1.5474
   60MOL   H28518103   5.032   1.792   7.673  0.6819  1.0865  0.5877
   60MOL   H28618104   5.075   1.962   7.620 -1.8471  0.8032 -0.6174
   60MOL   C28718105   5.299   1.437   7.520  0.0114  0.1662  0.0679
   60MOL   C28818106   5.242   1.386   7.647  0.8812  0.3054  1.0616
   60MOL   C28918107   5.346   1.341   7.750 -0.0175 -0.0609  0.2991
   60MOL   O29018108   5.422   1.248   7.726 -0.1484 -0.5582  0.0262
   60MOL   O29118109   5.353   1.415   7.864  0.4623 -0.0044  0.0426
   60MOL   C29218110   5.445   1.376   0.059 -0.0930  0.0620 -0.0042
   60MOL   C29318111   5.399   1.264   0.140  0.7320 -0.1171  0.6510
   60MOL   H29418112   5.379   1.371   7.489 -0.4630 -0.6261  0.5132
   60MOL   H29518113   5.354   1.531   7.532  2.3177 -1.2102  0.4933
   60MOL   H29618114   5.185   1.470   7.687  1.1597  0.9795  0.0509
   60MOL   H29718115   5.542   1.361   0.011 -0.6598  0.3981 -1.2930
   60MOL   H29818116   5.489   1.457   0.117  0.3922 -0.3158  0.1590
   60MOL   H29918117   5.305   1.290   0.189  1.7178  1.1851  1.9025
   60MOL   H30018118   5.475   1.234   0.212  0.8832 -0.2581  0.4322
   60MOL   H30118119   5.372   1.179   0.078 -0.0705  1.7085 -1.5601
   60MOL   H30218120   5.184   1.295   7.631  1.7780 -0.0581 -0.2041
   61MOL     C118121   4.419   4.851   2.305  0.5028 -0.4745 -0.5377
   61MOL     C218122   4.492   4.942   2.205 -0.3562 -0.4337  0.2164
   61MOL     C318123   4.432   5.087   2.199  0.4768 -0.5355  0.8700
   61MOL     O418124   4.484   5.185   2.254  0.0154  0.3202 -0.2520
   61MOL     O518125   4.323   5.094   2.127 -0.1209 -0.4798  0.3066
   61MOL     C618126   4.257   5.217   2.097  0.4431  0.1083 -0.0892
   61MOL     C718127   4.178   5.265   2.224 -0.2256  0.1820 -0.0822
   61MOL     H818128   4.464   4.844   2.403 -1.1336  2.2241  0.4506
   61MOL     H918129   4.391   4.749   2.275 -1.2031  0.4606 -2.2694
   61MOL    H1018130   4.595   4.952   2.239 -0.6710  2.1128  0.5756
   61MOL    H1118131   4.335   5.291   2.078 -0.9450  1.0672 -2.1762
   61MOL    H1218132   4.192   5.200   2.011  0.7915  0.4733 -0.4249
   61MOL    H1318133   4.243   5.269   2.312 -0.7078  0.1247  0.2823
   61MOL    H1418134   4.104   5.192   2.256 -0.1838 -0.0964 -0.6088
   61MOL    H1518135   4.129   5.361   2.207 -0.1355  0.0098 -1.3526
   61MOL    H1618136   4.319   4.893   2.320  0.3568 -0.6660 -0.9599
   61MOL    C1718137   4.498   4.865   2.066 -0.0962 -0.5593 -0.1417
   61MOL    C1818138   4.584   4.742   2.069  0.3491  0.0005  0.1781
   61MOL    C1918139   4.731   4.773   2.062  0.1936  0.3954  0.0513
   61MOL    O2018140   4.800   4.781   2.165  0.1441  0.1407 -0.3733
   61MOL    O2118141   4.769   4.810   1.939  0.4224 -0.6395  0.1009
   61MOL    C2218142   4.897   4.861   1.919 -0.0291 -0.0168  0.6109
   61MOL    C2318143   4.894   4.947   1.794 -0.3340  0.4816 -0.6694
   61MOL    H2418144   4.395   4.830   2.063 -0.0041 -1.1761  2.2357
   61MOL    H2518145   4.517   4.926   1.978  4.6296 -1.9778 -0.2906
   61MOL    H2618146   4.575   4.692   2.165 -0.8928 -0.5209 -0.1969
   61MOL    H2718147   4.936   4.921   2.001 -1.4253  0.0423  1.2526
   61MOL    H2818148   4.966   4.781   1.892  0.2776 -0.0039  1.3327
   61MOL    H2918149   4.825   5.031   1.797 -1.7317 -0.5794 -2.1342
   61MOL    H3018150   4.846   4.900   1.708 -2.1443  0.6577  0.2241
   61MOL    H3118151   4.993   4.989   1.776  1.1907 -2.9516 -0.7083
   61MOL    C3218152   4.552   4.635   1.958  0.2752  0.0325 -0.1068
   61MOL    C3318153   4.411   4.571   1.973 -0.6608  0.6054 -0.1719
   61MOL    C3418154   4.396   4.503   2.112 -0.3424 -0.0674 -0.1791
   61MOL    O3518155   4.305   4.523   2.198  0.3030 -0.1733  0.0585
   61MOL    O3618156   4.490   4.410   2.134 -0.0568 -0.3290  0.3797
   61MOL    C3718157   4.485   4.339   2.257  0.1236  0.6721  0.0488
   61MOL    C3818158   4.575   4.219   2.240  0.5736  0.4930 -0.1285
   61MOL    H3918159   4.554   4.704   1.874 -1.1093 -0.4942 -0.5815
   61MOL    H4018160   4.626   4.555   1.957  0.1802 -0.0929  1.1856
   61MOL    H4118161   4.330   4.643   1.970 -1.9944 -0.7350  2.1785
   61MOL    H4218162   4.516   4.399   2.342  0.6044  2.1824 -1.1820
   61MOL    H4318163   4.383   4.311   2.284 -0.7043  1.1640 -2.4726
   61MOL    H4418164   4.676   4.261   2.235 -0.6205  3.3273 -1.6042
   61MOL    H4518165   4.555   4.176   2.142  0.5087  0.2994 -0.0301
   61MOL    H4618166   4.566   4.150   2.324 -0.6745 -0.0561 -0.7060
   61MOL    C4718167   4.391   4.468   1.860  0.8797 -0.7795  0.7328
   61MOL    C4818168   4.276   4.498   1.763  1.0008  0.3612  0.3044
   61MOL    C4918169   4.296   4.638   1.691 -0.4173 -0.1631  0.0168
   61MOL    O5018170   4.225   4.738   1.717 -0.5072  0.5888 -0.4688
   61MOL    O5118171   4.396   4.642   1.608  0.0389  0.1811  0.2521
   61MOL    C5218172   4.433   4.748   1.524  0.0508  0.3564  0.3270
   61MOL    C5318173   4.569   4.802   1.568  0.1507 -0.2873  0.2838
   61MOL    H5418174   4.485   4.464   1.805  0.0708  0.4521 -0.8076
   61MOL    H5518175   4.385   4.365   1.895 -0.0376 -2.1732 -3.2330
   61MOL    H5618176   4.289   4.427   1.681 -0.3894 -0.0364  0.4160
   61MOL    H5718177   4.450   4.699   1.428 -1.4454 -1.8028  1.1274
   61MOL    H5818178   4.354   4.820   1.501 -1.1642 -1.1972 -0.4297
   61MOL    H5918179   4.587   4.842   1.668  1.3958 -1.6369  0.6144
   61MOL    H6018180   4.601   4.885   1.506  0.7511 -1.3120 -0.7902
   61MOL    H6118181   4.648   4.732   1.541  1.3847  1.5483 -0.9481
   61MOL    C6218182   4.136   4.460   1.827 -0.0047 -0.4842  1.3245
   61MOL    C6318183   4.049   4.363   1.756 -0.4709  0.0240  0.4021
   61MOL    C6418184   4.123   4.229   1.749 -0.0661  0.5495 -0.4569
   61MOL    O6518185   4.139   4.165   1.641  0.0351  0.3473  0.4819
   61MOL    O6618186   4.165   4.182   1.871 -0.3879  0.4052  0.0539
   61MOL    C6718187   4.202   4.035   1.882 -0.0847  0.2150  0.5627
   61MOL    C6818188   4.335   4.005   1.951  0.0491 -0.5153 -0.4580
   61MOL    H6918189   4.160   4.413   1.922  0.5851  0.5448  1.6903
   61MOL    H7018190   4.078   4.549   1.848  0.0728 -0.5730  1.9088
   61MOL    H7118191   3.963   4.347   1.820 -0.3509  0.3594  0.6502
   61MOL    H7218192   4.125   3.980   1.935  0.3519  0.7940  1.8406
   61MOL    H7318193   4.206   3.993   1.782  1.4031  1.7481 -0.0479
   61MOL    H7418194   4.333   3.896   1.949 -3.4376 -0.5280  0.4965
   61MOL    H7518195   4.329   4.036   2.056  1.4037 -0.2524 -0.4477
   61MOL    H7618196   4.425   4.049   1.908  1.4144  0.2482  2.9696
   61MOL    C7718197   4.001   4.406   1.614 -0.3203  0.5698  0.5634
   61MOL    C7818198   3.903   4.528   1.607 -0.3371 -0.4480  0.2206
   61MOL    C7918199   3.778   4.509   1.702  0.6671 -0.6611 -0.9174
   61MOL    O8018200   3.749   4.589   1.789  0.4745 -0.8009  0.2288
   61MOL    O8118201   3.693   4.409   1.664  0.0117 -0.0025  0.5000
   61MOL    C8218202   3.563   4.395   1.724  1.0031 -0.4530  0.0135
   61MOL    C8318203   3.445   4.438   1.640 -0.1652 -0.2038 -0.6055
   61MOL    H8418204   4.089   4.421   1.553  0.6316 -1.5733  1.3572
   61MOL    H8518205   3.952   4.322   1.564  1.8719  1.1960 -2.7600
   61MOL    H8618206   3.948   4.622   1.640 -2.0625 -0.3571  2.4780
   61MOL    H8718207   3.538   4.292   1.751 -0.2498 -0.2077 -0.2136
   61MOL    H8818208   3.552   4.436   1.824 -2.1927 -4.2342  1.3155
   61MOL    H8918209   3.437   4.547   1.636  4.8073  0.2537 -1.2601
   61MOL    H9018210   3.351   4.403   1.683 -1.2587  3.0689 -0.1506
   61MOL    H9118211   3.435   4.414   1.534 -1.6763  0.6872 -0.6789
   61MOL    C9218212   3.853   4.544   1.457 -0.0959  0.1557  0.0883
   61MOL    C9318213   3.966   4.567   1.345  0.8968  0.1288 -0.4408
   61MOL    C9418214   4.043   4.698   1.369  0.0253  0.1547  0.3457
   61MOL    O9518215   4.158   4.706   1.340 -0.7719 -0.2144 -0.0721
   61MOL    O9618216   3.968   4.788   1.425 -0.0394  0.3558  0.1453
   61MOL    C9718217   4.021   4.923   1.416  0.3861  0.0095  0.1414
   61MOL    C9818218   3.910   5.032   1.442  0.8987  0.5858  0.1926
   61MOL    H9918219   3.802   4.450   1.436 -0.7545  0.9536 -1.9669
   61MOL   H10018220   3.771   4.615   1.452  1.5819  2.0529 -1.2942
   61MOL   H10118221   4.039   4.486   1.351  0.4314 -0.2451  0.3489
   61MOL   H10218222   4.104   4.927   1.487  1.0158 -1.0690 -0.5264
   61MOL   H10318223   4.066   4.937   1.318 -1.5582  0.2223 -0.7498
   61MOL   H10418224   3.945   5.129   1.407 -3.5155  1.9459 -0.8797
   61MOL   H10518225   3.879   5.041   1.546 -0.7276  0.8176 -0.2964
   61MOL   H10618226   3.823   5.005   1.381  0.1162 -0.3077  1.6798
   61MOL   C10718227   3.900   4.556   1.203  0.2504 -0.2519  1.1799
   61MOL   C10818228   3.804   4.436   1.178 -0.5572  1.1748  0.1095
   61MOL   C10918229   3.892   4.304   1.178  0.4964  0.5850  0.5792
   61MOL   O11018230   3.905   4.238   1.284  0.6316  0.1161 -0.3015
   61MOL   O11118231   3.950   4.266   1.057  0.1746  0.1736 -0.0725
   61MOL   C11218232   4.035   4.157   1.053  0.3336  0.4122  0.8135
   61MOL   C11318233   3.953   4.039   0.991 -0.6773  0.3577  0.5934
   61MOL   H11418234   3.845   4.649   1.188 -0.7365 -1.1786 -1.0661
   61MOL   H11518235   3.981   4.566   1.131 -0.7193  0.6248  0.2042
   61MOL   H11618236   3.735   4.435   1.263  0.8947  3.1797  1.3593
   61MOL   H11718237   4.122   4.180   0.991  0.6508 -0.9428  0.7539
   61MOL   H11818238   4.076   4.124   1.148  0.9027  0.8793  0.7346
   61MOL   H11918239   4.005   3.950   0.956  0.2894  0.5302  1.5339
   61MOL   H12018240   3.889   4.073   0.911  0.7547  0.0343 -0.7129
   61MOL   H12118241   3.893   3.999   1.073  0.5480 -0.1239  1.2781
   61MOL   C12218242   3.738   4.450   1.041  0.3708  0.1177 -0.5952
   61MOL   C12318243   3.630   4.565   1.042  0.2319 -0.1321 -0.0332
   61MOL   C12418244   3.520   4.552   1.147 -0.5591 -0.2903  0.4131
   61MOL   O12518245   3.522   4.621   1.246  0.7392  0.1827  0.0595
   61MOL   O12618246   3.430   4.457   1.120 -0.1269 -0.4873  0.2008
   61MOL   C12718247   3.365   4.397   1.238  0.5260  0.0197  0.5331
   61MOL   C12818248   3.441   4.282   1.304 -0.1314 -0.7580  1.1998
   61MOL   H12918249   3.801   4.453   0.952  2.1801 -2.7005  0.5089
   61MOL   H13018250   3.686   4.357   1.014 -0.6197 -0.1609  2.1328
   61MOL   H13118251   3.674   4.664   1.037 -0.0141 -0.0982 -1.7425
   61MOL   H13218252   3.337   4.472   1.312  1.6266  2.0687 -1.0704
   61MOL   H13318253   3.265   4.360   1.214  0.0247  0.1698  2.3073
   61MOL   H13418254   3.469   4.208   1.229 -1.7339 -1.2470  1.0800
   61MOL   H13518255   3.383   4.219   1.371 -1.1208 -2.7366 -1.4078
   61MOL   H13618256   3.531   4.317   1.355 -0.2145 -0.7359  1.3305
   61MOL   C13718257   3.560   4.553   0.901  0.2429  0.7055  0.0392
   61MOL   C13818258   3.443   4.652   0.879  0.1401  0.0030  0.1602
   61MOL   C13918259   3.351   4.595   0.763  0.7951  0.6651  0.6818
   61MOL   O14018260   3.235   4.561   0.774 -0.3994 -0.7577 -0.5052
   61MOL   O14118261   3.405   4.614   0.641  0.2329 -0.2039 -0.2800
   61MOL   C14218262   3.336   4.563   0.523 -0.7200 -0.9587  0.4030
   61MOL   C14318263   3.349   4.659   0.408 -0.3677 -0.1446 -0.7507
   61MOL   H14418264   3.641   4.579   0.834  0.4923 -0.0836  0.0366
   61MOL   H14518265   3.522   4.452   0.889  0.1357  0.5589  1.5169
   61MOL   H14618266   3.389   4.655   0.974 -0.2793 -1.2412 -0.0265
   61MOL   H14718267   3.363   4.459   0.511  1.2435 -0.7305  2.5302
   61MOL   H14818268   3.231   4.551   0.549 -0.3904 -1.9137  1.2953
   61MOL   H14918269   3.451   4.660   0.368 -0.2791 -1.2781 -0.5699
   61MOL   H15018270   3.310   4.757   0.435 -0.5712 -0.4486  0.0744
   61MOL   H15118271   3.282   4.608   0.339 -2.8594  3.1731 -0.9363
   61MOL   C15218272   3.487   4.804   0.859  0.8246 -0.4517  0.4142
   61MOL   C15318273   3.367   4.902   0.887  0.2884 -0.6042  0.1394
   61MOL   C15418274   3.372   5.030   0.804 -0.4233 -0.4927  0.1135
   61MOL   O15518275   3.272   5.070   0.738  0.4787 -0.3057  0.0156
   61MOL   O15618276   3.489   5.097   0.809 -0.4364 -0.0585 -0.1740
   61MOL   C15718277   3.501   5.232   0.769  0.3813  0.3925  0.4834
   61MOL   C15818278   3.518   5.237   0.616  0.0528 -0.2274 -0.0193
   61MOL   H15918279   3.570   4.822   0.928  1.9739 -0.4765 -0.9444
   61MOL   H16018280   3.523   4.816   0.757  1.8650  2.3825  1.0643
   61MOL   H16118281   3.281   4.847   0.849 -0.5075  0.7189  0.0052
   61MOL   H16218282   3.413   5.282   0.810  0.4012  1.8435 -1.1525
   61MOL   H16318283   3.594   5.273   0.809  1.3484 -1.6078  0.3496
   61MOL   H16418284   3.431   5.199   0.564  1.9443 -3.1825 -1.1953
   61MOL   H16518285   3.615   5.194   0.588  0.5368  1.1421 -0.5417
   61MOL   H16618286   3.521   5.344   0.596  2.7155 -0.6704 -2.4112
   61MOL   C16718287   3.359   4.938   1.035  0.7451  0.3295  0.0762
   61MOL   C16818288   3.217   4.933   1.108  0.3377 -0.5666 -0.1383
   61MOL   C16918289   3.123   5.043   1.055  0.3245  0.4942  0.4949
   61MOL   O17018290   3.010   5.025   1.007  0.0941  0.1603 -0.0726
   61MOL   O17118291   3.178   5.168   1.061  0.1791  0.2497  0.5890
   61MOL   C17218292   3.084   5.277   1.027  0.1508 -0.3508 -0.0201
   61MOL   C17318293   3.109   5.393   1.123 -0.2195  0.6768  0.1831
   61MOL   H17418294   3.415   4.867   1.097 -0.6951 -1.9486 -1.1650
   61MOL   H17518295   3.417   5.025   1.067  0.2347  0.4575  0.6719
   61MOL   H17618296   3.172   4.845   1.062 -2.1050  0.5590 -0.0211
   61MOL   H17718297   3.098   5.308   0.923  1.1967 -3.6406 -0.9173
   61MOL   H17818298   2.977   5.255   1.029 -0.5779  2.7460 -1.3209
   61MOL   H17918299   3.016   5.449   1.121 -0.2655  0.6538  1.1954
   61MOL   H18018300   3.188   5.464   1.099  0.2478  0.2390  0.4077
   61MOL   H18118301   3.103   5.350   1.223 -0.3253  0.7242  0.1974
   61MOL   C18218302   3.217   4.917   1.261  0.5084  0.4384 -0.3752
   61MOL   C18318303   3.306   5.026   1.336  0.0563  0.4915  0.1974
   61MOL   C18418304   3.439   4.961   1.383  0.1455  0.2445 -1.1937
   61MOL   O18518305   3.540   4.971   1.317 -0.3549 -0.2208 -0.3859
   61MOL   O18618306   3.439   4.905   1.502 -0.1724  0.0961 -0.2180
   61MOL   C18718307   3.565   4.858   1.556  0.3562  0.4132  0.2719
   61MOL   C18818308   3.623   4.966   1.649  0.0783  0.1022  0.6661
   61MOL   H18918309   3.116   4.918   1.302  2.1076 -0.2218  3.7889
   61MOL   H19018310   3.254   4.817   1.282 -0.9949 -0.2509 -0.8596
   61MOL   H19118311   3.329   5.110   1.270 -1.7307  0.0251 -1.0468
   61MOL   H19218312   3.551   4.760   1.601  2.1587  0.1502  0.2979
   61MOL   H19318313   3.645   4.850   1.482  0.4543  0.0974  0.4117
   61MOL   H19418314   3.712   4.945   1.708  2.1966  2.0875 -1.7219
   61MOL   H19518315   3.541   4.980   1.719 -0.4240  0.7298 -0.0426
   61MOL   H19618316   3.646   5.056   1.593 -0.0561  0.1477  0.6835
   61MOL   C19718317   3.221   5.082   1.451  0.7608  0.1359  0.3236
   61MOL   C19818318   3.299   5.188   1.535  0.5129  0.4186  0.1668
   61MOL   C19918319   3.247   5.195   1.672  0.1138  0.2354  0.2183
   61MOL   O20018320   3.321   5.194   1.771  0.6426 -0.0313  0.0117
   61MOL   O20118321   3.116   5.233   1.676  0.2383  0.2111 -0.0554
   61MOL   C20218322   3.059   5.282   1.802  0.4602  0.3615  0.7313
   61MOL   C20318323   2.965   5.407   1.777  0.1339 -0.0518  0.2411
   61MOL   H20418324   3.131   5.127   1.409 -0.5799 -1.0671  1.8418
   61MOL   H20518325   3.192   5.000   1.515  0.0533  0.8462  0.9211
   61MOL   H20618326   3.402   5.160   1.554  0.8312  1.4475 -0.0132
   61MOL   H20718327   3.010   5.198   1.851 -0.6727 -1.1399 -2.7849
   61MOL   H20818328   3.129   5.319   1.877  0.5423 -1.0584  1.3762
   61MOL   H20918329   2.933   5.441   1.875  0.9377 -0.8543  0.7861
   61MOL   H21018330   2.874   5.383   1.722  1.6083  0.2025 -2.4074
   61MOL   H21118331   3.026   5.489   1.737 -1.0806  1.2027  0.9153
   61MOL   C21218332   3.308   5.329   1.472  0.4215  0.1035 -0.1781
   61MOL   C21318333   3.444   5.375   1.417 -0.2192 -0.5593  0.0958
   61MOL   C21418334   3.548   5.389   1.531  0.0081 -0.2704  0.6451
   61MOL   O21518335   3.660   5.346   1.527  0.2969  0.3599 -0.3782
   61MOL   O21618336   3.500   5.473   1.629 -0.3813 -0.6431  0.0781
   61MOL   C21718337   3.589   5.522   1.728 -0.0979 -0.4799  0.0790
   61MOL   C21818338   3.618   5.671   1.705 -0.6664 -0.9769  0.3754
   61MOL   H21918339   3.238   5.326   1.388  0.0829 -0.9631  0.1335
   61MOL   H22018340   3.259   5.406   1.532 -0.9382  0.9889 -2.3631
   61MOL   H22118341   3.479   5.302   1.344  0.4211 -0.0398 -0.1105
   61MOL   H22218342   3.544   5.508   1.827  0.7559 -0.9102  0.4153
   61MOL   H22318343   3.688   5.476   1.732  0.3887  0.5675  0.1512
   61MOL   H22418344   3.539   5.731   1.750  0.8001  0.5758  0.9259
   61MOL   H22518345   3.638   5.703   1.602  1.0223 -2.3537  0.2659
   61MOL   H22618346   3.706   5.710   1.755 -1.7878  2.4540 -0.2178
   61MOL   C22718347   3.422   5.511   1.342  0.0008  0.3296 -0.4055
   61MOL   C22818348   3.546   5.580   1.285  0.0060  0.1028 -0.5008
   61MOL   C22918349   3.521   5.728   1.251  0.1214 -0.0450  0.2018
   61MOL   O23018350   3.481   5.763   1.140  0.0603  0.4534 -0.3356
   61MOL   O23118351   3.560   5.805   1.352  0.5649  0.2765 -0.3950
   61MOL   C23218352   3.553   5.944   1.332  0.0163  0.1721 -0.9181
   61MOL   C23318353   3.527   6.013   1.467  0.8065 -0.3538 -0.5395
   61MOL   H23418354   3.347   5.495   1.265 -0.4486  3.0627 -0.5759
   61MOL   H23518355   3.386   5.589   1.409 -0.6201  1.2511 -1.7980
   61MOL   H23618356   3.626   5.583   1.359  0.4478  2.0651 -1.0228
   61MOL   H23718357   3.641   5.987   1.284  0.0008  1.4140  0.1233
   61MOL   H23818358   3.468   5.961   1.266  1.4079 -1.8789 -3.3116
   61MOL   H23918359   3.612   6.025   1.533 -0.4909 -1.3605  1.3469
   61MOL   H24018360   3.445   5.968   1.523  1.5517  0.2487  1.0655
   61MOL   H24118361   3.494   6.117   1.456 -1.1192 -1.0984 -2.2040
   61MOL   C24218362   3.601   5.496   1.170 -0.2137 -0.2047 -0.0745
   61MOL   C24318363   3.737   5.550   1.111 -0.3552  0.4591 -0.5852
   61MOL   C24418364   3.747   5.506   0.967 -0.0587 -0.7610 -0.1597
   61MOL   O24518365   3.787   5.395   0.927  0.0763 -0.1961 -0.4457
   61MOL   O24618366   3.705   5.611   0.885  0.6651  0.1453  0.1939
   61MOL   C24718367   3.715   5.588   0.744 -0.1806  0.5530 -0.1722
   61MOL   C24818368   3.653   5.707   0.661  0.6326  0.3498  0.0888
   61MOL   H24918369   3.610   5.392   1.202 -0.6966  0.8718  3.8513
   61MOL   H25018370   3.535   5.502   1.084 -0.2657 -1.9178 -0.1808
   61MOL   H25118371   3.733   5.659   1.108  2.8326  0.6068 -0.4070
   61MOL   H25218372   3.818   5.585   0.707 -0.1977  0.9165 -0.2452
   61MOL   H25318373   3.659   5.497   0.719  0.8777  0.0383 -0.7005
   61MOL   H25418374   3.691   5.803   0.697 -0.0137 -0.1005  2.0675
   61MOL   H25518375   3.546   5.712   0.682  0.7331  0.1385  0.6878
   61MOL   H25618376   3.671   5.703   0.554  1.2105 -1.8869  0.2452
   61MOL   C25718377   3.857   5.507   1.198 -0.4973  0.0584  0.2045
   61MOL   C25818378   3.991   5.566   1.153  0.3105 -0.6303 -0.5257
   61MOL   C25918379   4.099   5.467   1.121 -0.0821 -0.4319 -0.2683
   61MOL   O26018380   4.174   5.477   1.022 -0.8749 -0.1062 -0.6997
   61MOL   O26118381   4.111   5.368   1.213  0.2580  0.0101 -0.2704
   61MOL   C26218382   4.194   5.256   1.194  0.3983  0.3237  0.0755
   61MOL   C26318383   4.276   5.214   1.321  0.2889  0.0288  0.1603
   61MOL   H26418384   3.841   5.550   1.296 -0.6865  0.4481  0.0063
   61MOL   H26518385   3.872   5.402   1.224  0.3120 -0.1141 -0.8878
   61MOL   H26618386   3.969   5.610   1.056 -0.4736  0.5132  0.1588
   61MOL   H26718387   4.128   5.178   1.157 -0.7565  0.8628  0.9755
   61MOL   H26818388   4.256   5.271   1.106 -1.7967 -0.7154 -1.6828
   61MOL   H26918389   4.208   5.173   1.396 -0.2760 -0.7501 -0.7721
   61MOL   H27018390   4.318   5.307   1.360 -1.7364  0.8481  0.4872
   61MOL   H27118391   4.355   5.144   1.294  0.3919  0.1199  0.2255
   61MOL   C27218392   4.042   5.677   1.251 -0.1133 -0.2442 -0.0043
   61MOL   C27318393   3.945   5.781   1.292  0.1408  0.2002 -0.1283
   61MOL   C27418394   3.929   5.886   1.180  0.6344 -0.7143 -0.3549
   61MOL   O27518395   3.821   5.902   1.118  0.4830 -0.2496 -0.1922
   61MOL   O27618396   4.037   5.947   1.153 -0.6303  0.2333 -0.4724
   61MOL   C27718397   4.045   6.012   1.029 -0.6338  0.1306 -0.1451
   61MOL   C27818398   4.189   6.013   0.975  0.1111  0.1164 -0.1065
   61MOL   H27918399   4.077   5.614   1.333 -2.5081 -1.6010  0.0157
   61MOL   H28018400   4.129   5.730   1.213 -0.0580 -0.3959 -0.0923
   61MOL   H28118401   3.846   5.740   1.310  0.1175 -0.4289 -1.5818
   61MOL   H28218402   3.985   5.966   0.951 -0.0298 -0.7673 -0.0809
   61MOL   H28318403   3.988   6.103   1.047 -3.0164 -1.5285  0.9915
   61MOL   H28418404   4.230   5.913   0.980 -1.2043 -0.4148  0.3947
   61MOL   H28518405   4.242   6.082   1.040 -0.6990 -0.9259  1.6950
   61MOL   H28618406   4.190   6.063   0.878 -2.6633  0.4577 -0.0152
   61MOL   C28718407   3.987   5.850   1.427 -0.2601 -0.1516 -0.3782
   61MOL   C28818408   3.867   5.929   1.493  0.3725  0.6591  0.6924
   61MOL   C28918409   3.888   5.981   1.643 -0.3419 -0.3235 -0.0797
   61MOL   O29018410   3.869   6.098   1.675  0.2824 -0.0676  0.5693
   61MOL   O29118411   3.923   5.874   1.718 -0.0466  0.6373  0.5492
   61MOL   C29218412   3.940   5.895   1.861 -0.0728 -0.2564  0.7716
   61MOL   C29318413   3.816   5.876   1.948  0.8390  0.0271 -0.0044
   61MOL   H29418414   4.016   5.776   1.502 -1.6480  1.4830  1.8685
   61MOL   H29518415   4.066   5.924   1.414 -0.6051  0.1717 -0.6361
   61MOL   H29618416   3.834   6.014   1.432  0.0680  1.1692  1.5678
   61MOL   H29718417   4.030   5.844   1.895  0.3938 -0.7006 -1.0568
   61MOL   H29818418   3.968   5.999   1.877 -1.4905  0.5406 -1.6308
   61MOL   H29918419   3.851   5.892   2.050 -1.1377 -0.1292  0.7172
   61MOL   H30018420   3.774   5.775   1.946 -1.4588  0.9157  1.6674
   61MOL   H30118421   3.737   5.947   1.927 -0.9043 -1.7092  0.4968
   61MOL   H30218422   3.781   5.863   1.492 -0.2540  1.4734  0.7187
   62MOL     C118423   6.840   1.901   0.111  0.5562  0.3286  0.0025
   62MOL     C218424   6.854   1.790   0.226  1.2240  0.4601 -0.1010
   62MOL     C318425   6.999   1.753   0.245  0.4292  0.7216  0.4557
   62MOL     O418426   7.077   1.766   0.151  0.6186  0.1027  0.4421
   62MOL     O518427   7.028   1.709   0.373 -0.4372 -0.4432  0.0362
   62MOL     C618428   7.172   1.688   0.394  0.6832  0.2599  0.1642
   62MOL     C718429   7.182   1.656   0.541 -0.2147 -0.2781  0.0177
   62MOL     H818430   6.896   1.992   0.135  1.1695 -0.3392  1.1806
   62MOL     H918431   6.733   1.900   0.092  0.9019  0.6878 -2.0311
   62MOL    H1018432   6.826   1.827   0.324 -1.7210 -3.2247  0.5636
   62MOL    H1118433   7.211   1.600   0.342 -1.1506 -2.3648  3.0659
   62MOL    H1218434   7.224   1.778   0.361  0.6715  1.0924  2.3338
   62MOL    H1318435   7.142   1.735   0.605  0.3233 -0.4201  0.5362
   62MOL    H1418436   7.281   1.635   0.582 -0.6963 -0.3562  1.1916
   62MOL    H1518437   7.122   1.570   0.573  1.7652 -1.3987  0.7772
   62MOL    H1618438   6.870   1.861   0.015 -0.4853 -3.3210  1.0983
   62MOL    C1718439   6.765   1.667   0.222 -0.0334 -0.0408 -0.0122
   62MOL    C1818440   6.802   1.559   0.117  0.6809 -0.4987 -0.1556
   62MOL    C1918441   6.782   1.619   7.886 -0.4161 -0.7532  0.8190
   62MOL    O2018442   6.876   1.632   7.806  0.4817  0.0659  0.2514
   62MOL    O2118443   6.654   1.661   7.865 -0.0584  0.1955 -0.2505
   62MOL    C2218444   6.616   1.687   7.733  0.2259 -0.0789 -0.3607
   62MOL    C2318445   6.565   1.829   7.734 -0.3610 -0.4152 -0.5727
   62MOL    H2418446   6.753   1.617   0.318  2.8321 -0.8898 -0.0434
   62MOL    H2518447   6.664   1.707   0.212 -0.4424 -0.6931  1.3486
   62MOL    H2618448   6.909   1.544   0.128  0.8019  1.2889  1.3613
   62MOL    H2718449   6.695   1.665   7.661 -0.1500 -0.8658 -0.5466
   62MOL    H2818450   6.529   1.628   7.701 -0.1517  0.1051  0.3281
   62MOL    H2918451   6.627   1.896   7.793 -2.0481 -0.5909  1.4747
   62MOL    H3018452   6.466   1.832   7.780  0.0407 -1.1362  0.3707
   62MOL    H3118453   6.558   1.888   7.643 -1.0226 -0.4710 -0.5609
   62MOL    C3218454   6.730   1.425   0.130  0.2068  0.5822  0.1944
   62MOL    C3318455   6.825   1.303   0.118  0.6078  0.1349  0.6311
   62MOL    C3418456   6.839   1.264   7.881 -0.6110  0.4080 -0.0003
   62MOL    O3518457   6.947   1.289   7.823 -0.0938  0.3047  0.3462
   62MOL    O3618458   6.731   1.213   7.830  0.4276 -0.0690 -0.5060
   62MOL    C3718459   6.711   1.199   7.689  0.5328  0.6111 -0.3613
   62MOL    C3818460   6.750   1.062   7.647 -0.1264  0.4014  0.7890
   62MOL    H3918461   6.665   1.409   0.215  0.4472 -3.3451 -0.2599
   62MOL    H4018462   6.651   1.412   0.056 -0.9128  2.3854  1.0687
   62MOL    H4118463   6.927   1.328   0.146  0.2239 -0.2012  2.3753
   62MOL    H4218464   6.605   1.221   7.672  0.3608  0.1367  0.0872
   62MOL    H4318465   6.763   1.277   7.633  1.7671 -0.6967 -1.0730
   62MOL    H4418466   6.762   1.054   7.539  1.4207  1.2000  0.8882
   62MOL    H4518467   6.671   0.994   7.678 -1.9422  1.3444 -1.6016
   62MOL    H4618468   6.848   1.031   7.684  0.8619 -0.3387 -2.2507
   62MOL    C4718469   6.776   1.190   0.210  0.0369 -0.2851 -0.5527
   62MOL    C4818470   6.776   1.223   0.360 -0.6581  0.9388 -0.2591
   62MOL    C4918471   6.914   1.263   0.406  0.0157  0.0044  0.1627
   62MOL    O5018472   6.929   1.346   0.491 -0.1265  0.5693  0.3983
   62MOL    O5118473   7.009   1.185   0.351 -0.0794 -0.2579 -0.1086
   62MOL    C5218474   7.147   1.212   0.369 -0.3502 -0.1535 -1.0968
   62MOL    C5318475   7.179   1.145   0.499 -0.6472 -0.2534 -0.3915
   62MOL    H5418476   6.672   1.166   0.189 -0.8451  0.3881  2.6737
   62MOL    H5518477   6.837   1.101   0.191  1.9770  0.3098  2.4662
   62MOL    H5618478   6.727   1.319   0.375  0.7757  1.1599  3.5201
   62MOL    H5718479   7.207   1.169   0.289 -0.0816  0.6101 -1.3184
   62MOL    H5818480   7.179   1.317   0.373  0.9177 -0.5566 -0.2053
   62MOL    H5918481   7.139   1.044   0.503  0.8018 -0.8735 -0.8761
   62MOL    H6018482   7.145   1.200   0.586  0.1107 -1.0992  0.4456
   62MOL    H6118483   7.288   1.150   0.503 -0.6371 -1.5242  1.7107
   62MOL    C6218484   6.706   1.119   0.460 -0.3955  0.4254 -0.0506
   62MOL    C6318485   6.794   0.995   0.498  0.5576 -0.0679  0.2396
   62MOL    C6418486   6.826   0.903   0.387 -0.6017  0.2072 -0.0198
   62MOL    O6518487   6.930   0.842   0.384 -0.0235  0.2158 -0.0915
   62MOL    O6618488   6.729   0.896   0.293  0.5946  0.0831 -0.2561
   62MOL    C6718489   6.748   0.830   0.171 -0.7710 -0.1072  0.4596
   62MOL    C6818490   6.643   0.864   0.063  0.0826  0.1338  0.6008
   62MOL    H6918491   6.666   1.172   0.547  0.4919  1.5211 -0.2971
   62MOL    H7018492   6.612   1.088   0.414 -1.5621  2.1070  1.1048
   62MOL    H7118493   6.890   1.034   0.532 -0.2011  1.7233  0.4013
   62MOL    H7218494   6.849   0.858   0.140 -0.9733 -0.1106 -0.2190
   62MOL    H7318495   6.754   0.724   0.196  2.6848  0.8921  4.3250
   62MOL    H7418496   6.668   0.815   7.877  0.9291 -0.5912  1.1915
   62MOL    H7518497   6.641   0.969   0.034 -0.0431  0.3126  1.2648
   62MOL    H7618498   6.538   0.847   0.084 -0.7893  3.3389 -0.8627
   62MOL    C7718499   6.726   0.913   0.610  0.0900  0.6025  0.4046
   62MOL    C7818500   6.754   0.967   0.757 -0.8359 -0.4194 -0.2501
   62MOL    C7918501   6.898   0.978   0.798 -0.5189 -0.5783  0.4872
   62MOL    O8018502   6.957   1.086   0.793  0.0245  0.0743 -0.3420
   62MOL    O8118503   6.951   0.860   0.844 -0.1778  0.2485 -0.5601
   62MOL    C8218504   7.084   0.854   0.888  0.3418 -0.0396  0.2935
   62MOL    C8318505   7.164   0.792   0.772  0.4054 -0.3974  0.3872
   62MOL    H8418506   6.617   0.914   0.599  0.0382 -0.6900  0.8338
   62MOL    H8518507   6.758   0.809   0.612 -2.1021 -0.0910  0.8316
   62MOL    H8618508   6.724   1.071   0.761 -0.1059 -0.1799 -0.7944
   62MOL    H8718509   7.125   0.953   0.907 -1.8002  1.3027 -1.7191
   62MOL    H8818510   7.092   0.791   0.977  1.9134 -0.0215  0.1626
   62MOL    H8918511   7.127   0.694   0.744  0.8094 -0.2802 -0.6090
   62MOL    H9018512   7.269   0.793   0.803  0.6651  0.4560 -0.4553
   62MOL    H9118513   7.150   0.867   0.693 -0.2874  1.2082  1.9876
   62MOL    C9218514   6.676   0.870   0.862  0.2867 -0.5827 -0.5416
   62MOL    C9318515   6.523   0.894   0.844 -0.2421 -0.2520 -0.1542
   62MOL    C9418516   6.482   0.955   0.981  0.0392  0.5030 -0.6217
   62MOL    O9518517   6.452   1.075   0.996 -0.4977  0.0725 -0.0701
   62MOL    O9618518   6.478   0.870   1.085  0.1278 -0.6602  0.2795
   62MOL    C9718519   6.469   0.923   1.222 -0.3681  0.1469 -0.2621
   62MOL    C9818520   6.328   0.895   1.262  0.0613  0.1042 -0.4388
   62MOL    H9918521   6.691   0.762   0.851  0.7720 -0.3926 -1.8612
   62MOL   H10018522   6.709   0.887   0.964  1.7539 -0.8218 -0.9722
   62MOL   H10118523   6.511   0.979   0.777 -2.2133 -0.5563 -0.2378
   62MOL   H10218524   6.536   0.866   1.287 -0.5729 -1.0459 -1.0780
   62MOL   H10318525   6.500   1.027   1.225 -0.4529  0.1899 -0.8144
   62MOL   H10418526   6.254   0.945   1.199 -2.1524 -0.5618  1.5908
   62MOL   H10518527   6.315   0.916   1.368 -1.2009  0.1012 -0.5820
   62MOL   H10618528   6.304   0.790   1.245  0.8449 -0.0125 -0.8505
   62MOL   C10718529   6.437   0.777   0.790  0.7282  0.9481 -0.9758
   62MOL   C10818530   6.299   0.814   0.739 -0.5675  0.4286  0.4096
   62MOL   C10918531   6.196   0.827   0.851  0.2013  0.0729  0.0728
   62MOL   O11018532   6.119   0.923   0.843 -0.0867 -0.1298 -0.1570
   62MOL   O11118533   6.186   0.734   0.937  0.2513 -0.2680  0.0382
   62MOL   C11218534   6.091   0.750   1.050 -0.5816  0.0365  0.2152
   62MOL   C11318535   5.957   0.690   1.006 -0.0331  0.2492  0.5017
   62MOL   H11418536   6.498   0.746   0.705  2.3970 -1.8027  1.1388
   62MOL   H11518537   6.432   0.692   0.857 -1.8254 -0.6305 -3.0996
   62MOL   H11618538   6.307   0.914   0.696  1.8502 -0.5570 -1.5141
   62MOL   H11718539   6.126   0.692   1.135  1.7895  1.1627  0.0245
   62MOL   H11818540   6.079   0.850   1.091 -0.3195  0.6482 -1.1759
   62MOL   H11918541   5.921   0.734   0.913  1.1575 -1.0178 -0.5788
   62MOL   H12018542   5.889   0.694   1.092  0.4788  2.8916  0.8186
   62MOL   H12118543   5.976   0.586   0.982  1.0414  0.5500  0.0506
   62MOL   C12218544   6.248   0.722   0.619 -0.6655  0.0785  0.2062
   62MOL   C12318545   6.199   0.584   0.659 -0.2147  0.5658 -0.8046
   62MOL   C12418546   6.319   0.502   0.703  0.1086  0.2900  0.1696
   62MOL   O12518547   6.427   0.511   0.654  0.5002 -0.5030  0.1722
   62MOL   O12618548   6.281   0.402   0.788  0.0269 -0.3102  0.2269
   62MOL   C12718549   6.374   0.301   0.818  0.0416 -0.3869 -0.0776
   62MOL   C12818550   6.298   0.171   0.856 -0.1630 -0.7564  0.4609
   62MOL   H12918551   6.166   0.777   0.574  0.9101  1.0615 -1.5249
   62MOL   H13018552   6.317   0.725   0.535  0.4293  0.3104  1.0991
   62MOL   H13118553   6.133   0.608   0.742  0.6112  0.5265 -0.1284
   62MOL   H13218554   6.442   0.286   0.734  0.0612  2.4100 -0.6150
   62MOL   H13318555   6.429   0.316   0.911  3.6831 -0.4894 -2.1128
   62MOL   H13418556   6.376   0.096   0.871 -1.5763 -2.1976  0.7272
   62MOL   H13518557   6.231   0.150   0.773 -1.8967  1.9010  1.1407
   62MOL   H13618558   6.236   0.187   0.944  2.9427  0.2247  2.5752
   62MOL   C13718559   6.118   0.516   0.554  0.1519 -0.2624 -0.2457
   62MOL   C13818560   5.976   0.584   0.553  0.5009  0.7441 -0.1041
   62MOL   C13918561   5.879   0.510   0.649  0.9433 -0.1796  0.4873
   62MOL   O14018562   5.838   0.562   0.752  0.1795 -0.1218  0.2677
   62MOL   O14118563   5.844   0.394   0.596 -0.1888 -0.6568 -0.1279
   62MOL   C14218564   5.763   0.310   0.668  0.2021 -0.0478  0.0319
   62MOL   C14318565   5.856   0.200   0.713 -0.2225 -0.0866  0.3494
   62MOL   H14418566   6.167   0.539   0.459 -1.4774 -2.4890 -1.6898
   62MOL   H14518567   6.120   0.407   0.560 -1.0041 -0.2472  0.7037
   62MOL   H14618568   5.985   0.688   0.583  0.1921  0.3403  1.4246
   62MOL   H14718569   5.706   0.363   0.744  0.0848  0.3194 -0.3090
   62MOL   H14818570   5.695   0.263   0.597  0.0531  0.2265 -0.0089
   62MOL   H14918571   5.937   0.237   0.776  1.3069  0.0590 -1.6737
   62MOL   H15018572   5.894   0.158   0.620 -1.8000 -1.2758  0.2182
   62MOL   H15118573   5.817   0.123   0.780 -0.3533 -1.9140 -1.7715
   62MOL   C15218574   5.914   0.588   0.410  0.2132  0.1606 -0.1916
   62MOL   C15318575   5.794   0.689   0.391  0.3315  0.0549  0.6876
   62MOL   C15418576   5.678   0.616   0.310  0.0142 -0.4003  0.0335
   62MOL   O15518577   5.660   0.631   0.187  0.3287  0.4833  0.1194
   62MOL   O15618578   5.611   0.530   0.389  0.1089 -0.1677  0.1026
   62MOL   C15718579   5.499   0.453   0.331  0.3986 -0.3578 -0.7685
   62MOL   C15818580   5.369   0.535   0.315 -0.5667  0.2657  0.2678
   62MOL   H15918581   5.999   0.618   0.349 -1.0165  0.5536 -1.7869
   62MOL   H16018582   5.901   0.483   0.381  1.8647  0.3554 -1.7469
   62MOL   H16118583   5.754   0.701   0.491  0.5437  0.5640  0.7080
   62MOL   H16218584   5.533   0.398   0.244 -0.5426 -0.8234 -0.8522
   62MOL   H16318585   5.479   0.376   0.406 -0.6854  2.1918  1.6435
   62MOL   H16418586   5.320   0.504   0.223  1.8586 -2.2028 -0.2599
   62MOL   H16518587   5.405   0.635   0.291  3.2400 -1.6840 -2.6519
   62MOL   H16618588   5.302   0.547   0.400 -0.1009  3.4813  0.2451
   62MOL   C16718589   5.843   0.818   0.326 -0.5557 -0.6178  0.5292
   62MOL   C16818590   5.762   0.955   0.345 -0.2102 -0.6344 -1.2467
   62MOL   C16918591   5.623   0.943   0.286 -0.7258 -0.5379 -0.3718
   62MOL   O17018592   5.525   0.944   0.357  0.3548 -0.6778 -0.7713
   62MOL   O17118593   5.618   0.924   0.156  1.1387 -0.5810 -0.0132
   62MOL   C17218594   5.498   0.899   0.083  0.7244  0.3514 -0.4494
   62MOL   C17318595   5.531   0.835   7.858  0.5568  0.4232 -0.2726
   62MOL   H17418596   5.938   0.831   0.376 -1.2136 -1.3913  2.0068
   62MOL   H17518597   5.869   0.802   0.221 -0.4161  1.0608  0.2894
   62MOL   H17618598   5.756   0.959   0.453  1.9837 -0.0274 -1.1287
   62MOL   H17718599   5.427   0.848   0.148 -0.9942  0.9767 -1.8082
   62MOL   H17818600   5.449   0.996   0.073  0.6283  0.5231  1.4369
   62MOL   H17918601   5.440   0.787   7.822 -0.2558  0.8385  1.1898
   62MOL   H18018602   5.595   0.750   7.881 -0.4075 -0.4867 -0.9298
   62MOL   H18118603   5.570   0.914   7.794 -0.0850  1.7834  0.9958
   62MOL   C18218604   5.831   1.090   0.289 -0.4125  0.9356 -0.1645
   62MOL   C18318605   5.768   1.201   0.369  0.1504 -0.1910  0.1508
   62MOL   C18418606   5.781   1.335   0.293  0.3714 -0.3625  0.0713
   62MOL   O18518607   5.681   1.383   0.240  0.0352 -0.1296 -0.2171
   62MOL   O18618608   5.911   1.387   0.288 -0.0905 -0.4972  0.0072
   62MOL   C18718609   5.926   1.505   0.207  0.5688 -0.5366  0.0174
   62MOL   C18818610   5.961   1.618   0.309 -0.1428 -0.1474  0.3882
   62MOL   H18918611   5.939   1.074   0.290 -0.6307 -0.6205  0.6271
   62MOL   H19018612   5.800   1.107   0.186 -1.0685 -1.5039 -0.4234
   62MOL   H19118613   5.660   1.187   0.379  0.4897 -3.0476  0.0552
   62MOL   H19218614   6.008   1.494   0.135 -0.2230 -0.4855 -0.9018
   62MOL   H19318615   5.835   1.526   0.151 -0.3940  0.6543  1.9809
   62MOL   H19418616   6.052   1.596   0.366 -0.5431 -3.3249 -0.1025
   62MOL   H19518617   5.878   1.615   0.379 -0.8870  1.1631 -0.4161
   62MOL   H19618618   5.978   1.719   0.272  0.7799 -0.8653 -1.1703
   62MOL   C19718619   5.798   1.227   0.522 -0.1343  0.5605  0.4221
   62MOL   C19818620   5.688   1.296   0.606  0.2525 -0.0850 -0.0605
   62MOL   C19918621   5.561   1.198   0.628  0.3267 -0.8964  0.2817
   62MOL   O20018622   5.451   1.233   0.580 -0.0358  1.1482 -0.2407
   62MOL   O20118623   5.582   1.081   0.699  0.3302 -0.0179 -0.0548
   62MOL   C20218624   5.477   1.005   0.732 -0.3838 -0.4825 -0.4200
   62MOL   C20318625   5.512   0.909   0.840 -0.2151 -0.0323  0.4026
   62MOL   H20418626   5.824   1.135   0.575 -0.4591  1.4323  2.1548
   62MOL   H20518627   5.885   1.292   0.529  0.6355 -0.5628  1.4140
   62MOL   H20618628   5.719   1.289   0.710  0.9645 -0.6013 -0.3031
   62MOL   H20718629   5.397   1.063   0.777  0.0675 -0.7490  0.7249
   62MOL   H20818630   5.425   0.957   0.649  0.4655 -0.8850 -0.7329
   62MOL   H20918631   5.617   0.881   0.848 -0.4229 -0.3501  2.1843
   62MOL   H21018632   5.449   0.820   0.829 -1.0339  0.6560 -0.5687
   62MOL   H21118633   5.486   0.953   0.936 -0.9066  1.6925 -0.5539
   62MOL   C21218634   5.664   1.447   0.568  0.1511 -0.3514 -0.4312
   62MOL   C21318635   5.619   1.540   0.687 -0.0814  0.3411  0.1849
   62MOL   C21418636   5.537   1.664   0.645 -0.5540  0.5427 -0.4201
   62MOL   O21518637   5.439   1.701   0.708  0.7346 -0.4229  0.2672
   62MOL   O21618638   5.597   1.735   0.539 -0.1554 -0.2056 -1.1801
   62MOL   C21718639   5.535   1.857   0.504 -0.0141  0.3839 -0.9342
   62MOL   C21818640   5.615   1.950   0.411 -0.2942 -0.2879 -0.4011
   62MOL   H21918641   5.749   1.491   0.516 -0.4316 -0.3031 -1.3603
   62MOL   H22018642   5.589   1.453   0.489  0.5540  1.2389 -0.7054
   62MOL   H22118643   5.547   1.481   0.742 -0.1432 -0.4597 -0.7344
   62MOL   H22218644   5.443   1.842   0.448 -0.4861  1.5103 -0.4739
   62MOL   H22318645   5.499   1.920   0.585 -0.9680 -2.8213  1.2196
   62MOL   H22418646   5.613   1.906   0.311  0.1022  1.3861 -1.1534
   62MOL   H22518647   5.719   1.952   0.441 -0.3042 -1.0516 -0.3064
   62MOL   H22618648   5.566   2.046   0.401  1.4160  0.5995 -0.3754
   62MOL   C22718649   5.721   1.580   0.801 -0.2192 -0.0490  0.2020
   62MOL   C22818650   5.844   1.664   0.748  0.4381 -0.8435 -1.0198
   62MOL   C22918651   5.980   1.594   0.803  0.1513 -0.2645  0.7662
   62MOL   O23018652   6.053   1.528   0.728 -0.2363  0.0720 -0.0122
   62MOL   O23118653   6.000   1.611   0.928 -0.1230 -0.3893 -0.0463
   62MOL   C23218654   6.121   1.592   0.999 -0.3139 -0.7141 -0.5074
   62MOL   C23318655   6.200   1.716   0.999 -0.0961  0.0027 -0.6028
   62MOL   H23418656   5.668   1.631   0.881  1.4031  1.8214  0.1357
   62MOL   H23518657   5.763   1.488   0.842  2.8344  1.5977  0.9648
   62MOL   H23618658   5.844   1.655   0.639 -0.8845 -2.3622 -0.9220
   62MOL   H23718659   6.087   1.562   1.098  0.8207  1.8218  0.7111
   62MOL   H23818660   6.178   1.508   0.959 -2.3980 -2.2342 -0.3305
   62MOL   H23918661   6.135   1.800   1.026  1.6204  0.9449  0.6586
   62MOL   H24018662   6.233   1.748   0.900 -1.2395  0.9130 -0.6972
   62MOL   H24118663   6.273   1.706   1.079 -1.8778 -2.3492  0.7998
   62MOL   C24218664   5.831   1.812   0.801 -0.5512 -0.5981  0.1362
   62MOL   C24318665   5.944   1.911   0.766 -0.1928 -0.7319  0.5661
   62MOL   C24418666   5.929   2.039   0.849 -0.3730 -0.5592 -0.0004
   62MOL   O24518667   5.887   2.152   0.807  0.4195  0.8619 -0.0115
   62MOL   O24618668   5.953   2.009   0.974  0.1376  0.0985  0.5148
   62MOL   C24718669   5.948   2.108   1.079  0.1017 -0.4441 -0.1029
   62MOL   C24818670   5.959   2.044   1.216  0.5477  0.1763  0.4420
   62MOL   H24918671   5.732   1.842   0.766  0.1241  0.4000 -0.9272
   62MOL   H25018672   5.827   1.815   0.910  1.0047 -2.9549  0.3101
   62MOL   H25118673   6.038   1.866   0.796 -0.1677 -0.4264  0.9607
   62MOL   H25218674   6.028   2.172   1.040 -0.0448 -1.3109 -1.8850
   62MOL   H25318675   5.853   2.161   1.072  0.8276  0.6070 -2.3916
   62MOL   H25418676   5.993   2.107   1.298 -0.0661 -1.3304  1.8909
   62MOL   H25518677   6.022   1.955   1.211 -1.4591 -1.2663  0.1485
   62MOL   H25618678   5.856   2.021   1.242  1.3793 -3.7061  0.6266
   62MOL   C25718679   5.933   1.939   0.616  0.2936  0.1207  0.4884
   62MOL   C25818680   6.070   1.972   0.551 -0.6730  0.9313 -0.0928
   62MOL   C25918681   6.063   2.059   0.428 -0.4637 -0.8696 -0.1363
   62MOL   O26018682   6.120   2.171   0.433 -0.1171  0.3744 -0.6003
   62MOL   O26118683   5.993   2.011   0.328  0.2212 -0.1856 -0.7501
   62MOL   C26218684   5.976   2.071   0.200 -0.5598  0.2261  0.2648
   62MOL   C26318685   5.891   1.979   0.111  0.6898 -0.1981  0.0500
   62MOL   H26418686   5.886   1.852   0.570  4.3337 -2.2531  0.6872
   62MOL   H26518687   5.866   2.022   0.591  0.5706 -0.3550 -1.9768
   62MOL   H26618688   6.132   2.039   0.609  1.4746 -2.9412  2.2823
   62MOL   H26718689   5.944   2.175   0.214  2.4778  1.1450  0.9616
   62MOL   H26818690   6.079   2.081   0.167 -1.4752 -0.0945 -2.7754
   62MOL   H26918691   5.936   1.881   0.101  0.4764 -0.2758 -0.1555
   62MOL   H27018692   5.871   2.011   0.008 -0.5665  2.6374  1.1300
   62MOL   H27118693   5.801   1.963   0.171  0.8586 -1.1974  0.0405
   62MOL   C27218694   6.146   1.843   0.526  0.4095  0.3822  1.0244
   62MOL   C27318695   6.285   1.831   0.585  0.4228 -0.1564 -0.1916
   62MOL   C27418696   6.381   1.943   0.538 -0.3208 -0.0265  0.8955
   62MOL   O27518697   6.432   2.012   0.626  0.3195 -0.3196  0.4857
   62MOL   O27618698   6.385   1.955   0.404 -0.3472  0.4601 -0.3013
   62MOL   C27718699   6.448   2.066   0.346 -0.2003 -0.4865  0.0771
   62MOL   C27818700   6.460   2.057   0.197 -0.1431  0.0844  0.2063
   62MOL   H27918701   6.090   1.756   0.560 -0.7123 -0.1586 -2.0957
   62MOL   H28018702   6.168   1.840   0.420  0.3709 -0.9191  1.0435
   62MOL   H28118703   6.283   1.858   0.691  1.0489  2.1197 -0.7385
   62MOL   H28218704   6.389   2.157   0.361 -1.2393 -0.7707 -2.0618
   62MOL   H28318705   6.546   2.088   0.389 -0.5852  1.3299  0.0856
   62MOL   H28418706   6.508   1.965   0.164  0.8440  0.5976  0.1722
   62MOL   H28518707   6.527   2.134   0.159  0.8883 -1.3431 -0.9328
   62MOL   H28618708   6.367   2.074   0.143 -0.1525 -1.5495 -0.3147
   62MOL   C28718709   6.345   1.684   0.556  0.0112  0.4861  0.4502
   62MOL   C28818710   6.492   1.666   0.593 -0.5953 -0.6092  0.1137
   62MOL   C28918711   6.540   1.528   0.610  0.2300 -0.3779  0.2084
   62MOL   O29018712   6.620   1.488   0.529 -1.2553 -0.3531 -0.2351
   62MOL   O29118713   6.482   1.461   0.709 -0.3814 -0.3192 -0.4617
   62MOL   C29218714   6.502   1.325   0.742  0.2503  0.4164 -0.3407
   62MOL   C29318715   6.401   1.238   0.665 -0.5237  0.4518 -0.4079
   62MOL   H29418716   6.298   1.607   0.617  0.5187 -1.4676 -1.5730
   62MOL   H29518717   6.322   1.655   0.454 -1.9590  3.5964 -0.0532
   62MOL   H29618718   6.556   1.715   0.520 -2.3602  0.2314 -0.8875
   62MOL   H29718719   6.603   1.291   0.721 -0.4116 -0.0957 -2.9762
   62MOL   H29818720   6.483   1.307   0.848 -0.6949  1.3936 -0.3361
   62MOL   H29918721   6.303   1.241   0.712 -0.2958 -0.9263  0.1941
   62MOL   H30018722   6.427   1.132   0.662  1.8792  0.9771  1.1170
   62MOL   H30118723   6.396   1.272   0.561  0.9032  1.6152 -0.1011
   62MOL   H30218724   6.516   1.715   0.688  2.0374 -0.8886 -0.3588
   63MOL     C118725   7.159   1.371   5.759 -0.4686 -0.7460 -0.1602
   63MOL     C218726   7.222   1.493   5.821 -0.2213  0.6303  0.3305
   63MOL     C318727   7.235   1.610   5.721  0.0617 -0.3905  0.1665
   63MOL     O418728   7.185   1.718   5.745  0.2691 -0.1363  0.5712
   63MOL     O518729   7.324   1.584   5.624 -0.7825  1.4895  0.3051
   63MOL     C618730   7.352   1.674   5.519  0.3220  0.0983 -0.3268
   63MOL     C718731   7.345   1.607   5.383 -0.5404  0.0185 -0.3364
   63MOL     H818732   7.224   1.335   5.679 -0.8615 -1.6234 -0.0879
   63MOL     H918733   7.065   1.406   5.716 -0.2098 -0.7955 -0.7777
   63MOL    H1018734   7.161   1.529   5.904 -0.9203 -1.7774  0.8969
   63MOL    H1118735   7.273   1.749   5.527  1.5122  1.4263 -0.8774
   63MOL    H1218736   7.449   1.722   5.526  0.3538  0.2928 -1.9618
   63MOL    H1318737   7.376   1.677   5.305  0.0188 -0.2671 -0.3753
   63MOL    H1418738   7.248   1.564   5.357  0.1675 -2.1917  0.5781
   63MOL    H1518739   7.410   1.520   5.384 -0.8511 -0.2196  2.3333
   63MOL    H1618740   7.135   1.298   5.835  3.1214 -0.4840  1.2921
   63MOL    C1718741   7.354   1.455   5.901 -0.1459  0.1890 -0.9825
   63MOL    C1818742   7.403   1.559   6.010  0.1434  0.2745 -0.2848
   63MOL    C1918743   7.501   1.665   5.953 -0.4046 -0.0662  0.4264
   63MOL    O2018744   7.549   1.655   5.843  0.0569 -0.1157 -0.3712
   63MOL    O2118745   7.520   1.762   6.056  0.4028 -0.3758  0.1617
   63MOL    C2218746   7.621   1.865   6.026  0.7081 -0.4600  0.1874
   63MOL    C2318747   7.698   1.907   6.152 -0.3641 -0.7596  1.0293
   63MOL    H2418748   7.328   1.360   5.946 -1.7153  0.3474 -1.5314
   63MOL    H2518749   7.434   1.435   5.829  0.7540 -2.0215  0.5704
   63MOL    H2618750   7.319   1.616   6.049 -0.0850  0.9935 -1.7877
   63MOL    H2718751   7.693   1.811   5.963  0.3635  0.0775 -0.6804
   63MOL    H2818752   7.570   1.949   5.980  0.4065 -0.8730 -0.2414
   63MOL    H2918753   7.636   1.949   6.231  1.0908 -0.1008  1.8464
   63MOL    H3018754   7.782   1.974   6.137 -0.5548 -0.0065  3.2045
   63MOL    H3118755   7.741   1.817   6.198 -1.0587 -1.7189 -0.1754
   63MOL    C3218756   7.465   1.491   6.130 -0.3714  0.6542  0.0929
   63MOL    C3318757   7.364   1.477   6.247  0.5685 -0.5814  0.0634
   63MOL    C3418758   7.357   1.608   6.325  0.1744  0.2380 -0.2319
   63MOL    O3518759   7.248   1.667   6.326 -0.0329  0.1625 -0.2621
   63MOL    O3618760   7.470   1.642   6.384  0.0271  0.1354 -0.3212
   63MOL    C3718761   7.474   1.726   6.490 -0.5224 -0.8487 -0.3094
   63MOL    C3818762   7.608   1.791   6.519 -0.7131 -0.2823 -0.0011
   63MOL    H3918763   7.498   1.391   6.102  1.8749  0.9439  1.6024
   63MOL    H4018764   7.556   1.542   6.160  0.0035  0.4331 -0.6473
   63MOL    H4118765   7.264   1.457   6.209  0.4083 -0.7505  0.5641
   63MOL    H4218766   7.404   1.801   6.451  0.3504 -0.3466 -0.9246
   63MOL    H4318767   7.436   1.676   6.579  0.0247  0.9569  0.9819
   63MOL    H4418768   7.682   1.714   6.541 -0.4463 -0.2155 -0.6444
   63MOL    H4518769   7.613   1.857   6.606 -1.2756  0.7741 -0.7562
   63MOL    H4618770   7.648   1.844   6.432  0.3652 -0.3051  0.4804
   63MOL    C4718771   7.400   1.354   6.334 -0.3513  0.1273  0.4831
   63MOL    C4818772   7.299   1.305   6.445 -0.1788  0.3382 -0.3550
   63MOL    C4918773   7.346   1.363   6.578  0.9023 -0.3479 -0.0563
   63MOL    O5018774   7.284   1.455   6.629  0.1766 -0.3619  0.2802
   63MOL    O5118775   7.458   1.309   6.622 -0.2863 -0.3938 -0.1377
   63MOL    C5218776   7.511   1.346   6.754 -0.6868  0.2143 -0.4156
   63MOL    C5318777   7.640   1.423   6.738  0.2518 -0.0342  0.4785
   63MOL    H5418778   7.457   1.274   6.288  1.9928  1.3565  1.1510
   63MOL    H5518779   7.485   1.406   6.380  1.2446 -0.4110 -1.7807
   63MOL    H5618780   7.198   1.339   6.423 -0.5983  0.0956  1.1776
   63MOL    H5718781   7.445   1.407   6.816  1.2059  1.2634  0.6363
   63MOL    H5818782   7.524   1.255   6.812  1.1103  0.7936  0.1178
   63MOL    H5918783   7.703   1.369   6.666 -0.2722 -0.1382  0.0950
   63MOL    H6018784   7.706   1.420   6.825  0.0194 -2.4545  0.6149
   63MOL    H6118785   7.615   1.522   6.700 -2.6581 -0.8792  0.0343
   63MOL    C6218786   7.287   1.150   6.445  0.2479  0.1599 -0.0340
   63MOL    C6318787   7.221   1.097   6.319 -0.0676  0.1933  0.6188
   63MOL    C6418788   7.078   1.126   6.311  0.2169 -0.2941  0.4960
   63MOL    O6518789   7.016   1.162   6.413  0.2201 -0.1102 -0.1179
   63MOL    O6618790   7.021   1.113   6.187  0.5291  0.6155 -0.1524
   63MOL    C6718791   6.878   1.129   6.168 -0.2344 -0.0421 -0.0701
   63MOL    C6818792   6.858   1.243   6.075 -0.4699 -0.7837  0.1321
   63MOL    H6918793   7.382   1.107   6.479  0.7623  0.2675 -1.3044
   63MOL    H7018794   7.225   1.121   6.529 -0.0222 -0.9813 -0.6158
   63MOL    H7118795   7.271   1.156   6.241 -1.5104  0.2201 -0.2967
   63MOL    H7218796   6.829   1.037   6.138 -0.6893 -0.6708  2.4156
   63MOL    H7318797   6.829   1.160   6.261  1.8778 -0.7601  1.3371
   63MOL    H7418798   6.907   1.215   5.981  0.8483 -1.8480  1.1233
   63MOL    H7518799   6.901   1.331   6.122  2.2346 -1.6298 -0.6947
   63MOL    H7618800   6.751   1.262   6.060 -0.1726  0.1255 -0.8814
   63MOL    C7718801   7.249   0.945   6.294 -0.4027 -0.2154  1.2634
   63MOL    C7818802   7.399   0.910   6.287  0.5410 -0.0081  0.2462
   63MOL    C7918803   7.463   0.980   6.162  0.2238 -0.1934 -0.1244
   63MOL    O8018804   7.572   1.040   6.172 -0.1814 -0.8150  0.0998
   63MOL    O8118805   7.395   0.971   6.061 -0.0972 -0.2744 -0.6323
   63MOL    C8218806   7.446   1.020   5.934 -0.5290 -0.4184  0.0797
   63MOL    C8318807   7.326   1.042   5.840 -0.2533 -0.6292  0.4992
   63MOL    H8418808   7.213   0.897   6.385  0.1682  0.6479  1.9600
   63MOL    H8518809   7.199   0.908   6.205 -0.1846  0.2988  0.9234
   63MOL    H8618810   7.451   0.942   6.377 -0.8609 -0.8125  1.3654
   63MOL    H8718811   7.502   1.112   5.951  0.7473 -1.1403 -0.1062
   63MOL    H8818812   7.519   0.959   5.880 -0.5856 -0.0202 -0.4484
   63MOL    H8918813   7.347   1.120   5.767  3.0445 -1.6385  0.2965
   63MOL    H9018814   7.238   1.065   5.900  0.2168  1.0898  0.5484
   63MOL    H9118815   7.298   0.948   5.790  0.4278 -2.4871  3.5008
   63MOL    C9218816   7.408   0.754   6.279 -0.3681  0.1568  0.3613
   63MOL    C9318817   7.434   0.697   6.413 -0.3157 -0.2464 -0.1849
   63MOL    C9418818   7.585   0.689   6.430 -0.2223  0.4495  0.5479
   63MOL    O9518819   7.644   0.768   6.500  0.1571  0.4412  0.5890
   63MOL    O9618820   7.645   0.587   6.371 -0.5707 -0.3029 -0.2164
   63MOL    C9718821   7.783   0.564   6.373  0.3109  0.8776  0.5280
   63MOL    C9818822   7.841   0.596   6.237 -0.3185 -0.2213  0.3293
   63MOL    H9918823   7.329   0.693   6.236  0.8084 -1.9655  1.0767
   63MOL   H10018824   7.493   0.732   6.214  0.1792 -0.8481  1.3858
   63MOL   H10118825   7.408   0.774   6.486  1.3768 -0.0104  0.1854
   63MOL   H10218826   7.835   0.608   6.458 -0.6063 -2.7361  3.0786
   63MOL   H10318827   7.790   0.456   6.381  0.3306  0.8140 -0.2410
   63MOL   H10418828   0.034   0.562   6.220 -0.3970 -0.3621  0.1379
   63MOL   H10518829   7.851   0.702   6.215  0.3366 -0.6645 -1.6471
   63MOL   H10618830   7.786   0.553   6.153  1.0660 -0.6445 -0.3818
   63MOL   C10718831   7.343   0.576   6.457 -0.4078 -0.6281 -0.7616
   63MOL   C10818832   7.203   0.614   6.510 -0.3990 -0.0699 -0.3352
   63MOL   C10918833   7.214   0.649   6.655 -0.5078  0.5222 -0.8117
   63MOL   O11018834   7.200   0.562   6.742 -0.0376  0.8146 -0.3830
   63MOL   O11118835   7.251   0.778   6.682 -0.5385 -0.3808  0.3186
   63MOL   C11218836   7.254   0.834   6.810 -0.3644  0.7167  0.2190
   63MOL   C11318837   7.330   0.971   6.795 -0.0520 -0.1115  0.5932
   63MOL   H11418838   7.334   0.497   6.382  2.1823 -1.3386 -0.3449
   63MOL   H11518839   7.408   0.537   6.535  0.6873  0.2558 -1.2103
   63MOL   H11618840   7.161   0.698   6.455 -1.0870 -0.9199 -1.1308
   63MOL   H11718841   7.150   0.841   6.840 -0.0475  1.8696  1.0934
   63MOL   H11818842   7.303   0.763   6.877 -0.7080  1.9570  1.8183
   63MOL   H11918843   7.433   0.967   6.760 -0.1384 -0.9192  0.4339
   63MOL   H12018844   7.337   1.024   6.890  2.0122 -0.5084  0.6683
   63MOL   H12118845   7.267   1.039   6.737  1.9225  0.5695 -0.7823
   63MOL   C12218846   7.114   0.489   6.482  0.2626 -1.0393 -0.0156
   63MOL   C12318847   6.961   0.497   6.506  0.1213 -0.0666  0.4227
   63MOL   C12418848   6.914   0.363   6.564  0.0819  0.5743  0.1114
   63MOL   O12518849   6.864   0.274   6.487 -0.0610  0.4790 -0.2863
   63MOL   O12618850   6.938   0.348   6.699 -0.4580  0.1410  0.2254
   63MOL   C12718851   6.865   0.253   6.766 -0.6143  0.5002 -0.4209
   63MOL   C12818852   6.920   0.260   6.909 -0.3816 -0.0327  0.1742
   63MOL   H12918853   7.118   0.475   6.373  0.1543  0.1016 -0.1665
   63MOL   H13018854   7.167   0.407   6.530 -0.4358 -0.2846  2.0610
   63MOL   H13118855   6.947   0.572   6.584  1.4827  0.1520  0.4808
   63MOL   H13218856   6.761   0.284   6.765 -0.0936  2.4879  1.6830
   63MOL   H13318857   6.885   0.151   6.733  1.1689 -0.0154  2.0760
   63MOL   H13418858   7.018   0.212   6.913 -0.6987 -0.6736  0.1380
   63MOL   H13518859   6.862   0.191   6.970  1.2337  0.0091  1.7906
   63MOL   H13618860   6.914   0.359   6.954 -3.7268  0.3707 -1.0353
   63MOL   C13718861   6.874   0.536   6.381 -0.0933 -0.5426  0.3575
   63MOL   C13818862   6.904   0.665   6.302 -0.6090  0.7061 -0.0590
   63MOL   C13918863   6.866   0.796   6.377 -0.6550  0.2693 -0.2244
   63MOL   O14018864   6.943   0.855   6.454 -0.9498 -0.6708 -0.1814
   63MOL   O14118865   6.737   0.838   6.355  0.0476 -0.4067 -0.5352
   63MOL   C14218866   6.680   0.942   6.427 -0.1379  0.4247  0.6015
   63MOL   C14318867   6.529   0.937   6.401 -0.3839 -0.9216 -0.3235
   63MOL   H14418868   6.859   0.449   6.317  1.5780 -0.7647  0.2453
   63MOL   H14518869   6.770   0.553   6.407  0.4501 -0.5813  2.5796
   63MOL   H14618870   7.008   0.674   6.271 -0.1267  0.6523  1.4811
   63MOL   H14718871   6.692   0.925   6.534  0.4875  2.0890  0.8208
   63MOL   H14818872   6.724   1.039   6.401 -2.6512  1.1648 -1.1543
   63MOL   H14918873   6.502   0.964   6.299 -0.2059  0.2238 -0.0852
   63MOL   H15018874   6.478   1.011   6.462  1.0054 -0.6741  0.5633
   63MOL   H15118875   6.488   0.842   6.434  1.5311 -1.3886  0.8362
   63MOL   C15218876   6.825   0.646   6.166  0.4075 -0.1273 -0.1838
   63MOL   C15318877   6.905   0.576   6.060 -0.4329  0.1887 -0.2404
   63MOL   C15418878   6.988   0.676   5.983  0.1816  0.0918 -0.0509
   63MOL   O15518879   7.109   0.683   6.000 -0.0263 -0.4269 -0.3746
   63MOL   O15618880   6.913   0.760   5.905  0.3241  0.2748 -0.4599
   63MOL   C15718881   6.978   0.860   5.831  0.5259  0.8406  0.4887
   63MOL   C15818882   6.883   0.979   5.794  0.0168 -0.0094  0.1792
   63MOL   H15918883   6.725   0.608   6.185  0.2955  0.5159  0.5530
   63MOL   H16018884   6.804   0.745   6.126 -0.0833 -0.3846 -0.5685
   63MOL   H16118885   6.982   0.516   6.109  0.2452  1.7951  0.7084
   63MOL   H16218886   7.059   0.909   5.885  0.9795 -0.5834  1.0962
   63MOL   H16318887   7.015   0.814   5.739  0.3213 -0.8114  1.2265
   63MOL   H16418888   6.835   1.021   5.882 -0.6753 -0.2786 -0.0617
   63MOL   H16518889   6.799   0.942   5.735  0.0280  1.1205 -0.5656
   63MOL   H16618890   6.937   1.064   5.752  2.4553 -2.2060 -1.2365
   63MOL   C16718891   6.826   0.485   5.962  0.4141 -1.1213 -0.0629
   63MOL   C16818892   6.913   0.398   5.869  0.5310 -0.1184  0.3865
   63MOL   C16918893   6.825   0.309   5.778 -0.6390 -0.0783  0.4720
   63MOL   O17018894   6.791   0.350   5.670  0.3286  0.1671 -0.1416
   63MOL   O17118895   6.789   0.194   5.837 -0.2214  0.1692  0.0137
   63MOL   C17218896   6.729   0.090   5.770 -0.2981 -0.4983 -0.9322
   63MOL   C17318897   6.643   0.028   5.873 -0.0041  0.0595 -0.1074
   63MOL   H17418898   6.768   0.417   6.025  0.2710  0.6771  1.8139
   63MOL   H17518899   6.745   0.536   5.909  1.5741  1.3685  0.5244
   63MOL   H17618900   6.969   0.456   5.795  1.4704  1.2855  2.1636
   63MOL   H17718901   6.677   0.133   5.685 -0.1838 -0.0704 -0.7869
   63MOL   H17818902   6.808   0.027   5.728  0.9271  1.0142 -0.9271
   63MOL   H17918903   6.555   0.085   5.901  2.0424  1.3985  3.9833
   63MOL   H18018904   6.697   0.009   5.966 -0.4051 -1.5481 -0.1833
   63MOL   H18118905   6.604   7.845   5.827 -1.1254  0.1059  0.7334
   63MOL   C18218906   7.023   0.313   5.931 -0.8337 -0.3970  0.3696
   63MOL   C18318907   7.163   0.354   5.876  0.5083 -0.2035 -0.0579
   63MOL   C18418908   7.195   0.328   5.731 -0.3675 -0.0132 -0.1278
   63MOL   O18518909   7.273   0.395   5.668  0.1750 -0.3307  0.1327
   63MOL   O18618910   7.134   0.216   5.682  0.2192 -0.2243  0.1687
   63MOL   C18718911   7.147   0.186   5.545  0.5061  0.0040  1.1994
   63MOL   C18818912   7.106   0.038   5.517  0.0769  0.5215 -0.1741
   63MOL   H18918913   7.003   0.324   6.038 -1.4330 -0.1136  0.2312
   63MOL   H19018914   7.007   0.208   5.909  0.1687 -0.0413 -2.2271
   63MOL   H19118915   7.184   0.460   5.889  0.3332  0.1238 -2.2142
   63MOL   H19218916   7.095   0.258   5.481  2.3461 -0.6545 -1.1276
   63MOL   H19318917   7.248   0.209   5.512  0.4755 -2.4919 -0.7982
   63MOL   H19418918   7.199   7.892   5.532 -0.5294 -0.5807 -0.3497
   63MOL   H19518919   7.072   0.029   5.414 -1.4993  0.7848  0.3146
   63MOL   H19618920   7.025   7.904   5.577  0.9447 -1.9572 -0.7151
   63MOL   C19718921   7.266   0.285   5.971  0.0010  0.3053  0.1877
   63MOL   C19818922   7.278   0.130   5.953 -0.6134  0.3622 -0.2938
   63MOL   C19918923   7.263   0.058   6.093 -0.1946 -0.4056 -0.4613
   63MOL   O20018924   7.361   0.022   6.163 -0.9706 -0.1731  0.7961
   63MOL   O20118925   7.139   0.051   6.118 -1.1805  0.3411 -0.1845
   63MOL   C20218926   7.095   0.001   6.241  0.3451  0.7281 -0.2003
   63MOL   C20318927   7.077   0.114   6.339  0.4279  0.4792  1.0415
   63MOL   H20418928   7.364   0.330   5.954 -0.3692  0.4509 -1.6967
   63MOL   H20518929   7.245   0.315   6.073 -0.5260  3.4767 -0.8164
   63MOL   H20618930   7.188   0.089   5.907 -1.7150  1.2348  1.0305
   63MOL   H20718931   6.997   7.864   6.226 -0.5757  2.2202  1.1491
   63MOL   H20818932   7.170   7.842   6.283 -1.4374 -0.8054  0.5870
   63MOL   H20918933   7.025   0.078   6.429 -1.6126 -1.1623 -0.7213
   63MOL   H21018934   7.013   0.196   6.307 -0.2066 -0.5820 -0.4637
   63MOL   H21118935   7.177   0.144   6.369  1.2902 -1.3909  0.1176
   63MOL   C21218936   7.411   0.078   5.892  0.2969 -0.1471 -0.4399
   63MOL   C21318937   7.389   7.871   5.792  0.4093  0.9571 -0.1336
   63MOL   C21418938   7.322   7.744   5.847  0.2816 -0.5890  0.0970
   63MOL   O21518939   7.386   7.641   5.864 -0.3619 -0.4075 -0.2003
   63MOL   O21618940   7.187   7.755   5.861  0.2826 -0.2071 -0.1053
   63MOL   C21718941   7.117   7.635   5.885  0.1798 -0.5370 -0.1786
   63MOL   C21818942   6.963   7.664   5.886 -0.2432  0.1707 -0.0239
   63MOL   H21918943   7.455   0.168   5.848 -0.0877  0.7160  0.9259
   63MOL   H22018944   7.487   0.041   5.960 -1.1075 -1.0121  0.6766
   63MOL   H22118945   7.329   7.902   5.707  1.0682 -1.2795 -1.4777
   63MOL   H22218946   7.140   7.563   5.807 -0.3578  0.7956 -1.5898
   63MOL   H22318947   7.142   7.591   5.982  4.0488  3.0084  0.6076
   63MOL   H22418948   6.898   7.578   5.871  1.5189 -1.4587  1.4764
   63MOL   H22518949   6.944   7.738   5.808  0.0766  0.8272  0.5128
   63MOL   H22618950   6.931   7.713   5.978  0.6339  2.2161 -0.7566
   63MOL   C22718951   7.528   7.839   5.729 -0.0878  0.5385  0.4217
   63MOL   C22818952   7.611   0.039   5.656 -1.1498 -0.2969  0.1765
   63MOL   C22918953   7.704   0.128   5.742  0.2921  0.7235 -0.5181
   63MOL   O23018954   7.681   0.249   5.771  0.1497  0.0244 -0.0913
   63MOL   O23118955   7.797   0.052   5.815  0.0395  0.0843  0.3606
   63MOL   C23218956   7.902   0.117   5.885 -0.3655  0.9026 -0.3829
   63MOL   C23318957   7.869   0.183   6.025 -0.1407 -0.1398  0.2762
   63MOL   H23418958   7.582   7.798   5.814  0.1362  0.0767  0.0579
   63MOL   H23518959   7.511   7.751   5.666  2.1977  1.2617 -1.2610
   63MOL   H23618960   7.681   7.898   5.589  1.4716  2.4545  0.8158
   63MOL   H23718961   0.063   0.033   5.897 -1.5998 -0.1609 -0.5244
   63MOL   H23818962   0.042   0.190   5.822 -2.4816  0.9650 -1.9961
   63MOL   H23918963   0.045   0.233   6.072 -0.2460  0.1939  0.1057
   63MOL   H24018964   7.840   0.110   6.101  2.6498 -2.5824 -0.9347
   63MOL   H24118965   7.785   0.251   6.013  0.1757 -0.1869 -2.3364
   63MOL   C24218966   7.527   0.123   5.558  0.0126  0.3324  0.5323
   63MOL   C24318967   7.605   0.186   5.440 -0.4924 -0.5913  0.3619
   63MOL   C24418968   7.509   0.281   5.367 -0.1941  0.0833  0.7430
   63MOL   O24518969   7.449   0.245   5.270 -0.0025 -0.5042  0.3427
   63MOL   O24618970   7.486   0.398   5.432 -0.0724 -0.1415 -0.0498
   63MOL   C24718971   7.394   0.496   5.379  0.9225 -0.9663 -0.0591
   63MOL   C24818972   7.428   0.626   5.448  0.0476  0.2157 -0.9772
   63MOL   H24918973   7.452   0.057   5.515  1.0616  1.3058 -2.9967
   63MOL   H25018974   7.470   0.200   5.610 -2.9261 -1.4369  0.0321
   63MOL   H25118975   7.676   0.254   5.487 -2.4843  0.9343  1.2761
   63MOL   H25218976   7.403   0.505   5.271  1.4307  2.1857  0.2079
   63MOL   H25318977   7.291   0.468   5.399  0.6153 -0.4590 -0.9027
   63MOL   H25418978   7.416   0.600   5.553  2.2493  2.4249 -0.1140
   63MOL   H25518979   7.355   0.705   5.433 -1.8542 -1.2193  0.5365
   63MOL   H25618980   7.533   0.655   5.439  0.2369 -0.1729 -0.0783
   63MOL   C25718981   7.673   0.088   5.341  0.4881 -0.5627 -0.2751
   63MOL   C25818982   7.825   0.052   5.358  0.5302  0.0729  0.1912
   63MOL   C25918983   0.015   0.168   5.336  0.3676 -0.4219 -0.4527
   63MOL   O26018984   0.101   0.196   5.420  0.4580 -0.0009  0.1420
   63MOL   O26118985   7.905   0.225   5.210  0.1457  0.1832 -0.3225
   63MOL   C26218986   0.070   0.343   5.172  0.3199 -0.4025  0.2821
   63MOL   C26318987   0.214   0.323   5.146 -0.4948 -0.2457  0.4612
   63MOL   H26418988   7.625   7.900   5.356  1.5446 -0.9523  0.6655
   63MOL   H26518989   7.660   0.114   5.236 -0.0883  1.1853  0.2139
   63MOL   H26618990   7.834   0.027   5.464 -1.9551  0.4452  0.5344
   63MOL   H26718991   0.010   0.394   5.097 -2.1828 -1.3512  1.5893
   63MOL   H26818992   0.065   0.406   5.261  1.6372  2.6121 -1.6859
   63MOL   H26918993   0.212   0.235   5.080 -0.3995  0.3896 -0.3966
   63MOL   H27018994   0.274   0.293   5.232  1.9551  0.1448 -1.0737
   63MOL   H27118995   0.259   0.409   5.096 -1.9902  1.0219  1.2585
   63MOL   C27218996   7.887   7.836   5.280 -0.6844 -0.0104 -0.0635
   63MOL   C27318997   7.865   7.695   5.336 -0.2073 -0.0898  0.0040
   63MOL   C27418998   0.029   7.679   5.469 -0.0216  0.4263 -1.0153
   63MOL   O27518999   7.877   7.672   5.580 -0.2837  0.3447  0.1567
   63MOL   O27619000   0.161   7.676   5.463 -0.3854 -0.2969  0.3347
   63MOL   C27719001   0.235   7.696   5.586 -0.6062  0.1642 -0.5022
   63MOL   C27819002   0.245   7.845   5.625  0.0423 -0.0791  0.2606
   63MOL   H27919003   7.845   7.826   5.180  2.3330  0.0038 -1.3921
   63MOL   H28019004   0.085   7.853   5.268 -0.8644 -0.1761 -2.0214
   63MOL   H28119005   7.759   7.671   5.347 -0.2346 -0.9818 -1.9471
   63MOL   H28219006   0.198   7.634   5.668  1.4245 -0.1423  0.2186
   63MOL   H28319007   0.334   7.654   5.569 -0.8512 -0.5632 -0.1371
   63MOL   H28419008   0.278   0.010   5.551 -1.4470  0.8479  0.4999
   63MOL   H28519009   0.310   7.846   5.713 -0.2926  0.0091  0.5061
   63MOL   H28619010   0.154   7.889   5.665  0.1371  0.8358 -0.5163
   63MOL   C28719011   0.014   7.594   5.228  0.5966 -0.1153  0.5785
   63MOL   C28819012   7.890   7.449   5.265 -0.3526  0.1019 -0.2739
   63MOL   C28919013   0.022   7.350   5.158 -0.1532 -0.4580  0.6926
   63MOL   O29019014   0.082   7.242   5.188 -0.0163  0.4323  0.3475
   63MOL   O29119015   7.878   7.385   5.035 -0.3807 -0.2838 -0.0471
   63MOL   C29219016   7.886   7.287   4.934 -0.2587  0.2042  0.7484
   63MOL   C29319017   0.119   7.290   4.858 -0.6965 -0.2728  0.4383
   63MOL   H29419018   7.886   7.628   5.131 -1.1890  0.9773  1.6046
   63MOL   H29519019   0.123   7.598   5.224  0.5858 -0.2020  0.1858
   63MOL   H29619020   0.041   7.434   5.355 -2.2157  0.1324  0.9927
   63MOL   H29719021   7.870   7.184   4.967 -3.6886  0.8579  1.3243
   63MOL   H29819022   7.808   7.307   4.861  1.6971 -1.2845 -1.8067
   63MOL   H29919023   0.126   7.209   4.785 -0.9023  0.6867 -0.6527
   63MOL   H30019024   0.202   7.277   4.928 -0.6280 -1.9582  0.0750
   63MOL   H30119025   0.116   7.390   4.814 -0.2224  0.0104  1.0399
   63MOL   H30219026   7.783   7.439   5.282 -0.2872 -0.2895 -0.1076
   64MOL     C119027   5.774   5.381   6.346 -0.7137  0.0682  0.4376
   64MOL     C219028   5.672   5.267   6.363  1.0447  0.0806 -0.6353
   64MOL     C319029   5.585   5.283   6.489  0.2819 -0.0134 -0.6314
   64MOL     O419030   5.460   5.284   6.478  0.4178  0.1238 -0.6247
   64MOL     O519031   5.656   5.277   6.610  0.1625  0.0968 -0.0404
   64MOL     C619032   5.573   5.243   6.721 -1.4127 -0.4464  0.0612
   64MOL     C719033   5.557   5.086   6.738  0.5029  0.1843  0.4564
   64MOL     H819034   5.865   5.332   6.313 -0.9147 -1.9726  2.7500
   64MOL     H919035   5.789   5.435   6.440  0.8664 -0.7110  0.6479
   64MOL    H1019036   5.604   5.281   6.279  1.5078  4.3387 -0.4220
   64MOL    H1119037   5.636   5.282   6.801 -0.8139 -1.0519 -0.1066
   64MOL    H1219038   5.478   5.296   6.725 -0.6941  0.8139  0.9946
   64MOL    H1319039   5.655   5.039   6.731  1.8031  3.1492 -2.9320
   64MOL    H1419040   5.500   5.038   6.659  3.3475 -0.1217 -1.4591
   64MOL    H1519041   5.515   5.055   6.834  1.4070  2.7109  1.7237
   64MOL    H1619042   5.748   5.454   6.270 -0.3066  0.0577  0.2872
   64MOL    C1719043   5.729   5.126   6.347  0.0126  0.9528  0.5888
   64MOL    C1819044   5.633   5.011   6.348 -0.0248  0.3457 -0.1062
   64MOL    C1919045   5.706   4.871   6.351 -0.4677  0.2298  0.3593
   64MOL    O2019046   5.650   4.772   6.397  0.3789 -0.1485 -0.6110
   64MOL    O2119047   5.836   4.881   6.314  0.0684 -0.4404  0.3981
   64MOL    C2219048   5.916   4.768   6.292 -0.9478  1.0976 -0.4577
   64MOL    C2319049   5.934   4.750   6.147 -0.6196 -0.2137 -0.2083
   64MOL    H2419050   5.785   5.126   6.253 -0.4558  2.1743  0.3070
   64MOL    H2519051   5.810   5.110   6.418  0.3181  1.3464  0.3270
   64MOL    H2619052   5.588   5.004   6.448 -1.8345 -0.5687 -0.9632
   64MOL    H2719053   6.011   4.772   6.346 -2.3980 -2.7604  2.6534
   64MOL    H2819054   5.868   4.679   6.331 -1.5610  1.0457 -1.3206
   64MOL    H2919055   6.007   4.677   6.113  0.4637  1.3619 -1.3185
   64MOL    H3019056   5.959   4.842   6.095 -1.6569 -0.7627 -1.6980
   64MOL    H3119057   5.844   4.702   6.109 -0.2535 -1.5920  0.6061
   64MOL    C3219058   5.527   5.014   6.227 -0.4443 -0.1451  0.1679
   64MOL    C3319059   5.426   4.896   6.210 -0.1874 -0.2928  0.4041
   64MOL    C3419060   5.352   4.904   6.074 -0.2179  0.3116 -0.4561
   64MOL    O3519061   5.375   4.832   5.976 -0.0379 -0.2895  0.0747
   64MOL    O3619062   5.277   5.015   6.061  0.0208 -0.5645  0.2260
   64MOL    C3719063   5.216   5.039   5.939 -0.4877 -0.1854  0.0875
   64MOL    C3819064   5.106   5.145   5.951  0.1401 -0.1891  0.6493
   64MOL    H3919065   5.478   5.109   6.208  1.1406  1.1377  2.2224
   64MOL    H4019066   5.584   5.015   6.134  0.0312 -1.1991  0.4426
   64MOL    H4119067   5.481   4.802   6.207  0.5859  0.1664  0.2460
   64MOL    H4219068   5.279   5.071   5.856 -0.9165 -2.1259 -1.0194
   64MOL    H4319069   5.175   4.945   5.903 -0.7201 -0.8738  2.0990
   64MOL    H4419070   5.022   5.106   6.008 -0.9337 -0.6723 -1.2494
   64MOL    H4519071   5.063   5.138   5.851 -0.5867  2.9678  0.6893
   64MOL    H4619072   5.137   5.248   5.972 -0.2899 -0.2722  1.7353
   64MOL    C4719073   5.332   4.902   6.335 -0.3253 -0.4447  0.6590
   64MOL    C4819074   5.298   4.769   6.405 -0.0333  0.1109 -0.7725
   64MOL    C4919075   5.213   4.678   6.310  0.2180 -0.2401  0.5705
   64MOL    O5019076   5.242   4.556   6.298 -0.1804 -0.3163  0.1748
   64MOL    O5119077   5.114   4.740   6.237  0.2076 -0.5804 -0.4160
   64MOL    C5219078   5.038   4.664   6.144  0.1728  0.5476  0.1674
   64MOL    C5319079   4.913   4.755   6.118 -0.6346 -0.2798 -0.3661
   64MOL    H5419080   5.387   4.955   6.413  1.0353 -0.2418 -0.4071
   64MOL    H5519081   5.241   4.960   6.317 -0.6041 -1.2293 -0.4916
   64MOL    H5619082   5.398   4.727   6.413  0.1072  0.8374  1.3969
   64MOL    H5719083   5.089   4.657   6.048 -3.1434  0.5257 -1.6357
   64MOL    H5819084   5.005   4.567   6.179  1.7168 -0.0642 -0.0421
   64MOL    H5919085   4.844   4.777   6.199 -1.2233 -0.0785 -0.9258
   64MOL    H6019086   4.852   4.699   6.047 -2.5628 -0.3914  1.3235
   64MOL    H6119087   4.924   4.843   6.055 -1.4136  1.0765  1.3597
   64MOL    C6219088   5.245   4.784   6.551 -0.1247 -0.0722  0.2313
   64MOL    C6319089   5.142   4.889   6.585  0.2811 -0.0892 -0.3727
   64MOL    C6419090   5.143   4.911   6.741  0.2690  0.1824 -0.2023
   64MOL    O6519091   5.205   5.002   6.795 -0.4130 -0.7496  0.3200
   64MOL    O6619092   5.071   4.812   6.801 -0.0810  0.9929 -0.0178
   64MOL    C6719093   5.053   4.802   6.938  0.0721  0.4040 -0.3363
   64MOL    C6819094   4.991   4.672   6.959 -0.3060 -0.6860 -0.4092
   64MOL    H6919095   5.214   4.688   6.594  0.7543 -0.4929 -0.0591
   64MOL    H7019096   5.338   4.803   6.604 -0.5719 -2.8555  2.1156
   64MOL    H7119097   5.170   4.991   6.557  0.2685  0.8710  2.8879
   64MOL    H7219098   5.148   4.816   6.989 -0.7743  0.6304  1.1926
   64MOL    H7319099   4.997   4.891   6.969 -1.8651 -0.4677 -1.1996
   64MOL    H7419100   4.910   4.655   6.888  0.8845 -1.7213 -1.5312
   64MOL    H7519101   4.963   4.656   7.063 -1.0610  3.6613  0.1620
   64MOL    H7619102   5.071   4.601   6.940  2.0083  1.6202  0.4419
   64MOL    C7719103   4.997   4.867   6.536  0.8353 -0.0963  0.3245
   64MOL    C7819104   4.893   4.985   6.544  0.2830 -0.1174  0.5894
   64MOL    C7919105   4.927   5.108   6.461  0.2908 -0.1830  0.2508
   64MOL    O8019106   5.039   5.160   6.464  0.3840 -0.2903  0.2422
   64MOL    O8119107   4.824   5.163   6.401  0.6923 -0.2266 -0.2375
   64MOL    C8219108   4.834   5.297   6.346  0.2267 -0.2504  0.0662
   64MOL    C8319109   4.826   5.278   6.197  0.0547  0.5344 -0.5494
   64MOL    H8419110   5.001   4.831   6.433 -0.0549  1.2457 -0.2024
   64MOL    H8519111   4.955   4.779   6.585 -3.8773  0.9815 -1.4764
   64MOL    H8619112   4.800   4.950   6.499  2.5179 -2.7526 -2.2393
   64MOL    H8719113   4.751   5.353   6.389  1.0354  1.7138 -0.8345
   64MOL    H8819114   4.922   5.356   6.373  1.1580 -1.9086  0.7445
   64MOL    H8919115   4.888   5.193   6.170  1.7407  1.5718 -0.0289
   64MOL    H9019116   4.873   5.370   6.161  0.0023  2.1509  3.2593
   64MOL    H9119117   4.725   5.275   6.158  0.0222 -1.3877 -0.3553
   64MOL    C9219118   4.853   5.020   6.691 -0.6202 -0.6864  0.0123
   64MOL    C9319119   4.720   5.099   6.711  0.1753  0.2605  0.3518
   64MOL    C9419120   4.698   5.146   6.854 -0.7159 -0.9627  0.2133
   64MOL    O9519121   4.748   5.081   6.946 -0.1541  0.2767 -0.9095
   64MOL    O9619122   4.628   5.259   6.857  0.3827 -0.0317 -0.3877
   64MOL    C9719123   4.620   5.335   6.977 -0.6918 -1.2275 -0.2290
   64MOL    C9819124   4.578   5.476   6.948 -0.0571  0.0742 -0.4228
   64MOL    H9919125   4.835   4.923   6.737  0.9052 -1.5343 -1.1509
   64MOL   H10019126   4.931   5.066   6.751  1.1957 -0.0384 -2.7230
   64MOL   H10119127   4.722   5.189   6.649 -1.3855 -2.5924 -4.1740
   64MOL   H10219128   4.551   5.277   7.038  0.8685 -1.9917  0.8631
   64MOL   H10319129   4.717   5.323   7.027 -0.2896  1.8517 -0.1687
   64MOL   H10419130   4.660   5.531   6.903  1.1302 -2.0764 -0.9227
   64MOL   H10519131   4.542   5.528   7.038  1.3193 -0.5497  0.4996
   64MOL   H10619132   4.498   5.485   6.874  1.1572  1.4797 -1.5927
   64MOL   C10719133   4.596   5.015   6.660  0.5596 -0.7247  0.4826
   64MOL   C10819134   4.538   5.063   6.527 -1.0805 -0.7303 -0.0522
   64MOL   C10919135   4.453   5.190   6.541 -0.8452  0.0351  0.4224
   64MOL   O11019136   4.330   5.183   6.539  0.1704  0.2758  0.4641
   64MOL   O11119137   4.521   5.302   6.557 -0.1270  0.5161  0.0012
   64MOL   C11219138   4.467   5.427   6.585  0.0015  0.0096 -0.0258
   64MOL   C11319139   4.568   5.537   6.593  0.1065 -0.1651  0.3372
   64MOL   H11419140   4.621   4.910   6.671  1.7856 -0.4151  0.6490
   64MOL   H11519141   4.517   5.027   6.735 -1.5647 -0.2752 -1.7378
   64MOL   H11619142   4.628   5.093   6.473 -1.4951 -0.0239 -0.3513
   64MOL   H11719143   4.390   5.456   6.513  0.4141  3.6396  0.9141
   64MOL   H11819144   4.426   5.418   6.686  0.8275  2.0400  0.5126
   64MOL   H11919145   4.515   5.627   6.625 -3.1226 -1.7745 -0.3543
   64MOL   H12019146   4.609   5.550   6.492  0.9450  0.1548  0.7120
   64MOL   H12119147   4.644   5.511   6.666  1.0043 -0.2440 -0.6029
   64MOL   C12219148   4.460   4.950   6.460  0.0131 -0.5055 -0.0650
   64MOL   C12319149   4.440   4.957   6.309  0.7239 -0.2584 -0.8244
   64MOL   C12419150   4.361   4.840   6.264  0.3834 -0.1494  0.2564
   64MOL   O12519151   4.246   4.856   6.209 -0.2007  0.0456 -0.9218
   64MOL   O12619152   4.417   4.719   6.296 -0.2349 -0.2256  0.3481
   64MOL   C12719153   4.345   4.595   6.286 -1.3763 -0.2363 -0.2943
   64MOL   C12819154   4.443   4.501   6.219  0.3365 -0.3287  0.4600
   64MOL   H12919155   4.502   4.853   6.485  1.5449  0.0252 -0.5522
   64MOL   H13019156   4.360   4.946   6.503 -0.4294 -0.0508 -1.0272
   64MOL   H13119157   4.365   5.034   6.291  0.7827 -0.2871 -1.1847
   64MOL   H13219158   4.324   4.574   6.391  2.1639 -0.3754  0.4456
   64MOL   H13319159   4.255   4.596   6.224  0.4570  0.8040 -3.0336
   64MOL   H13419160   4.523   4.462   6.281  1.8891  3.9992  1.3474
   64MOL   H13519161   4.498   4.547   6.137  0.3460 -3.2778 -1.2642
   64MOL   H13619162   4.388   4.415   6.182  1.6454 -1.1370  0.3562
   64MOL   C13719163   4.570   4.962   6.223  0.0156 -0.2453 -0.3446
   64MOL   C13819164   4.564   5.007   6.071  0.1563  0.0392 -0.5257
   64MOL   C13919165   4.454   5.112   6.038 -0.8309 -0.3741  0.0740
   64MOL   O14019166   4.348   5.081   5.985 -0.6487  0.0955  0.0631
   64MOL   O14119167   4.486   5.230   6.101  0.1399 -0.1019 -0.0703
   64MOL   C14219168   4.389   5.330   6.087 -0.4856 -0.3199 -0.3891
   64MOL   C14319169   4.315   5.355   6.219  0.3146  0.3521 -0.3945
   64MOL   H14419170   4.616   5.054   6.258  1.8420 -1.1107 -0.4434
   64MOL   H14519171   4.636   4.881   6.254 -1.4000 -1.5947 -0.7864
   64MOL   H14619172   4.664   5.045   6.053  0.5064 -1.4616 -1.8139
   64MOL   H14719173   4.441   5.420   6.054 -0.3967 -0.4870 -0.7063
   64MOL   H14819174   4.315   5.312   6.009  1.8240  1.5753 -3.1193
   64MOL   H14919175   4.278   5.253   6.229  1.0613 -0.0787 -1.8950
   64MOL   H15019176   4.250   5.441   6.206  1.0540  1.5331  3.1629
   64MOL   H15119177   4.379   5.376   6.305 -1.1380  0.3813  0.6948
   64MOL   C15219178   4.551   4.884   5.987 -0.8924  0.5092 -0.3393
   64MOL   C15319179   4.601   4.899   5.842 -0.0961  0.2716  0.2045
   64MOL   C15419180   4.537   4.794   5.756 -0.3008  0.2174  0.6974
   64MOL   O15519181   4.595   4.692   5.724  0.0810 -0.2163 -0.2422
   64MOL   O15619182   4.419   4.834   5.706 -0.0606  0.2992 -0.1360
   64MOL   C15719183   4.387   4.757   5.587 -0.1508  0.1193  0.4457
   64MOL   C15819184   4.244   4.797   5.550 -0.0195 -0.0633  0.3262
   64MOL   H15919185   4.612   4.805   6.032  0.4045  0.4025 -2.2567
   64MOL   H16019186   4.452   4.838   5.991 -1.0299  0.9155  1.6157
   64MOL   H16119187   4.556   4.992   5.807  0.3311  0.2722 -0.3572
   64MOL   H16219188   4.452   4.782   5.503 -0.9557  0.0930 -0.1948
   64MOL   H16319189   4.383   4.651   5.608  1.1408  0.0004  0.0729
   64MOL   H16419190   4.251   4.897   5.508 -0.3772 -0.9459 -1.9044
   64MOL   H16519191   4.172   4.775   5.629 -2.9819  0.5993 -2.1113
   64MOL   H16619192   4.204   4.737   5.468 -1.1870  0.7451  0.2973
   64MOL   C16719193   4.754   4.915   5.826  0.4700  0.1752  0.1787
   64MOL   C16819194   4.809   4.989   5.699  1.0509 -0.0662  0.9192
   64MOL   C16919195   4.731   5.116   5.660  0.5490  0.8772  0.4591
   64MOL   O17019196   4.642   5.114   5.577  0.1876 -0.0229 -0.5676
   64MOL   O17119197   4.760   5.207   5.745  0.1748  0.3593  0.0229
   64MOL   C17219198   4.707   5.340   5.724 -0.1630 -0.1618  0.0742
   64MOL   C17319199   4.686   5.410   5.859  0.0808  0.1021 -0.6230
   64MOL   H17419200   4.790   4.955   5.921  1.2109  0.2161 -0.1151
   64MOL   H17519201   4.799   4.816   5.824  2.1925  0.9550 -2.8966
   64MOL   H17619202   4.911   5.023   5.719  0.8863  1.5136 -0.9148
   64MOL   H17719203   4.772   5.398   5.658 -0.5141 -1.7521 -1.7114
   64MOL   H17819204   4.617   5.335   5.664  0.4682 -1.9703 -0.7544
   64MOL   H17919205   4.611   5.352   5.914  1.6023 -1.2689  0.0384
   64MOL   H18019206   4.635   5.504   5.835 -1.8373 -0.0810  2.4744
   64MOL   H18119207   4.772   5.415   5.925 -1.0198  0.3218  0.8302
   64MOL   C18219208   4.831   4.905   5.569 -0.2901 -0.5602  0.4210
   64MOL   C18319209   4.964   4.829   5.569 -0.5094 -0.2943 -0.2654
   64MOL   C18419210   5.073   4.929   5.510 -0.1521 -0.0298  0.4281
   64MOL   O18519211   5.148   4.992   5.584 -0.6701  0.1013  0.1831
   64MOL   O18619212   5.074   4.927   5.377 -0.2439 -0.1659 -0.6677
   64MOL   C18719213   5.167   5.007   5.307 -0.0595 -0.0933  0.1673
   64MOL   C18819214   5.141   5.154   5.282  0.4560  0.8244 -0.7299
   64MOL   H18919215   4.741   4.847   5.549 -1.4092  0.4984  2.2450
   64MOL   H19019216   4.826   4.972   5.483 -3.0616 -0.7603  0.3743
   64MOL   H19119217   4.993   4.822   5.674  1.7182  1.9448 -0.6972
   64MOL   H19219218   5.258   5.005   5.368  0.6796 -0.2727 -0.9269
   64MOL   H19319219   5.191   4.964   5.210 -0.3882  0.6985 -0.2636
   64MOL   H19419220   5.231   5.198   5.240  2.4215 -1.3350  1.0528
   64MOL   H19519221   5.114   5.204   5.376  0.5563  0.1351 -0.3331
   64MOL   H19619222   5.060   5.164   5.210 -0.9401 -1.0680  0.5575
   64MOL   C19719223   4.960   4.694   5.492 -0.1203  0.7562 -0.4824
   64MOL   C19819224   4.929   4.569   5.570 -0.1531 -0.9405  0.1147
   64MOL   C19919225   5.011   4.551   5.699 -0.1270 -0.5339 -0.2665
   64MOL   O20019226   4.952   4.565   5.809 -0.1570  0.3678  0.3767
   64MOL   O20119227   5.144   4.535   5.685 -0.4046 -0.5519 -0.2106
   64MOL   C20219228   5.235   4.514   5.794 -0.5497 -0.5912 -1.1933
   64MOL   C20319229   5.371   4.602   5.785 -0.1676  0.7932 -0.1718
   64MOL   H20419230   4.879   4.696   5.419  0.6976 -0.2251 -1.4234
   64MOL   H20519231   5.056   4.682   5.442 -0.4638 -0.4539 -0.8508
   64MOL   H20619232   4.826   4.581   5.602 -0.3419 -1.4105 -0.3029
   64MOL   H20719233   5.185   4.533   5.889  0.5405 -0.5470 -0.6200
   64MOL   H20819234   5.277   4.414   5.799  3.2641  1.0255  1.4404
   64MOL   H20919235   5.449   4.571   5.716  1.0301 -1.5501  2.1249
   64MOL   H21019236   5.417   4.583   5.882 -2.2391  1.0837  0.8935
   64MOL   H21119237   5.346   4.707   5.775  1.3798  1.1099 -0.7644
   64MOL   C21219238   4.930   4.440   5.485 -0.1818 -0.2618 -0.2202
   64MOL   C21319239   4.822   4.337   5.511  0.2177 -0.1559 -0.0932
   64MOL   C21419240   4.816   4.270   5.652 -0.2510 -1.0165 -0.0627
   64MOL   O21519241   4.867   4.158   5.667 -0.2676 -0.1697 -0.4280
   64MOL   O21619242   4.748   4.341   5.739 -0.0178  0.7834  0.6141
   64MOL   C21719243   4.751   4.323   5.873  0.7297 -0.8201 -0.0199
   64MOL   C21819244   4.695   4.435   5.955 -0.1688 -0.0496  0.2171
   64MOL   H21919245   4.908   4.475   5.384  1.7623  1.1421 -0.1920
   64MOL   H22019246   5.029   4.395   5.482  0.2209  0.5776  0.2718
   64MOL   H22119247   4.729   4.393   5.502 -0.8627 -1.6265  1.6258
   64MOL   H22219248   4.688   4.240   5.901  0.0883 -0.0365  0.8993
   64MOL   H22319249   4.850   4.300   5.913  1.0300 -1.0650 -0.9035
   64MOL   H22419250   4.593   4.455   5.922  0.2362  2.7473  0.5666
   64MOL   H22519251   4.755   4.525   5.962 -1.2587  0.5215  2.4885
   64MOL   H22619252   4.687   4.405   6.060 -0.2933 -1.4614 -0.1811
   64MOL   C22719253   4.809   4.231   5.402 -0.2736  0.1691  0.0615
   64MOL   C22819254   4.735   4.286   5.278  0.9704  0.7500 -0.1822
   64MOL   C22919255   4.588   4.249   5.261  0.2225 -0.1366 -0.1308
   64MOL   O23019256   4.549   4.136   5.230 -0.2464 -0.4087  0.5849
   64MOL   O23119257   4.513   4.361   5.293 -0.1283 -0.0528 -0.3050
   64MOL   C23219258   4.372   4.348   5.322 -0.1747 -0.0041 -0.5698
   64MOL   C23319259   4.350   4.312   5.467  0.3220 -0.0759  0.0941
   64MOL   H23419260   4.906   4.186   5.379 -0.4925 -1.7176  2.5970
   64MOL   H23519261   4.752   4.140   5.424 -0.5921  0.2481 -0.4220
   64MOL   H23619262   4.739   4.395   5.282  0.4465  0.6876  2.8459
   64MOL   H23719263   4.332   4.445   5.293 -0.1770 -0.1101 -0.9223
   64MOL   H23819264   4.333   4.271   5.256  1.7522 -0.4946 -1.1939
   64MOL   H23919265   4.443   4.326   5.521 -0.2083  1.2124  0.6832
   64MOL   H24019266   4.331   4.205   5.472 -1.7108  0.3652  2.9771
   64MOL   H24119267   4.266   4.365   5.513 -0.6472  0.7871 -2.5594
   64MOL   C24219268   4.812   4.231   5.146 -0.1658 -0.2448 -0.5079
   64MOL   C24319269   4.946   4.298   5.107  0.8138 -1.1663 -0.3456
   64MOL   C24419270   4.927   4.448   5.070  0.2269  0.3944 -0.6228
   64MOL   O24519271   4.816   4.501   5.059 -0.4084  0.0469  0.4694
   64MOL   O24619272   5.037   4.515   5.064 -0.5492  0.2046 -0.7204
   64MOL   C24719273   5.035   4.652   5.030  0.4695 -0.4266  0.2404
   64MOL   C24819274   5.171   4.699   4.991 -0.4996  0.2758  0.2926
   64MOL   H24919275   4.829   4.123   5.153  0.6580  0.0429  3.2282
   64MOL   H25019276   4.742   4.234   5.062 -0.7603 -1.0299 -0.0540
   64MOL   H25119277   4.998   4.298   5.202  0.5791  0.7872 -0.1976
   64MOL   H25219278   4.969   4.667   4.944  0.4770 -0.6358  0.1987
   64MOL   H25319279   5.010   4.715   5.116  4.9739 -0.3100  1.5818
   64MOL   H25419280   5.177   4.808   4.982  3.2264  0.1166  0.0130
   64MOL   H25519281   5.189   4.649   4.896 -1.5678 -1.5400  1.0201
   64MOL   H25619282   5.250   4.677   5.063 -1.0041 -0.5009  0.6124
   64MOL   C25719283   5.042   4.229   5.005 -0.4070  0.6907 -0.7666
   64MOL   C25819284   5.192   4.250   5.028  0.6880 -0.0954 -0.4155
   64MOL   C25919285   5.260   4.291   4.897 -1.1162  0.4454  0.6163
   64MOL   O26019286   5.288   4.408   4.866 -0.0790  0.2918  0.7683
   64MOL   O26119287   5.281   4.185   4.812 -0.6338  0.5005 -0.0051
   64MOL   C26219288   5.328   4.203   4.681  0.6810  0.0782  0.0394
   64MOL   C26319289   5.459   4.133   4.650  0.2674 -0.4727  0.1596
   64MOL   H26419290   5.037   4.120   5.001 -0.9176  0.7003 -0.3575
   64MOL   H26519291   5.016   4.258   4.903  0.4635 -0.7342 -1.4185
   64MOL   H26619292   5.193   4.332   5.100  0.6458 -0.2547 -0.2336
   64MOL   H26719293   5.250   4.154   4.624 -0.9839  1.2499  1.2883
   64MOL   H26819294   5.329   4.307   4.646 -3.3001 -0.5316 -2.0907
   64MOL   H26919295   5.505   4.162   4.556 -0.1412  0.8704  0.3660
   64MOL   H27019296   5.441   4.027   4.665  1.5680 -0.5427  1.3654
   64MOL   H27119297   5.532   4.158   4.727  1.1986 -1.9717 -0.2101
   64MOL   C27219298   5.258   4.131   5.094 -0.0762  0.1301  0.3259
   64MOL   C27319299   5.394   4.161   5.163 -0.3038  0.3698  0.5017
   64MOL   C27419300   5.509   4.064   5.118 -0.7351  0.0579 -0.0440
   64MOL   O27519301   5.496   3.992   5.017 -0.0214  0.4334  0.3095
   64MOL   O27619302   5.626   4.077   5.181  0.2855 -0.7252  0.1864
   64MOL   C27719303   5.744   4.027   5.120 -0.8685 -0.4175 -0.2136
   64MOL   C27819304   5.839   4.133   5.049  0.3197  0.2354 -0.1761
   64MOL   H27919305   5.191   4.069   5.153  2.6103 -0.7374  2.5488
   64MOL   H28019306   5.279   4.060   5.014 -0.5467 -0.1328  0.4349
   64MOL   H28119307   5.422   4.263   5.138 -0.7276  0.0106 -1.5307
   64MOL   H28219308   5.802   3.986   5.202  1.8611  1.2496 -1.2518
   64MOL   H28319309   5.729   3.945   5.049  2.2544 -1.8363  0.6838
   64MOL   H28419310   5.801   4.161   4.951  2.1308 -0.4358 -1.0862
   64MOL   H28519311   5.937   4.087   5.036 -0.3396 -1.0107 -0.8773
   64MOL   H28619312   5.845   4.223   5.111 -1.4217 -0.1779  0.6362
   64MOL   C28719313   5.375   4.157   5.321  0.4659  0.1412  0.0074
   64MOL   C28819314   5.279   4.255   5.387  0.1082 -0.5607 -0.1286
   64MOL   C28919315   5.305   4.409   5.361  0.8424 -0.8945 -0.1844
   64MOL   O29019316   5.217   4.491   5.338 -0.2913 -0.3744 -0.7188
   64MOL   O29119317   5.431   4.438   5.388 -0.2701  0.1419  0.6508
   64MOL   C29219318   5.469   4.575   5.378  0.9177 -0.5593  0.3079
   64MOL   C29319319   5.617   4.593   5.368  0.1728  0.4875  0.1074
   64MOL   H29419320   5.341   4.058   5.350  0.6089 -0.3637 -1.4936
   64MOL   H29519321   5.473   4.164   5.369  0.8001 -0.7473 -0.5179
   64MOL   H29619322   5.180   4.245   5.342  0.3161 -0.2320 -0.6750
   64MOL   H29719323   5.420   4.633   5.300 -1.4113  0.4385  2.4511
   64MOL   H29819324   5.445   4.634   5.466 -1.2463 -0.4828 -0.3061
   64MOL   H29919325   5.663   4.515   5.429  0.2188  0.1459 -0.3607
   64MOL   H30019326   5.672   4.685   5.387 -0.5374  0.9937 -0.2631
   64MOL   H30119327   5.645   4.571   5.264 -2.6506 -1.5842 -0.2888
   64MOL   H30219328   5.278   4.243   5.495  0.4851  0.5400  0.0049
   65MOL     C119329   4.764   2.751   1.808  0.2916  0.0155  0.1201
   65MOL     C219330   4.909   2.791   1.792 -0.2695 -0.2316  0.3320
   65MOL     C319331   4.928   2.941   1.786  0.5882 -0.1830 -0.1552
   65MOL     O419332   4.988   2.994   1.877 -0.3207 -0.1358 -0.1721
   65MOL     O519333   4.882   2.999   1.671 -0.1333  0.3648 -0.5423
   65MOL     C619334   4.911   3.140   1.651  0.0706  0.6092 -0.6778
   65MOL     C719335   4.887   3.177   1.507 -0.8118  0.3927  0.0543
   65MOL     H819336   4.711   2.836   1.851 -0.1002  0.0876 -0.4974
   65MOL     H919337   4.752   2.662   1.869 -0.0181 -0.8452 -1.1819
   65MOL    H1019338   4.975   2.756   1.871  1.3187  0.9947 -0.4130
   65MOL    H1119339   4.852   3.202   1.718  0.9121  1.7990 -1.0259
   65MOL    H1219340   5.011   3.168   1.684 -0.7939  1.2425  1.5178
   65MOL    H1319341   4.963   3.132   1.443 -0.7961  1.1049 -0.4314
   65MOL    H1419342   4.909   3.283   1.493  1.9031 -0.2660 -0.8798
   65MOL    H1519343   4.785   3.148   1.480 -0.1535 -1.7259 -0.2828
   65MOL    H1619344   4.718   2.737   1.710  0.1077 -1.6713  0.4278
   65MOL    C1719345   4.964   2.718   1.668 -0.4425  0.1506 -0.7023
   65MOL    C1819346   4.947   2.568   1.664 -0.0017  0.0817  0.6120
   65MOL    C1919347   5.018   2.489   1.773 -0.2509 -0.2071  0.2677
   65MOL    O2019348   5.123   2.525   1.820  0.2736  0.8896  0.8232
   65MOL    O2119349   4.948   2.376   1.798  0.4672 -0.6915  0.4749
   65MOL    C2219350   4.979   2.300   1.912 -0.6101 -0.2482 -0.1519
   65MOL    C2319351   4.880   2.171   1.905 -0.5772 -0.6613  0.3758
   65MOL    H2419352   4.922   2.759   1.577 -1.5736 -1.8524 -1.1034
   65MOL    H2519353   5.072   2.736   1.665 -0.2781 -0.2740  1.6584
   65MOL    H2619354   4.843   2.543   1.686  0.6058 -2.9203  0.2719
   65MOL    H2719355   5.083   2.267   1.908 -0.7433 -0.6715 -0.1512
   65MOL    H2819356   4.959   2.352   2.005 -0.5388 -0.9812  0.2790
   65MOL    H2919357   4.879   2.107   1.993 -1.3756 -0.8828  0.2095
   65MOL    H3019358   4.888   2.114   1.813 -2.3545 -0.3488 -0.0040
   65MOL    H3119359   4.780   2.213   1.914 -0.2776  0.7129 -2.3537
   65MOL    C3219360   4.996   2.508   1.530  0.1509 -0.1969 -0.5910
   65MOL    C3319361   4.939   2.374   1.487  0.1994 -0.6030  0.4934
   65MOL    C3419362   5.004   2.331   1.352  0.5345  0.4587  0.0270
   65MOL    O3519363   4.940   2.309   1.246  0.1266 -0.0796  0.4675
   65MOL    O3619364   5.130   2.296   1.361  0.2667  0.3608  0.8746
   65MOL    C3719365   5.187   2.205   1.274  0.1441 -0.0257  0.4553
   65MOL    C3819366   5.161   2.060   1.313  0.8341 -0.1674 -0.2650
   65MOL    H3919367   4.984   2.582   1.450 -0.2892  1.8565  1.3186
   65MOL    H4019368   5.104   2.504   1.542  0.3319  3.4899 -0.4464
   65MOL    H4119369   4.977   2.298   1.555  0.7484  0.5748  1.5014
   65MOL    H4219370   5.159   2.230   1.171 -2.7855 -1.4308  0.8492
   65MOL    H4319371   5.295   2.214   1.277  0.1343  0.1778  0.1681
   65MOL    H4419372   5.222   2.000   1.246 -1.1724 -0.3329 -2.0135
   65MOL    H4519373   5.061   2.027   1.282  0.1108  0.1697  1.6237
   65MOL    H4619374   5.185   2.028   1.414  1.2897 -0.0494 -0.3351
   65MOL    C4719375   4.778   2.377   1.476 -1.0001  0.3800 -0.1911
   65MOL    C4819376   4.702   2.246   1.447 -0.3416  0.0645  0.2293
   65MOL    C4919377   4.555   2.269   1.406  0.0527 -0.6717  0.3402
   65MOL    O5019378   4.458   2.252   1.482  0.4588 -0.4697 -0.4363
   65MOL    O5119379   4.544   2.306   1.275 -0.4105  0.2264  0.1167
   65MOL    C5219380   4.422   2.321   1.209  0.0119  0.6161 -0.1461
   65MOL    C5319381   4.361   2.187   1.170  0.5304  0.2667  0.0773
   65MOL    H5419382   4.743   2.414   1.573  1.1069 -0.2429  0.8245
   65MOL    H5519383   4.749   2.451   1.401 -1.2075 -0.5089 -0.9958
   65MOL    H5619384   4.752   2.188   1.369  0.6590  1.4363 -0.1724
   65MOL    H5719385   4.351   2.375   1.271  0.5726 -0.3835  1.3897
   65MOL    H5819386   4.433   2.383   1.120 -1.5467  1.5526  0.3027
   65MOL    H5919387   4.259   2.209   1.138  0.7695 -0.5321 -1.3170
   65MOL    H6019388   4.340   2.119   1.252  0.1503 -1.4301 -1.3959
   65MOL    H6119389   4.408   2.135   1.086  0.1638 -1.9907  1.2442
   65MOL    C6219390   4.714   2.151   1.571 -0.3956  0.8336 -0.3659
   65MOL    C6319391   4.684   2.005   1.555 -0.5182  0.3808  0.1150
   65MOL    C6419392   4.579   1.968   1.655  0.7558 -0.0080  0.8181
   65MOL    O6519393   4.599   1.938   1.769  0.8176 -0.3028  0.0591
   65MOL    O6619394   4.463   1.979   1.597 -0.2595 -0.3428  0.0417
   65MOL    C6719395   4.343   1.964   1.665  0.9365  0.6728 -0.0009
   65MOL    C6819396   4.230   1.984   1.560  0.2631  0.0869 -0.3492
   65MOL    H6919397   4.814   2.151   1.614 -0.5112 -0.5966 -0.0701
   65MOL    H7019398   4.660   2.192   1.657 -0.5439 -2.7222  1.3222
   65MOL    H7119399   4.634   1.986   1.460 -0.2813 -0.6978  0.1896
   65MOL    H7219400   4.338   1.861   1.700 -0.5947  0.1107 -1.7380
   65MOL    H7319401   4.325   2.032   1.748 -0.6026  0.4449 -0.1380
   65MOL    H7419402   4.214   2.087   1.526  0.6084 -0.0633 -0.9733
   65MOL    H7519403   4.143   1.965   1.623 -0.0871  3.1760  0.1786
   65MOL    H7619404   4.244   1.918   1.475  2.1249  1.1754 -0.9078
   65MOL    C7719405   4.811   1.915   1.558  0.3141 -0.2629 -0.4861
   65MOL    C7819406   4.821   1.780   1.476 -0.6215  0.7714  0.3195
   65MOL    C7919407   4.819   1.801   1.328  0.6632 -0.2094 -0.3315
   65MOL    O8019408   4.772   1.909   1.282 -0.3990  0.2753 -0.1784
   65MOL    O8119409   4.858   1.692   1.253  0.0226 -0.5629 -0.6277
   65MOL    C8219410   4.878   1.683   1.111 -0.4004  0.1398  0.1479
   65MOL    C8319411   4.990   1.593   1.077  0.1540 -0.1626 -0.0580
   65MOL    H8419412   4.892   1.976   1.518  2.1659 -1.5440  1.2117
   65MOL    H8519413   4.828   1.896   1.664 -0.1253  1.0468 -0.1764
   65MOL    H8619414   4.923   1.747   1.497 -0.4182  0.7879 -0.6184
   65MOL    H8719415   4.784   1.645   1.071  1.0113 -2.4030 -0.8927
   65MOL    H8819416   4.901   1.781   1.068 -3.7050  1.2280  0.7682
   65MOL    H8919417   5.008   1.586   0.970  0.7878 -2.4280  0.1856
   65MOL    H9019418   4.980   1.496   1.126  0.9845  0.2341  0.9220
   65MOL    H9119419   5.074   1.642   1.126 -0.3664  1.2367 -0.5371
   65MOL    C9219420   4.727   1.662   1.516  0.0516  0.4930 -0.9871
   65MOL    C9319421   4.766   1.592   1.652  0.2162  0.0086 -1.0114
   65MOL    C9419422   4.907   1.520   1.652  0.6891 -0.5679 -0.8111
   65MOL    O9519423   4.977   1.522   1.548  0.1851 -0.4538 -0.1336
   65MOL    O9619424   4.942   1.460   1.772 -0.3613 -0.4699 -0.0681
   65MOL    C9719425   5.063   1.393   1.781 -0.0953 -0.7381 -0.5873
   65MOL    C9819426   5.068   1.310   1.912  0.2159 -0.4545  0.7686
   65MOL    H9919427   4.623   1.690   1.528 -0.0035  0.1601 -0.6603
   65MOL   H10019428   4.727   1.587   1.437 -0.0082 -0.4299 -0.1198
   65MOL   H10119429   4.785   1.670   1.725 -1.1047  1.7334 -2.4702
   65MOL   H10219430   5.091   1.341   1.689  0.5120 -2.1100  0.3485
   65MOL   H10319431   5.133   1.475   1.795 -2.0533  1.0070 -0.7660
   65MOL   H10419432   5.033   1.371   1.994 -0.6139  1.3187 -0.8603
   65MOL   H10519433   5.174   1.297   1.934  0.8140  4.0310  0.9787
   65MOL   H10619434   5.012   1.216   1.915  2.6330 -1.9595  0.8196
   65MOL   C10719435   4.652   1.517   1.717 -0.2772  0.3221  0.2378
   65MOL   C10819436   4.598   1.389   1.647  0.1218  0.5610 -0.0894
   65MOL   C10919437   4.499   1.416   1.538  0.6574 -0.0066 -0.1957
   65MOL   O11019438   4.533   1.397   1.421 -0.1869  0.2740 -0.3503
   65MOL   O11119439   4.383   1.477   1.582 -0.3079  0.5064 -0.1353
   65MOL   C11219440   4.290   1.537   1.498  0.1225 -0.2985  0.2575
   65MOL   C11319441   4.179   1.613   1.581 -0.1200  0.1542  0.0189
   65MOL   H11419442   4.682   1.485   1.817  2.0810 -1.1700 -0.9126
   65MOL   H11519443   4.572   1.591   1.724  0.4888  1.2506 -0.7559
   65MOL   H11619444   4.682   1.338   1.600  0.5738  1.1033  0.1252
   65MOL   H11719445   4.345   1.611   1.440 -0.7913 -1.0039 -1.5358
   65MOL   H11819446   4.249   1.472   1.420  1.1172  0.2985 -0.7751
   65MOL   H11919447   4.224   1.683   1.652  0.6755  0.3301 -0.6420
   65MOL   H12019448   4.106   1.544   1.623 -0.0855 -1.1082 -1.9047
   65MOL   H12119449   4.131   1.677   1.507 -0.6360 -0.3660 -0.1005
   65MOL   C12219450   4.535   1.301   1.754 -0.1253 -0.6348  0.1784
   65MOL   C12319451   4.623   1.211   1.847  0.2744  0.0284 -0.1346
   65MOL   C12419452   4.691   1.098   1.772  0.5109 -0.5588  0.6104
   65MOL   O12519453   4.814   1.079   1.787 -0.2319 -1.1034 -0.0924
   65MOL   O12619454   4.612   1.022   1.689  0.0097 -0.3205  0.3738
   65MOL   C12719455   4.676   0.914   1.623  0.1843  0.3045 -0.3423
   65MOL   C12819456   4.592   0.793   1.657 -0.4540 -0.1591 -0.0249
   65MOL   H12919457   4.467   1.360   1.816 -1.0890 -3.2886  1.7537
   65MOL   H13019458   4.459   1.233   1.714  0.0256 -1.0154  0.5369
   65MOL   H13119459   4.701   1.273   1.892  0.1047  0.0042  0.1968
   65MOL   H13219460   4.681   0.945   1.518 -2.5802 -0.3619 -0.7082
   65MOL   H13319461   4.772   0.901   1.671  0.8895 -0.9260 -2.0290
   65MOL   H13419462   4.574   0.782   1.764  2.2031 -0.8686  0.3749
   65MOL   H13519463   4.628   0.700   1.614 -1.5186 -1.3249  1.5532
   65MOL   H13619464   4.490   0.796   1.620 -0.5983 -1.7060  0.1946
   65MOL   C13719465   4.537   1.146   1.964 -0.0508  0.6492 -0.0203
   65MOL   C13819466   4.488   1.236   2.077 -0.1752  0.1599 -0.1717
   65MOL   C13919467   4.609   1.302   2.154  0.0151 -0.2674  0.2533
   65MOL   O14019468   4.726   1.280   2.127  0.4815  0.1951 -0.1032
   65MOL   O14119469   4.570   1.398   2.242 -0.5796  0.1284 -0.3798
   65MOL   C14219470   4.661   1.488   2.305 -0.1099 -0.1480 -0.3501
   65MOL   C14319471   4.710   1.421   2.428  0.0899 -0.1101  0.2190
   65MOL   H14419472   4.461   1.079   1.924  1.3724 -1.5748  0.8735
   65MOL   H14519473   4.605   1.078   2.016  2.0946  1.5161 -1.6344
   65MOL   H14619474   4.428   1.317   2.035 -1.7275  0.5024  2.5924
   65MOL   H14719475   4.739   1.518   2.235 -0.5189  1.2935 -0.2035
   65MOL   H14819476   4.611   1.584   2.323 -0.7419 -0.1250 -2.0844
   65MOL   H14919477   4.743   1.317   2.423 -1.6234 -0.6652  0.2394
   65MOL   H15019478   4.620   1.425   2.490  0.5102  2.3326  0.7182
   65MOL   H15119479   4.784   1.480   2.483  0.3554  0.1293 -0.3870
   65MOL   C15219480   4.395   1.159   2.180  0.0592  0.6644  0.2746
   65MOL   C15319481   4.248   1.161   2.137  0.2428 -0.3298 -0.0304
   65MOL   C15419482   4.184   1.301   2.124  0.2449 -0.3061  0.0298
   65MOL   O15519483   4.174   1.366   2.016  0.3301  0.3113  0.5567
   65MOL   O15619484   4.141   1.339   2.240  0.3708 -0.2360  0.0556
   65MOL   C15719485   4.078   1.468   2.255  0.1958  0.1499 -0.0477
   65MOL   C15819486   4.140   1.545   2.376  0.6812 -0.0173 -0.2899
   65MOL   H15919487   4.436   1.059   2.191  1.1680  0.9946 -0.8676
   65MOL   H16019488   4.400   1.190   2.285 -2.5045  1.2504  0.2759
   65MOL   H16119489   4.241   1.112   2.040 -2.2367  0.1167 -0.1201
   65MOL   H16219490   4.099   1.526   2.165 -1.1961  2.7758  1.2803
   65MOL   H16319491   3.971   1.449   2.258  0.4007 -1.0226  0.0196
   65MOL   H16419492   4.134   1.484   2.466 -0.1554  1.1766  0.4761
   65MOL   H16519493   4.074   1.628   2.398 -1.0801 -0.9924 -1.7139
   65MOL   H16619494   4.244   1.572   2.359  0.5661 -0.3669 -1.6121
   65MOL   C16719495   4.157   1.072   2.224  0.2577  0.0892 -0.8697
   65MOL   C16819496   4.009   1.047   2.172  0.1252  0.6146  0.2511
   65MOL   C16919497   3.933   0.954   2.265  0.0606 -0.3311  0.1598
   65MOL   O17019498   3.985   0.890   2.357  0.0155  0.0137  0.0380
   65MOL   O17119499   3.800   0.947   2.239  0.0519  0.1437  0.1541
   65MOL   C17219500   3.711   0.847   2.289 -0.4573 -0.0977  0.7551
   65MOL   C17319501   3.724   0.728   2.199 -0.1079 -0.1059 -0.2900
   65MOL   H17419502   4.203   0.973   2.228  1.7516  0.6908 -2.6799
   65MOL   H17519503   4.147   1.118   2.323  0.4674 -0.0418 -0.7870
   65MOL   H17619504   3.964   1.146   2.183  0.2955  0.5979  1.1285
   65MOL   H17719505   3.731   0.826   2.395  0.3976  1.8266  1.0052
   65MOL   H17819506   3.607   0.879   2.287 -0.8974 -1.4068  1.9134
   65MOL   H17919507   3.817   0.672   2.210 -0.7507 -0.8382  1.6040
   65MOL   H18019508   3.709   0.770   2.099 -2.8561  0.7755  0.4339
   65MOL   H18119509   3.636   0.663   2.196  1.3653 -2.1673  0.2023
   65MOL   C18219510   3.986   0.999   2.022 -0.0305 -0.0373  0.0375
   65MOL   C18319511   4.016   0.851   2.004  0.6236  0.2884  0.8842
   65MOL   C18419512   4.174   0.836   1.995  0.4133  0.5326 -0.5908
   65MOL   O18519513   4.234   0.890   1.903 -0.4903 -0.1378 -0.1266
   65MOL   O18619514   4.228   0.775   2.092 -0.4309 -0.1896 -0.2855
   65MOL   C18719515   4.366   0.733   2.070 -0.2124  0.3797  0.1541
   65MOL   C18819516   4.440   0.693   2.189  0.1936 -0.6361 -0.1495
   65MOL   H18919517   3.878   1.004   2.014 -0.2756 -1.5175  1.9516
   65MOL   H19019518   4.030   1.066   1.948  3.7129 -0.3018  1.8497
   65MOL   H19119519   3.980   0.787   2.086 -1.0668 -1.0850 -0.8634
   65MOL   H19219520   4.374   0.653   1.997 -0.7336 -1.3784  2.0121
   65MOL   H19319521   4.432   0.807   2.022 -0.0888  0.4311  0.4041
   65MOL   H19419522   4.543   0.662   2.168  0.3203  0.1114 -0.6244
   65MOL   H19519523   4.384   0.615   2.241  0.7138 -2.2088 -1.8852
   65MOL   H19619524   4.452   0.780   2.253 -1.7700 -0.9706  0.7082
   65MOL   C19719525   3.950   0.792   1.878  0.1693 -0.0690  0.4872
   65MOL   C19819526   3.977   0.654   1.837 -0.2378  0.5814  0.2764
   65MOL   C19919527   3.960   0.640   1.680 -0.0393 -0.3629  0.2876
   65MOL   O20019528   3.856   0.588   1.635  0.5174 -0.4533 -0.2933
   65MOL   O20119529   4.058   0.691   1.605  0.2251  0.0208  0.1604
   65MOL   C20219530   4.067   0.677   1.465 -0.1402  0.0736 -0.3999
   65MOL   C20319531   3.973   0.774   1.394  1.0679  0.6714  0.2067
   65MOL   H20419532   3.846   0.813   1.901 -0.1264  1.1281 -1.6921
   65MOL   H20519533   3.988   0.853   1.795  0.2532 -0.6268  0.1168
   65MOL   H20619534   4.080   0.623   1.857 -0.0214  0.3267 -1.1375
   65MOL   H20719535   4.170   0.683   1.430  1.3954  0.6906  3.9621
   65MOL   H20819536   4.042   0.572   1.447  2.3623 -0.5092 -0.5561
   65MOL   H20919537   3.871   0.771   1.434  1.2600  1.5872  0.7717
   65MOL   H21019538   3.971   0.751   1.288 -1.7234  0.8762  0.1722
   65MOL   H21119539   4.005   0.878   1.402  0.9011  0.6814  0.7903
   65MOL   C21219540   3.881   0.557   1.916  0.2534 -0.2876 -0.8654
   65MOL   C21319541   3.908   0.409   1.901  0.4173 -0.3785  0.5014
   65MOL   C21419542   3.825   0.337   1.797  1.2268  0.2349  0.8167
   65MOL   O21519543   3.877   0.287   1.698  0.7337 -0.3830  0.4025
   65MOL   O21619544   3.694   0.339   1.827  0.0802 -0.4393 -0.2010
   65MOL   C21719545   3.604   0.292   1.731  0.2321 -0.3869 -0.3271
   65MOL   C21819546   3.496   0.207   1.784 -0.4136 -0.1102  0.0178
   65MOL   H21919547   3.902   0.592   2.017  0.3881 -0.6057 -0.7817
   65MOL   H22019548   3.775   0.577   1.905  0.1219 -0.2395  0.3913
   65MOL   H22119549   4.010   0.400   1.862  1.0173 -1.6445  2.2331
   65MOL   H22219550   3.567   0.376   1.671 -0.4162  0.3181  1.0386
   65MOL   H22319551   3.652   0.225   1.660  0.3582 -0.7289  0.0812
   65MOL   H22419552   3.422   0.177   1.710 -0.9293  1.6621 -0.2039
   65MOL   H22519553   3.438   0.261   1.859  0.7348  0.9071  0.1981
   65MOL   H22619554   3.538   0.118   1.832 -1.1002 -0.2001  0.4584
   65MOL   C22719555   3.892   0.334   2.035 -0.3760  0.0884  0.0633
   65MOL   C22819556   4.021   0.288   2.100  0.4767 -0.1282 -0.0748
   65MOL   C22919557   4.109   0.404   2.160  0.3991  0.5405 -0.5477
   65MOL   O23019558   4.231   0.428   2.136  0.0189 -0.3379 -0.1616
   65MOL   O23119559   4.028   0.483   2.248  0.3733 -0.2927 -0.2072
   65MOL   C23219560   4.095   0.569   2.344  0.1009 -0.1001  0.6814
   65MOL   C23319561   4.030   0.560   2.482  0.2492 -0.0709 -0.8087
   65MOL   H23419562   3.828   0.391   2.102 -0.2329 -1.1224  1.2394
   65MOL   H23519563   3.829   0.245   2.033 -1.0308  0.4378  2.8469
   65MOL   H23619564   3.981   0.238   2.188 -2.3726  0.0010 -1.2197
   65MOL   H23719565   4.194   0.523   2.350  0.6631  0.9741 -0.1154
   65MOL   H23819566   4.120   0.668   2.306  3.0621 -0.6808  0.9733
   65MOL   H23919567   4.036   0.458   2.519  1.6760 -0.9311 -3.3383
   65MOL   H24019568   3.931   0.604   2.489  1.2666  1.9772  1.9377
   65MOL   H24119569   4.091   0.610   2.558  1.0700 -1.1231 -0.7591
   65MOL   C24219570   4.103   0.188   2.027 -0.1767 -0.3596  0.1728
   65MOL   C24319571   4.023   0.055   1.987 -0.0113 -0.4212 -0.0077
   65MOL   C24419572   4.008   7.873   2.111  0.4092  0.4331 -0.4411
   65MOL   O24519573   3.903   7.852   2.162  0.3148 -0.2997 -0.4808
   65MOL   O24619574   4.122   7.825   2.148 -0.0912  0.8052  0.4768
   65MOL   C24719575   4.135   7.714   2.239  0.1166  0.1842 -0.3105
   65MOL   C24819576   4.282   7.677   2.254  0.4130  0.2803 -0.2087
   65MOL   H24919577   4.156   0.237   1.946  2.4440  0.1012  2.1124
   65MOL   H25019578   4.193   0.162   2.084  0.0166 -1.4516 -0.6210
   65MOL   H25119579   3.922   0.080   1.954  0.0139 -1.7538 -1.1570
   65MOL   H25219580   4.082   7.730   2.333 -0.8878 -0.2276 -0.7995
   65MOL   H25319581   4.092   7.629   2.187  0.3785 -0.5136  0.6034
   65MOL   H25419582   4.335   7.764   2.292  1.7112 -0.0178 -1.3034
   65MOL   H25519583   4.336   7.675   2.159  0.0378 -0.5259 -0.4146
   65MOL   H25619584   4.308   7.591   2.316 -5.2120 -0.3593  1.6149
   65MOL   C25719585   4.072   7.891   1.861  0.2351  0.5246 -0.1335
   65MOL   C25819586   3.985   7.776   1.808 -0.1237  0.4714  0.2254
   65MOL   C25919587   4.067   7.658   1.749 -0.4577 -0.3905  0.2009
   65MOL   O26019588   4.123   7.666   1.634  0.3826  0.0413 -0.1544
   65MOL   O26119589   4.068   7.546   1.829  0.2284  0.3967 -0.5219
   65MOL   C26219590   4.131   7.428   1.794 -0.3987  0.8978 -0.3000
   65MOL   C26319591   4.278   7.444   1.842  0.2934 -0.1375  0.6074
   65MOL   H26419592   4.079   0.045   1.772  0.9078 -1.1611 -1.2696
   65MOL   H26519593   4.174   7.860   1.883  0.2371 -1.0705 -2.2815
   65MOL   H26619594   3.924   7.734   1.888 -0.0832 -1.6306 -0.8147
   65MOL   H26719595   4.068   7.353   1.842 -0.8457  0.7255 -1.1428
   65MOL   H26819596   4.126   7.408   1.687  2.3051  0.8039 -0.4403
   65MOL   H26919597   4.335   7.499   1.767  0.1439  1.9744  1.9902
   65MOL   H27019598   4.326   7.348   1.860  0.2452 -0.6550 -1.8557
   65MOL   H27119599   4.278   7.501   1.935  2.0374  1.0989 -0.1145
   65MOL   C27219600   3.873   7.825   1.700 -0.5460  1.0472  0.1383
   65MOL   C27319601   3.755   7.726   1.686  0.6524  0.2811 -0.1820
   65MOL   C27419602   3.776   7.613   1.587  0.1307 -0.4958  0.5371
   65MOL   O27519603   3.805   7.505   1.636 -0.0280  0.2649 -0.3325
   65MOL   O27619604   3.774   7.640   1.452 -0.3557  0.3654  0.3887
   65MOL   C27719605   3.850   7.560   1.367  0.7919 -0.0741  0.0847
   65MOL   C27819606   3.974   7.639   1.320  0.8856  0.3176 -0.1736
   65MOL   H27919607   3.842   0.014   1.739 -0.1192  0.2630  2.5764
   65MOL   H28019608   3.923   7.847   1.606  1.5306 -0.9754  0.7129
   65MOL   H28119609   3.755   7.681   1.785  2.8275  0.5471 -0.0513
   65MOL   H28219610   3.886   7.470   1.416 -0.8064 -1.4484 -1.2122
   65MOL   H28319611   3.797   7.516   1.283  1.1435 -0.9896  0.3345
   65MOL   H28419612   4.060   7.646   1.387 -0.1561 -0.8677  1.3410
   65MOL   H28519613   3.949   7.733   1.271 -3.4260  0.5923  2.3296
   65MOL   H28619614   4.018   7.582   1.238 -2.4867 -1.7259 -0.6337
   65MOL   C28719615   3.620   7.796   1.647 -0.3653 -0.0802  0.3249
   65MOL   C28819616   3.502   7.700   1.629  0.3497  0.0721  0.4143
   65MOL   C28919617   3.371   7.782   1.627  0.8689  0.1345 -0.4037
   65MOL   O29019618   3.332   7.831   1.519 -0.0086  0.1345  0.0870
   65MOL   O29119619   3.311   7.796   1.745  0.4083 -0.0139 -0.2785
   65MOL   C29219620   3.176   7.835   1.754 -0.6994 -0.1295  0.2038
   65MOL   C29319621   3.180   0.083   1.781  0.5063 -0.0699  0.1074
   65MOL   H29419622   3.598   7.867   1.726  2.4912  2.6658 -1.2376
   65MOL   H29519623   3.629   7.857   1.558  0.9216  0.4180  0.7752
   65MOL   H29619624   3.514   7.657   1.529  0.7599  0.9025  0.1037
   65MOL   H29719625   3.113   7.819   1.667 -0.8430  2.1981 -0.1470
   65MOL   H29819626   3.132   7.785   1.841 -3.6112  2.0169  0.0489
   65MOL   H29919627   3.241   0.099   1.870 -0.4240  0.6771  0.6148
   65MOL   H30019628   3.076   0.108   1.799  0.8627  2.9220 -1.6516
   65MOL   H30119629   3.220   0.128   1.690  0.8366 -1.1555 -0.2938
   65MOL   H30219630   3.488   7.623   1.705 -1.0944  2.5591  2.7438
   66MOL     C119631   3.408   5.093   5.694  0.3447  0.0765 -0.2644
   66MOL     C219632   3.552   5.141   5.727 -0.4680  1.0393 -0.5203
   66MOL     C319633   3.573   5.294   5.684  0.1733  0.8391  0.4640
   66MOL     O419634   3.651   5.328   5.600  0.0381  0.5503  0.3780
   66MOL     O519635   3.487   5.376   5.744 -0.2280 -0.2071  0.0748
   66MOL     C619636   3.503   5.520   5.742 -0.0748  0.0569 -0.7664
   66MOL     C719637   3.578   5.564   5.865 -0.1776 -0.6403 -0.0916
   66MOL     H819638   3.396   5.065   5.589 -0.1118 -1.3413  0.1561
   66MOL     H919639   3.331   5.164   5.725  0.3099 -0.0809  0.0121
   66MOL    H1019640   3.552   5.135   5.836 -1.1285  1.5859 -0.4879
   66MOL    H1119641   3.558   5.551   5.653  2.1528 -1.0328  0.1658
   66MOL    H1219642   3.398   5.547   5.745  0.1496  1.0050 -1.2933
   66MOL    H1319643   3.683   5.539   5.877 -0.2851 -0.5155  1.0813
   66MOL    H1419644   3.525   5.534   5.955  2.0824 -0.9032  1.1668
   66MOL    H1519645   3.570   5.672   5.879 -1.4186 -0.7139 -0.2016
   66MOL    H1619646   3.386   5.013   5.764 -3.4057  1.5223  0.3459
   66MOL    C1719647   3.655   5.042   5.673 -0.8058 -0.1786 -0.6003
   66MOL    C1819648   3.674   4.911   5.761  0.0477  0.0892 -0.1741
   66MOL    C1919649   3.701   4.946   5.907  0.9884 -0.3764 -0.3559
   66MOL    O2019650   3.628   4.913   5.999  0.3879  0.4605  0.0674
   66MOL    O2119651   3.802   5.029   5.926 -0.0203 -0.0898  0.0886
   66MOL    C2219652   3.865   5.046   6.051  0.0564 -0.2600 -0.3591
   66MOL    C2319653   3.999   5.120   6.038 -0.3658  0.0267 -0.0412
   66MOL    H2419654   3.629   5.006   5.574  1.6913 -1.8049 -0.7059
   66MOL    H2519655   3.751   5.094   5.665 -0.5978 -0.7863 -2.2105
   66MOL    H2619656   3.574   4.868   5.760 -0.5499  1.3517  1.8688
   66MOL    H2719657   3.805   5.089   6.131  0.0916 -3.7478  1.6071
   66MOL    H2819658   3.889   4.944   6.078  2.3170 -0.1620 -1.8170
   66MOL    H2919659   3.982   5.222   6.004 -0.6306 -0.0592 -0.1697
   66MOL    H3019660   4.066   5.075   5.966  1.4331  0.8583  1.0853
   66MOL    H3119661   4.049   5.127   6.135  0.9938 -0.8304 -0.6741
   66MOL    C3219662   3.779   4.810   5.709  0.4410  0.1222  0.6780
   66MOL    C3319663   3.793   4.679   5.793  0.1659  0.0889  0.7436
   66MOL    C3419664   3.907   4.688   5.897 -0.2028  0.4016  0.5568
   66MOL    O3519665   3.895   4.646   6.013  0.3736  0.4694 -0.3226
   66MOL    O3619666   4.025   4.730   5.838  0.5898  0.6066 -0.3897
   66MOL    C3719667   4.141   4.748   5.911  0.3267 -0.6084 -0.0341
   66MOL    C3819668   4.227   4.622   5.919  0.3334  0.1404 -0.0236
   66MOL    H3919669   3.747   4.776   5.610 -0.1339  1.3787  0.4214
   66MOL    H4019670   3.869   4.869   5.693  1.4891 -1.3945  0.8110
   66MOL    H4119671   3.697   4.674   5.844 -0.4755 -0.6684 -0.5264
   66MOL    H4219672   4.187   4.837   5.868  3.1362 -0.8941  2.2654
   66MOL    H4319673   4.119   4.789   6.009 -1.7662  1.2322 -1.2080
   66MOL    H4419674   4.193   4.562   6.003 -2.5183  0.9007 -0.5849
   66MOL    H4519675   4.320   4.665   5.957 -1.0453  0.4936  3.1091
   66MOL    H4619676   4.250   4.554   5.838 -0.2791 -1.7050  1.3189
   66MOL    C4719677   3.814   4.559   5.697 -0.3426  0.5793  0.0560
   66MOL    C4819678   3.785   4.421   5.764 -0.7112 -0.0857  0.1194
   66MOL    C4919679   3.916   4.362   5.809  0.0424 -0.2050 -0.5209
   66MOL    O5019680   4.020   4.371   5.742  0.6011 -0.3199 -0.0216
   66MOL    O5119681   3.914   4.309   5.931 -0.3230 -0.4578  0.2389
   66MOL    C5219682   4.040   4.265   5.985  0.0334 -1.0127  0.3331
   66MOL    C5319683   4.028   4.242   6.135 -0.4906 -0.1148 -0.7427
   66MOL    H5419684   3.763   4.564   5.601 -1.1840  0.8678  0.5197
   66MOL    H5519685   3.915   4.562   5.657 -0.0563  2.0924  0.8676
   66MOL    H5619686   3.719   4.441   5.848  1.2900 -0.5843  1.8591
   66MOL    H5719687   4.070   4.171   5.939 -1.2603 -0.7890 -0.9794
   66MOL    H5819688   4.117   4.338   5.959  0.3468 -0.3375  3.0330
   66MOL    H5919689   4.114   4.188   6.174 -1.3566 -0.3840  0.8133
   66MOL    H6019690   3.941   4.180   6.157 -0.0324  0.4249  2.8984
   66MOL    H6119691   4.019   4.338   6.185 -2.4182 -0.3929 -0.5132
   66MOL    C6219692   3.708   4.322   5.674  0.5824  0.1872 -0.0706
   66MOL    C6319693   3.574   4.366   5.604  0.3397  0.5598 -0.1439
   66MOL    C6419694   3.481   4.395   5.712  0.1567  0.2179  0.4201
   66MOL    O6519695   3.450   4.305   5.793 -0.3962  0.0981  0.0144
   66MOL    O6619696   3.431   4.515   5.707  0.8074  0.3432 -0.1948
   66MOL    C6719697   3.341   4.564   5.804  0.2437  0.6897 -0.3792
   66MOL    C6819698   3.409   4.624   5.928  0.5812  0.0104  0.3339
   66MOL    H6919699   3.774   4.319   5.587  2.9679 -2.7669  1.7691
   66MOL    H7019700   3.703   4.228   5.728  3.7901  1.0704  1.9176
   66MOL    H7119701   3.571   4.460   5.549 -0.0719  0.7986  0.2802
   66MOL    H7219702   3.300   4.650   5.750 -0.6119  0.8062  0.4351
   66MOL    H7319703   3.254   4.499   5.816  0.9908 -0.2896 -0.1762
   66MOL    H7419704   3.459   4.541   5.978  1.6987 -0.2076 -1.1123
   66MOL    H7519705   3.331   4.665   5.992  1.0687  1.6579 -0.1173
   66MOL    H7619706   3.477   4.706   5.910 -2.8689  2.9191  0.0010
   66MOL    C7719707   3.521   4.253   5.516  0.8034 -0.2082 -0.2152
   66MOL    C7819708   3.399   4.287   5.424 -1.1303 -0.0478 -0.1888
   66MOL    C7919709   3.267   4.266   5.502  0.3335  0.1100 -0.1577
   66MOL    O8019710   3.188   4.357   5.513 -0.2614  0.2950  0.2248
   66MOL    O8119711   3.249   4.140   5.563  0.3257 -0.6351  0.5597
   66MOL    C8219712   3.165   4.116   5.669  0.3786  0.1403 -0.3315
   66MOL    C8319713   3.229   3.998   5.750  1.0850  0.4795 -0.0693
   66MOL    H8419714   3.607   4.217   5.459  0.9059  0.2774 -0.3653
   66MOL    H8519715   3.496   4.171   5.583  1.4199  0.0448  0.3198
   66MOL    H8619716   3.412   4.394   5.403  1.6121 -0.2507  0.2568
   66MOL    H8719717   3.162   4.201   5.738  1.4169  1.2227 -1.6051
   66MOL    H8819718   3.059   4.108   5.649  0.0926  0.1626  1.1280
   66MOL    H8919719   3.210   3.901   5.703  2.9413  0.8753 -1.7497
   66MOL    H9019720   3.187   4.000   5.850  0.8009 -1.3101 -0.1268
   66MOL    H9119721   3.338   4.003   5.760  1.0541 -0.1142  0.5973
   66MOL    C9219722   3.404   4.206   5.297 -0.4635  0.7869  0.6231
   66MOL    C9319723   3.306   4.250   5.187 -0.6501 -0.5817  0.2621
   66MOL    C9419724   3.256   4.132   5.102  0.2973  0.8901 -0.0834
   66MOL    O9519725   3.142   4.100   5.085  0.4906 -0.3225 -0.1694
   66MOL    O9619726   3.361   4.069   5.047  0.3919 -0.4288 -0.5103
   66MOL    C9719727   3.352   3.942   4.990  1.0342  0.3778  0.3464
   66MOL    C9819728   3.490   3.900   4.948  0.9429 -0.1649 -0.5425
   66MOL    H9919729   3.502   4.221   5.252  0.0369  0.3981  1.5699
   66MOL   H10019730   3.400   4.098   5.309 -0.8010  0.5118 -1.7301
   66MOL   H10119731   3.217   4.294   5.230 -0.6744 -0.9854  0.6238
   66MOL   H10219732   3.315   3.858   5.049  0.2409  0.4693 -0.0116
   66MOL   H10319733   3.286   3.945   4.903  1.3054  0.3238  0.1356
   66MOL   H10419734   3.544   3.957   4.872  1.3296  0.3372  0.1102
   66MOL   H10519735   3.477   3.805   4.895  2.5599 -1.2642  0.9657
   66MOL   H10619736   3.549   3.878   5.037  0.1788 -0.4561 -0.1101
   66MOL   C10719737   3.360   4.362   5.091 -0.6152  0.2485  0.1083
   66MOL   C10819738   3.409   4.499   5.162 -0.3987  0.3174  0.7491
   66MOL   C10919739   3.289   4.561   5.230 -1.6050  0.9427 -0.7817
   66MOL   O11019740   3.169   4.533   5.201  0.1853  0.0666  0.0054
   66MOL   O11119741   3.326   4.649   5.319 -0.5476 -0.1218  0.8642
   66MOL   C11219742   3.235   4.678   5.422  0.2575 -0.6621  0.3978
   66MOL   C11319743   3.274   4.811   5.484 -0.7068 -0.2507 -0.1887
   66MOL   H11419744   3.452   4.318   5.051  1.2949  1.4281  2.9901
   66MOL   H11519745   3.302   4.377   5.000  1.3324  0.3099 -1.1480
   66MOL   H11619746   3.476   4.459   5.239 -1.4204 -0.1235  1.4306
   66MOL   H11719747   3.129   4.679   5.397  0.4411 -1.6780 -0.4649
   66MOL   H11819748   3.250   4.592   5.487 -0.8163 -0.4412  0.9324
   66MOL   H11919749   3.257   4.820   5.591 -1.2388  0.0351 -0.2928
   66MOL   H12019750   3.221   4.893   5.435 -0.8300  1.4111  2.6643
   66MOL   H12119751   3.382   4.816   5.472 -0.9509  0.8311 -2.1301
   66MOL   C12219752   3.499   4.586   5.075 -0.4856  0.2639  0.1429
   66MOL   C12319753   3.636   4.609   5.136 -0.2007  0.3610  0.4411
   66MOL   C12419754   3.638   4.708   5.254 -0.3228 -0.4713 -0.1282
   66MOL   O12519755   3.673   4.671   5.360  0.7369 -0.3316  0.6971
   66MOL   O12619756   3.589   4.835   5.217 -0.2723 -0.3111 -0.2287
   66MOL   C12719757   3.617   4.945   5.302 -0.4640  0.1241 -0.3391
   66MOL   C12819758   3.661   5.060   5.219  0.1800  0.2939  0.0035
   66MOL   H12919759   3.504   4.540   4.976 -0.3084 -0.9722  0.7107
   66MOL   H13019760   3.453   4.679   5.042 -1.9074  0.0745  1.5299
   66MOL   H13119761   3.675   4.517   5.179  2.4544  3.1446  4.3846
   66MOL   H13219762   3.525   4.971   5.355 -0.5088  0.3466 -0.5245
   66MOL   H13319763   3.692   4.915   5.375 -0.9165  0.3794  0.2351
   66MOL   H13419764   3.747   5.031   5.158  0.0289 -0.6593  0.2428
   66MOL   H13519765   3.693   5.148   5.275  2.9646  0.1234 -1.1985
   66MOL   H13619766   3.584   5.095   5.151 -3.2205 -1.3107  2.8749
   66MOL   C13719767   3.743   4.655   5.036 -0.7379  0.2466 -0.3214
   66MOL   C13819768   3.813   4.539   4.954 -0.0693 -0.0473 -0.0043
   66MOL   C13919769   3.863   4.418   5.030 -0.1966  0.1412 -0.1783
   66MOL   O14019770   3.808   4.308   5.019  0.9166  0.3374 -0.0411
   66MOL   O14119771   3.958   4.445   5.127  0.2109 -0.2341 -0.0675
   66MOL   C14219772   3.987   4.352   5.231 -0.3545 -0.7614  0.6283
   66MOL   C14319773   4.003   4.433   5.360  0.3426 -0.0215 -0.2270
   66MOL   H14419774   3.688   4.705   4.957  0.5488 -0.5295 -1.7395
   66MOL   H14519775   3.813   4.725   5.082 -0.3403 -1.6628  2.0635
   66MOL   H14619776   3.735   4.503   4.886  0.6178 -0.0039 -0.8287
   66MOL   H14719777   3.900   4.288   5.248 -0.3883 -1.3263 -1.5522
   66MOL   H14819778   4.074   4.290   5.211  0.9614  1.2070  0.1005
   66MOL   H14919779   3.910   4.488   5.373 -0.0156 -0.2372 -1.8785
   66MOL   H15019780   4.083   4.507   5.346  1.3413 -1.0539 -0.0551
   66MOL   H15119781   4.015   4.368   5.447  1.1604  2.8324  1.8794
   66MOL   C15219782   3.921   4.592   4.852  1.0428 -0.4818 -0.0415
   66MOL   C15319783   3.891   4.552   4.706 -0.3560  1.0513 -0.1844
   66MOL   C15419784   3.945   4.412   4.684  0.0815 -0.0391  0.5716
   66MOL   O15519785   3.869   4.318   4.647 -0.0188  0.5761  0.2226
   66MOL   O15619786   4.073   4.406   4.666 -0.4876 -0.1360 -0.0067
   66MOL   C15719787   4.142   4.287   4.642 -0.1601 -0.3045  0.4256
   66MOL   C15819788   4.149   4.237   4.501  0.0127 -0.4363  0.7589
   66MOL   H15919789   3.923   4.701   4.855  0.0210 -0.3727 -2.1888
   66MOL   H16019790   4.020   4.555   4.880  1.3044  0.7584  0.6711
   66MOL   H16119791   3.784   4.536   4.690  0.3013 -4.6583 -0.0050
   66MOL   H16219792   4.242   4.308   4.680 -0.9087  0.9433  1.7505
   66MOL   H16319793   4.104   4.199   4.696 -1.7345 -0.7445 -1.3783
   66MOL   H16419794   4.224   4.159   4.491  1.6277  1.2660 -0.9536
   66MOL   H16519795   4.189   4.320   4.443 -1.0664  0.2844  1.0309
   66MOL   H16619796   4.058   4.198   4.456 -0.0768  1.4297 -0.7605
   66MOL   C16719797   3.961   4.662   4.614  0.8480  0.5158 -0.8659
   66MOL   C16819798   3.902   4.684   4.467  0.1883  0.0197 -0.1120
   66MOL   C16919799   3.925   4.561   4.376  0.3142 -0.0871 -0.6099
   66MOL   O17019800   4.035   4.552   4.314  0.1004 -0.3207 -0.2294
   66MOL   O17119801   3.819   4.483   4.361  0.4541  0.3244  1.0218
   66MOL   C17219802   3.819   4.372   4.270  0.0673 -0.2611 -0.0871
   66MOL   C17319803   3.807   4.423   4.125 -0.0144  0.0336 -0.5679
   66MOL   H17419804   3.962   4.762   4.658  0.3494  0.0638  0.1946
   66MOL   H17519805   4.066   4.636   4.596  1.2156 -0.6025  2.4729
   66MOL   H17619806   3.795   4.705   4.477  0.5272  2.0158 -0.5237
   66MOL   H17719807   3.916   4.323   4.279  1.0322  1.7529  0.6945
   66MOL   H17819808   3.743   4.294   4.278 -0.9811  0.6099 -1.3525
   66MOL   H17919809   3.890   4.491   4.104  0.3973  0.9600  3.5149
   66MOL   H18019810   3.711   4.474   4.114 -0.7616 -1.2235  0.0337
   66MOL   H18119811   3.799   4.340   4.055 -2.6642 -0.8651  0.7465
   66MOL   C18219812   3.961   4.819   4.411 -0.4349 -0.1047 -0.9008
   66MOL   C18319813   3.883   4.863   4.289 -0.0756 -0.0989 -0.5819
   66MOL   C18419814   3.968   4.956   4.201  0.0705  0.2170 -0.0199
   66MOL   O18519815   3.919   5.054   4.149 -0.1659 -0.0421  0.3164
   66MOL   O18619816   4.092   4.908   4.186 -0.2536 -0.4421 -0.3101
   66MOL   C18719817   4.176   4.972   4.094  0.2171  0.3850  0.2602
   66MOL   C18819818   4.186   4.886   3.963 -0.1594  0.5591  0.3659
   66MOL   H18919819   3.965   4.899   4.485  1.6213 -1.7859  0.9010
   66MOL   H19019820   4.064   4.792   4.388 -0.3827 -0.1292 -0.6434
   66MOL   H19119821   3.861   4.779   4.224 -0.2380 -1.8037  1.6209
   66MOL   H19219822   4.141   5.073   4.070  1.6695  1.0806  0.9911
   66MOL   H19319823   4.274   4.993   4.137  0.9108  1.6815 -1.8174
   66MOL   H19419824   4.275   4.901   3.903  1.1761  0.2907  2.2414
   66MOL   H19519825   4.098   4.884   3.899 -0.5475  0.3814  0.9010
   66MOL   H19619826   4.195   4.785   4.003  1.3426  0.4959 -0.1101
   66MOL   C19719827   3.743   4.929   4.328 -0.0780  0.1262 -1.1591
   66MOL   C19819828   3.622   4.866   4.253  0.3303  0.4601 -0.0367
   66MOL   C19919829   3.599   4.943   4.125 -0.3830 -0.5768 -0.4431
   66MOL   O20019830   3.604   4.884   4.015  0.6974 -0.7087  0.0188
   66MOL   O20119831   3.568   5.073   4.136 -0.3782 -0.4359 -0.1071
   66MOL   C20219832   3.535   5.154   4.019 -0.1523  1.3051 -0.1477
   66MOL   C20319833   3.395   5.214   4.031  0.3879  0.0884 -0.3676
   66MOL   H20419834   3.720   4.936   4.435 -1.0546 -0.5574 -1.3164
   66MOL   H20519835   3.749   5.035   4.304 -1.0126  0.5604  0.4314
   66MOL   H20619836   3.653   4.762   4.242 -0.7491 -0.0145  1.2194
   66MOL   H20719837   3.605   5.237   4.025  0.4071  0.8110  0.2609
   66MOL   H20819838   3.560   5.101   3.927 -1.4794 -1.2600  0.8988
   66MOL   H20919839   3.312   5.143   4.033  0.6553 -0.4818 -4.3946
   66MOL   H21019840   3.384   5.281   3.945 -0.1774  0.5299  0.0418
   66MOL   H21119841   3.389   5.273   4.123  2.2666 -1.6297  0.8830
   66MOL   C21219842   3.497   4.855   4.344 -0.7337  0.0824 -0.0533
   66MOL   C21319843   3.371   4.780   4.283  0.3847  0.6012  0.2935
   66MOL   C21419844   3.406   4.642   4.216 -0.6877 -0.4717  0.7088
   66MOL   O21519845   3.438   4.633   4.097  0.1408  0.1464 -0.1596
   66MOL   O21619846   3.420   4.548   4.308  0.2522  0.3141 -0.0668
   66MOL   C21719847   3.454   4.414   4.276 -0.1507 -0.2666  1.3073
   66MOL   C21819848   3.339   4.313   4.266 -0.4479  0.2726 -0.2698
   66MOL   H21919849   3.525   4.802   4.434  1.4324 -0.7864 -1.1828
   66MOL   H22019850   3.473   4.955   4.381  0.2225  1.0009 -1.8035
   66MOL   H22119851   3.315   4.759   4.375  0.1723 -1.2168 -0.2249
   66MOL   H22219852   3.513   4.412   4.184 -1.0745  2.8449  0.6003
   66MOL   H22319853   3.510   4.374   4.361 -0.9611  0.6707  2.2857
   66MOL   H22419854   3.262   4.342   4.194  1.5069  0.5416 -2.3436
   66MOL   H22519855   3.306   4.276   4.363 -0.2465  2.0965  0.5059
   66MOL   H22619856   3.378   4.224   4.216  0.6335 -0.8135  2.4652
   66MOL   C22719857   3.283   4.874   4.196  0.2870 -0.0525  0.2234
   66MOL   C22819858   3.141   4.836   4.156 -0.4693 -0.5327  0.0820
   66MOL   C22919859   3.098   4.905   4.020  0.3232 -0.4230  0.1282
   66MOL   O23019860   3.063   4.832   3.926 -0.0291  0.3369  0.2303
   66MOL   O23119861   3.102   5.039   4.020 -0.1990 -0.0484 -0.6091
   66MOL   C23219862   3.068   5.104   3.899  0.1348 -0.1916  0.5750
   66MOL   C23319863   2.932   5.168   3.926  0.6870 -0.8211 -0.1085
   66MOL   H23419864   3.286   4.969   4.250  1.4907  0.0938 -0.0833
   66MOL   H23519865   3.340   4.895   4.106  1.0146 -1.6126  0.2925
   66MOL   H23619866   3.149   4.732   4.125  2.2208 -0.4760  0.4178
   66MOL   H23719867   3.139   5.180   3.869 -0.7559  0.2059 -0.5787
   66MOL   H23819868   3.058   5.034   3.816  1.0235  0.6908 -0.2883
   66MOL   H23919869   2.879   5.192   3.833  0.0560  0.3514  0.5423
   66MOL   H24019870   2.946   5.255   3.990 -1.0663  0.0863 -0.9132
   66MOL   H24119871   2.864   5.096   3.971 -0.2909  1.6956  2.5947
   66MOL   C24219872   3.028   4.866   4.260 -1.2141  0.9558 -0.1467
   66MOL   C24319873   3.005   4.753   4.366 -0.2266  0.0514  0.2028
   66MOL   C24419874   3.001   4.602   4.315 -0.7655  0.0907  0.3076
   66MOL   O24519875   2.962   4.561   4.206 -0.1178  0.4167 -0.0788
   66MOL   O24619876   3.035   4.516   4.415 -0.1122  0.2673 -0.6188
   66MOL   C24719877   3.018   4.376   4.400  0.4845 -0.8891 -0.2878
   66MOL   C24819878   2.864   4.346   4.421  0.0474  0.8163  0.0016
   66MOL   H24919879   3.051   4.962   4.306  1.6152 -1.2193  3.2498
   66MOL   H25019880   2.933   4.875   4.208  0.3904 -0.9065 -3.5341
   66MOL   H25119881   3.094   4.760   4.429  1.9104 -1.5281 -2.5111
   66MOL   H25219882   3.035   4.343   4.298  0.4008  1.9997 -1.2747
   66MOL   H25319883   3.078   4.310   4.463  2.6049  2.6808  1.5538
   66MOL   H25419884   2.842   4.393   4.517  0.9770  3.3198 -0.9645
   66MOL   H25519885   2.829   4.244   4.412 -1.8515  1.4908 -0.5747
   66MOL   H25619886   2.808   4.402   4.346 -1.5984 -1.2460 -0.3287
   66MOL   C25719887   2.875   4.778   4.458 -0.5634  0.6609  0.4543
   66MOL   C25819888   2.901   4.745   4.604 -0.1419  0.0261 -0.3784
   66MOL   C25919889   2.760   4.719   4.672  0.1267 -0.2566 -0.0268
   66MOL   O26019890   2.680   4.816   4.695 -0.4740  0.3552  0.5989
   66MOL   O26119891   2.726   4.588   4.692  0.2450  0.1733 -0.0222
   66MOL   C26219892   2.601   4.549   4.754 -0.4774  0.8839  0.2705
   66MOL   C26319893   2.615   4.571   4.899 -0.2072 -0.3753 -0.2059
   66MOL   H26419894   2.852   4.884   4.455  0.1486  0.7960 -0.3841
   66MOL   H26519895   2.791   4.724   4.413 -1.0152 -1.8808  4.0885
   66MOL   H26619896   2.945   4.645   4.595  0.0305  0.1436 -0.8194
   66MOL   H26719897   2.513   4.608   4.727 -1.7859 -1.6955 -1.3883
   66MOL   H26819898   2.577   4.444   4.739  0.1302  0.8463 -0.4739
   66MOL   H26919899   2.560   4.505   4.965 -0.8847 -0.6190 -1.0025
   66MOL   H27019900   2.573   4.665   4.934  2.2150  0.1095  1.5159
   66MOL   H27119901   2.721   4.558   4.924 -0.2717 -0.2287  0.1419
   66MOL   C27219902   2.989   4.847   4.687 -0.3502 -0.3595 -0.6500
   66MOL   C27319903   3.033   4.805   4.835 -0.1760  0.0888  0.4302
   66MOL   C27419904   3.105   4.665   4.832  0.0096  0.1225  0.0013
   66MOL   O27519905   3.229   4.666   4.839 -0.2754 -0.3597 -0.0785
   66MOL   O27619906   3.022   4.565   4.823 -0.0680 -0.3414  0.2617
   66MOL   C27719907   3.071   4.437   4.827  0.5670 -0.3866 -0.1104
   66MOL   C27819908   2.951   4.345   4.818 -0.2002  0.5257 -0.5973
   66MOL   H27919909   3.083   4.845   4.632 -0.2994 -0.9475 -0.5429
   66MOL   H28019910   2.947   4.947   4.690 -0.3616 -0.2643 -2.8854
   66MOL   H28119911   3.121   4.864   4.860  0.4812 -0.0749 -1.4210
   66MOL   H28219912   3.132   4.397   4.746 -0.4717 -1.1604 -0.5147
   66MOL   H28319913   3.135   4.424   4.914 -1.1613  0.4279  1.2912
   66MOL   H28419914   2.984   4.248   4.856  0.0685  0.5318 -0.8169
   66MOL   H28519915   2.900   4.339   4.722  0.5935 -0.3088 -0.9715
   66MOL   H28619916   2.879   4.372   4.896  0.0432  0.8106 -0.4686
   66MOL   C28719917   2.927   4.827   4.951  0.5141  1.0156 -0.0252
   66MOL   C28819918   2.992   4.816   5.089 -0.5228  0.1014  0.4547
   66MOL   C28919919   3.099   4.919   5.104  0.1077 -0.4662 -0.4688
   66MOL   O29019920   3.219   4.888   5.113 -0.6229 -0.2814 -0.4438
   66MOL   O29119921   3.056   5.043   5.116 -0.1987 -0.0889  0.8415
   66MOL   C29219922   3.152   5.150   5.106 -0.3159  0.4127  0.0222
   66MOL   C29319923   3.098   5.287   5.129 -0.5481  0.2099 -0.3987
   66MOL   H29419924   2.889   4.929   4.940  2.3516  1.8070  0.6491
   66MOL   H29519925   2.844   4.757   4.948  1.3865 -0.0254 -0.3409
   66MOL   H29619926   2.911   4.839   5.158 -0.2922 -2.2684  1.5537
   66MOL   H29719927   3.227   5.121   5.181 -1.2555  0.6563  1.0753
   66MOL   H29819928   3.211   5.147   5.015 -1.9871  2.1160 -1.1303
   66MOL   H29919929   3.035   5.322   5.048 -0.1654  1.0948 -0.3180
   66MOL   H30019930   3.178   5.359   5.142  1.4165 -1.8086 -1.0090
   66MOL   H30119931   3.045   5.290   5.224  0.9082  0.7636  0.4064
   66MOL   H30219932   3.031   4.719   5.122 -0.2855  0.2712  0.6775
   67MOL     C119933   1.271   1.466   0.800  0.6207  0.0503 -0.0947
   67MOL     C219934   1.306   1.404   0.935  0.5510 -0.3973 -0.6598
   67MOL     C319935   1.175   1.347   0.990 -0.2580  0.9613 -0.7563
   67MOL     O419936   1.165   1.222   1.002  0.3116 -0.4297  0.1086
   67MOL     O519937   1.076   1.437   1.027 -0.7268 -0.0775 -0.0048
   67MOL     C619938   0.946   1.396   1.076 -0.0025  0.1001  0.4202
   67MOL     C719939   0.841   1.398   0.967  0.3752 -0.3799 -0.3387
   67MOL     H819940   1.365   1.504   0.758  1.4809 -1.3294  0.5549
   67MOL     H919941   1.196   1.543   0.816 -2.2769 -3.4052  3.6851
   67MOL    H1019942   1.371   1.320   0.911  1.5050  0.2794 -0.4689
   67MOL    H1119943   0.948   1.295   1.116 -1.4286  0.1686  0.6984
   67MOL    H1219944   0.924   1.456   1.165 -1.7658 -0.3436  0.3117
   67MOL    H1319945   0.757   1.343   1.010  0.5313 -0.3918 -0.0518
   67MOL    H1419946   0.873   1.342   0.879  0.2006 -1.2395  0.1409
   67MOL    H1519947   0.814   1.495   0.927  0.3351 -0.5529 -0.7417
   67MOL    H1619948   1.247   1.380   0.737  2.0483 -2.8887  3.2024
   67MOL    C1719949   1.379   1.502   1.034  0.0893  0.6211 -0.0542
   67MOL    C1819950   1.437   1.446   1.173  0.2960  0.5110  0.5694
   67MOL    C1919951   1.518   1.552   1.252 -0.7451  0.3594 -0.4089
   67MOL    O2019952   1.514   1.563   1.374  0.3822  0.2564 -0.2921
   67MOL    O2119953   1.606   1.624   1.177 -0.0273  0.3531 -0.0328
   67MOL    C2219954   1.671   1.735   1.237 -0.1137 -0.0239  0.3959
   67MOL    C2319955   1.813   1.698   1.272 -0.1363 -0.1617  0.5316
   67MOL    H2419956   1.461   1.544   0.975  0.1412  3.4902  1.9520
   67MOL    H2519957   1.325   1.590   1.070 -1.1748  0.3167 -1.2024
   67MOL    H2619958   1.347   1.429   1.232  0.8275 -1.1700  0.9009
   67MOL    H2719959   1.680   1.822   1.173 -2.2283 -1.3697 -1.7869
   67MOL    H2819960   1.622   1.765   1.330  0.3914 -0.3351  0.7677
   67MOL    H2919961   1.861   1.775   1.333 -0.8917  1.9594 -1.5007
   67MOL    H3019962   1.868   1.691   1.178  0.4158  2.2272  0.6266
   67MOL    H3119963   1.817   1.597   1.312 -2.0187 -0.0510  1.0540
   67MOL    C3219964   1.512   1.304   1.160 -0.0187 -0.2714  0.3534
   67MOL    C3319965   1.661   1.311   1.120  0.1186  0.8282  0.3746
   67MOL    C3419966   1.688   1.359   0.973 -0.1627  0.0571 -1.6488
   67MOL    O3519967   1.690   1.276   0.878  0.5789 -0.9289 -0.4122
   67MOL    O3619968   1.716   1.489   0.959 -0.1279 -0.1682  0.6217
   67MOL    C3719969   1.724   1.537   0.818 -0.7123  0.1459  0.2492
   67MOL    C3819970   1.762   1.689   0.824  0.2254  0.1798 -0.3147
   67MOL    H3919971   1.526   1.259   1.258 -1.4875 -2.6062 -0.4578
   67MOL    H4019972   1.454   1.233   1.102 -0.4966  0.6420 -0.3090
   67MOL    H4119973   1.703   1.379   1.195  2.0400 -1.3497  1.3339
   67MOL    H4219974   1.795   1.480   0.758 -0.1924  0.8076  0.2278
   67MOL    H4319975   1.628   1.514   0.771 -0.6063 -1.2975  0.7333
   67MOL    H4419976   1.775   1.737   0.727  1.9045  1.2721  0.4253
   67MOL    H4519977   1.861   1.704   0.868 -0.1880  1.1755  0.2911
   67MOL    H4619978   1.687   1.739   0.884  0.7388  1.2828 -0.5764
   67MOL    C4719979   1.734   1.177   1.158  0.0590 -0.0830 -0.1623
   67MOL    C4819980   1.879   1.158   1.110 -0.0855 -0.6644  0.0908
   67MOL    C4919981   1.933   1.022   1.143 -0.8800  0.0136 -0.1042
   67MOL    O5019982   1.958   0.944   1.048  0.0934 -0.2385  0.3198
   67MOL    O5119983   1.955   1.001   1.276 -0.2452 -0.1764 -0.0414
   67MOL    C5219984   2.000   0.877   1.331  0.1144 -0.5048 -0.1686
   67MOL    C5319985   2.151   0.867   1.342  0.3125  0.7909  0.0420
   67MOL    H5419986   1.741   1.185   1.267 -3.4365  2.6778 -0.0609
   67MOL    H5519987   1.673   1.090   1.134  1.4859 -0.9918 -0.5562
   67MOL    H5619988   1.882   1.156   1.001  1.6064 -3.0696  0.1463
   67MOL    H5719989   1.967   0.865   1.434  2.1267 -1.7659  0.3539
   67MOL    H5819990   1.964   0.798   1.265  1.1237 -1.0082 -0.1301
   67MOL    H5919991   2.177   0.958   1.397  0.9378  1.7173 -1.7309
   67MOL    H6019992   2.212   0.871   1.251 -1.3489  2.4998 -1.0338
   67MOL    H6119993   2.172   0.780   1.404 -1.8201  0.3893  0.2338
   67MOL    C6219994   1.964   1.269   1.169  0.1520  0.0782 -0.2185
   67MOL    C6319995   2.106   1.287   1.112  0.4613  0.2014  0.1614
   67MOL    C6419996   2.217   1.230   1.201 -0.0668 -0.2120 -0.3605
   67MOL    O6519997   2.285   1.133   1.168 -0.0943 -0.6524 -0.3290
   67MOL    O6619998   2.226   1.298   1.316 -0.1543  0.3467  0.0195
   67MOL    C6719999   2.324   1.269   1.414 -0.4172 -0.0207 -0.0686
   67MOL    C6820000   2.461   1.328   1.366 -0.3327 -0.7211 -0.1730
   67MOL    H6920001   1.921   1.369   1.166  0.8332  0.4695  2.0782
   67MOL    H7020002   1.955   1.258   1.277 -0.1548  2.7482  0.0558
   67MOL    H7120003   2.114   1.227   1.021  1.7145 -0.1712  0.5118
   67MOL    H7220004   2.286   1.312   1.506  0.0289  0.0768  0.0713
   67MOL    H7320005   2.342   1.161   1.423 -0.6887 -0.0435  0.1869
   67MOL    H7420006   2.534   1.328   1.447  0.0209 -1.2330 -0.4853
   67MOL    H7520007   2.435   1.428   1.331  0.1355 -1.4542 -2.7114
   67MOL    H7620008   2.493   1.265   1.282  2.2741  2.1225 -1.4020
   67MOL    C7720009   2.140   1.436   1.083 -0.1276  0.8264 -0.1387
   67MOL    C7820010   2.278   1.459   1.025  0.4128 -0.0025  0.2337
   67MOL    C7920011   2.328   1.603   1.061 -0.0871  0.3811  0.8328
   67MOL    O8020012   2.255   1.699   1.041  0.2442  0.3478 -0.1161
   67MOL    O8120013   2.448   1.614   1.126 -0.4480 -0.1203  0.2865
   67MOL    C8220014   2.501   1.729   1.181 -0.2974  0.1659  0.1675
   67MOL    C8320015   2.470   1.760   1.332 -0.3940  0.3346  0.0269
   67MOL    H8420016   2.058   1.495   1.042 -0.4137  0.3457 -0.2677
   67MOL    H8520017   2.144   1.482   1.181 -1.5754  0.4408  0.1063
   67MOL    H8620018   2.346   1.385   1.068  0.9584  1.0269  1.1497
   67MOL    H8720019   2.609   1.728   1.162 -0.3772  1.5258 -0.3655
   67MOL    H8820020   2.468   1.819   1.130 -0.6493  0.5600  1.0953
   67MOL    H8920021   2.367   1.736   1.360  0.3850 -2.3477  0.8061
   67MOL    H9020022   2.486   1.866   1.351 -1.8954  0.4918  0.4743
   67MOL    H9120023   2.539   1.702   1.393  1.0644  1.9718 -0.0388
   67MOL    C9220024   2.278   1.440   0.871 -0.4969  0.2570  0.3260
   67MOL    C9320025   2.425   1.437   0.812  0.8038  0.1854 -0.8699
   67MOL    C9420026   2.412   1.460   0.653  0.2462 -0.3509  0.1249
   67MOL    O9520027   2.440   1.565   0.595 -0.0258 -0.3043  0.1721
   67MOL    O9620028   2.377   1.347   0.588  0.0338  0.3801  0.1728
   67MOL    C9720029   2.369   1.339   0.449 -0.3510 -0.4795 -0.0286
   67MOL    C9820030   2.355   1.193   0.406 -0.6592 -0.1601 -0.6220
   67MOL    H9920031   2.238   1.345   0.836  1.2724 -0.5491  0.4047
   67MOL   H10020032   2.208   1.511   0.829  1.2981  0.3891 -2.5600
   67MOL   H10120033   2.476   1.528   0.846 -0.0521  0.5867 -0.6558
   67MOL   H10220034   2.285   1.397   0.409  0.2668  0.5184  0.1025
   67MOL   H10320035   2.459   1.378   0.402 -0.7896  0.0918 -0.4028
   67MOL   H10420036   2.333   1.192   0.299  0.8835  2.1660 -1.0063
   67MOL   H10520037   2.261   1.149   0.437 -0.2201  0.8946  2.3847
   67MOL   H10620038   2.446   1.136   0.425 -0.6362 -0.0032 -0.2544
   67MOL   C10720039   2.509   1.303   0.845 -0.5285 -0.3718  0.1507
   67MOL   C10820040   2.648   1.298   0.775  0.1563  0.3609  0.2499
   67MOL   C10920041   2.670   1.152   0.735  0.0010  0.5117 -0.7788
   67MOL   O11020042   2.709   1.136   0.622  0.6718  0.4551  0.1034
   67MOL   O11120043   2.632   1.054   0.824  0.4614 -0.3898 -0.0049
   67MOL   C11220044   2.663   0.917   0.788 -0.2286 -1.0951 -0.4283
   67MOL   C11320045   2.813   0.880   0.804  0.4927 -0.5765  0.4810
   67MOL   H11420046   2.529   1.305   0.953  0.0386  0.3934  0.0327
   67MOL   H11520047   2.442   1.219   0.825 -0.5888 -0.1512 -0.5830
   67MOL   H11620048   2.653   1.358   0.684  0.2161 -0.5367 -0.3394
   67MOL   H11720049   2.615   0.853   0.863 -0.5848  1.5153  1.6728
   67MOL   H11820050   2.625   0.887   0.690  0.5013  0.0231 -1.0612
   67MOL   H11920051   2.824   0.774   0.783 -0.5258 -0.6131  0.1297
   67MOL   H12020052   2.855   0.888   0.905  0.1960  1.0662  0.4986
   67MOL   H12120053   2.869   0.940   0.733 -1.4451 -0.8442 -1.3203
   67MOL   C12220054   2.762   1.347   0.861  0.1465 -0.4887 -0.0003
   67MOL   C12320055   2.880   1.421   0.787  0.4244  0.0599 -0.5756
   67MOL   C12420056   2.840   1.570   0.770  0.4526 -0.3110  0.0574
   67MOL   O12520057   2.840   1.644   0.869 -0.2443 -0.4189  0.4842
   67MOL   O12620058   2.792   1.602   0.649  0.0180 -0.5152  0.1111
   67MOL   C12720059   2.770   1.741   0.623 -0.7908  0.0200 -0.0666
   67MOL   C12820060   2.742   1.767   0.476  0.1321 -0.5053  0.3153
   67MOL   H12920061   2.722   1.409   0.941  1.2163  0.1815  0.0062
   67MOL   H13020062   2.809   1.263   0.913  2.2958 -0.1762 -1.3994
   67MOL   H13120063   2.960   1.425   0.862  0.3809 -0.3012 -0.5063
   67MOL   H13220064   2.687   1.775   0.685  0.3961  2.4481  0.2891
   67MOL   H13320065   2.851   1.809   0.652 -1.0761  0.3629 -0.0652
   67MOL   H13420066   2.649   1.714   0.457  0.1182 -0.9845  1.6847
   67MOL   H13520067   2.829   1.732   0.420  0.4539 -0.5051  0.8068
   67MOL   H13620068   2.729   1.872   0.452  0.5864 -0.3858  0.5726
   67MOL   C13720069   2.939   1.352   0.664  0.3994  1.1992  0.1309
   67MOL   C13820070   3.090   1.369   0.653  0.7457  0.6879  0.4409
   67MOL   C13920071   3.135   1.516   0.653  0.5421  0.2174 -0.1698
   67MOL   O14020072   3.201   1.560   0.749  0.0468  0.1268 -0.5299
   67MOL   O14120073   3.099   1.588   0.542  0.4384 -0.3318  0.7614
   67MOL   C14220074   3.144   1.723   0.527  0.4088 -0.6487  0.1044
   67MOL   C14320075   3.266   1.726   0.436 -0.0008  0.0325 -0.1997
   67MOL   H14420076   2.919   1.245   0.671  0.2446  1.2011 -0.2960
   67MOL   H14520077   2.893   1.386   0.572  0.4903  1.5749  0.2232
   67MOL   H14620078   3.140   1.318   0.736  1.2023 -0.8058 -0.7224
   67MOL   H14720079   3.072   1.790   0.481  0.9016 -0.5624 -0.5465
   67MOL   H14820080   3.163   1.772   0.623 -0.8067  1.4704 -0.7119
   67MOL   H14920081   3.349   1.696   0.500 -0.3527 -0.4356  0.0396
   67MOL   H15020082   3.289   1.825   0.395 -0.0071 -0.0509 -0.4072
   67MOL   H15120083   3.269   1.655   0.354  0.5699 -0.1546 -0.0212
   67MOL   C15220084   3.143   1.295   0.519  0.0303  0.2131  0.3564
   67MOL   C15320085   3.112   1.146   0.505 -0.3196 -0.2981  0.3396
   67MOL   C15420086   3.197   1.072   0.603 -0.3058 -0.5453 -0.1651
   67MOL   O15520087   3.155   1.031   0.711  0.2628 -0.1108  1.0683
   67MOL   O15620088   3.326   1.056   0.568 -0.4080 -0.2986 -0.1600
   67MOL   C15720089   3.418   1.002   0.661 -0.7360 -0.2858  0.1462
   67MOL   C15820090   3.565   0.998   0.612 -0.4175 -0.4722  0.1132
   67MOL   H15920091   3.107   1.354   0.435 -3.7183  0.2388  1.8351
   67MOL   H16020092   3.250   1.314   0.513  0.1267 -0.6211 -0.6596
   67MOL   H16120093   3.006   1.127   0.520 -0.1328 -0.0368  2.1097
   67MOL   H16220094   3.401   1.066   0.748 -0.8501  1.1078 -0.9034
   67MOL   H16320095   3.381   0.906   0.697  1.2166 -1.1057  0.0168
   67MOL   H16420096   3.563   0.959   0.510  0.6770 -0.7691  0.2055
   67MOL   H16520097   3.625   0.933   0.675  0.2734 -0.0928 -0.1493
   67MOL   H16620098   3.603   1.100   0.616 -1.2362 -0.1956  1.0091
   67MOL   C16720099   3.132   1.094   0.359 -0.4633  0.4447 -0.2613
   67MOL   C16820100   3.029   0.988   0.318 -0.1706  0.3633  0.1101
   67MOL   C16920101   3.043   0.865   0.405  0.7987 -0.0015  0.7414
   67MOL   O17020102   2.969   0.854   0.499 -0.1296  0.2559  0.2924
   67MOL   O17120103   3.146   0.781   0.370  0.9414  0.1153 -0.0605
   67MOL   C17220104   3.170   0.660   0.444 -0.4529 -0.3557 -0.0150
   67MOL   C17320105   3.264   0.701   0.553 -0.7461  0.0204  0.6861
   67MOL   H17420106   3.127   1.179   0.291  0.3144  1.5781  1.0644
   67MOL   H17520107   3.231   1.051   0.343 -0.4021  0.9737 -1.3700
   67MOL   H17620108   2.938   1.043   0.343  0.0327  1.9272 -2.4494
   67MOL   H17720109   3.076   0.615   0.477 -0.4478  0.5408  1.2569
   67MOL   H17820110   3.218   0.583   0.384  1.0968  0.7111 -0.1657
   67MOL   H17920111   3.205   0.768   0.616  0.9063  2.5399 -0.3639
   67MOL   H18020112   3.344   0.754   0.502  0.9169 -1.8743  1.2709
   67MOL   H18120113   3.314   0.619   0.605 -1.3637 -0.8101 -0.0120
   67MOL   C18220114   3.036   0.956   0.164  0.1535 -0.0302 -0.1786
   67MOL   C18320115   2.915   0.874   0.113  0.1571  0.1358 -0.3661
   67MOL   C18420116   2.959   0.765   0.023  0.2075  0.1345  0.3853
   67MOL   O18520117   2.920   0.651   0.035  0.6536  0.1400  0.4001
   67MOL   O18620118   3.045   0.809   7.833  0.0081  0.0157 -0.0910
   67MOL   C18720119   3.105   0.712   7.746 -0.0462  0.2809 -0.2201
   67MOL   C18820120   3.026   0.706   7.613  0.2276 -0.3946 -0.2257
   67MOL   H18920121   3.044   1.050   0.109 -1.6126  1.6506  2.3464
   67MOL   H19020122   3.131   0.903   0.148 -0.0271 -0.6648  0.8138
   67MOL   H19120123   2.854   0.835   0.195 -0.8184  1.4929 -0.4251
   67MOL   H19220124   3.207   0.739   7.720 -0.5537  2.2678 -0.1623
   67MOL   H19320125   3.105   0.619   7.804  0.2328  0.4584  0.0665
   67MOL   H19420126   2.922   0.691   7.643 -0.0225  1.1035 -0.2718
   67MOL   H19520127   3.057   0.621   7.554  3.0942  1.0549 -0.8943
   67MOL   H19620128   3.017   0.795   7.551  0.4441 -0.0724  0.2001
   67MOL   C19720129   2.821   0.978   0.041 -0.2980  0.6626 -0.1463
   67MOL   C19820130   2.683   0.924   7.901 -0.6463  0.1772 -0.3192
   67MOL   C19920131   2.679   0.870   7.756  0.1424  0.0670  0.1680
   67MOL   O20020132   2.776   0.887   7.675  0.0193 -0.1224  0.4173
   67MOL   O20120133   2.564   0.808   7.726 -0.7559  0.4006 -0.7557
   67MOL   C20220134   2.538   0.761   7.594  0.9337  0.2170  0.6322
   67MOL   C20320135   2.630   0.652   7.545 -0.2455  0.4290 -0.2911
   67MOL   H20420136   2.802   1.052   0.119 -1.7016  0.5825 -0.4153
   67MOL   H20520137   2.880   1.026   7.871 -0.0709 -0.0231 -0.4023
   67MOL   H20620138   2.668   0.835   0.054 -1.6319  0.3445 -0.3101
   67MOL   H20720139   2.437   0.719   7.591  0.3361  1.5518  1.5435
   67MOL   H20820140   2.551   0.843   7.524 -1.7262 -0.4107 -0.6590
   67MOL   H20920141   2.633   0.567   7.613 -1.4229  2.0479  1.8540
   67MOL   H21020142   2.731   0.693   7.537 -0.4027  0.6459 -1.2627
   67MOL   H21120143   2.600   0.608   7.450  0.4949  1.5358 -1.0505
   67MOL   C21220144   2.565   1.016   0.025 -0.1607  0.2366 -0.6834
   67MOL   C21320145   2.561   1.149   7.853 -0.2441  0.1017  0.0664
   67MOL   C21420146   2.639   1.266   0.003 -0.2936 -0.2450  0.1031
   67MOL   O21520147   2.730   1.327   7.850 -0.0969  0.0590 -0.2800
   67MOL   O21620148   2.590   1.303   0.125 -0.1905  0.1789  0.0134
   67MOL   C21720149   2.649   1.416   0.184  0.3458  0.3511 -0.7552
   67MOL   C21820150   2.777   1.385   0.262 -0.4716 -0.0274 -0.1215
   67MOL   H21920151   2.474   0.958   0.011 -0.8343  0.2586  3.0246
   67MOL   H22020152   2.551   1.027   0.133  1.0514  0.8315 -0.5680
   67MOL   H22120153   2.619   1.130   7.762 -1.2005 -0.7849 -0.3694
   67MOL   H22220154   2.666   1.487   0.103 -1.6846  3.2052  1.2186
   67MOL   H22320155   2.580   1.476   0.244 -1.3693 -3.6397  1.3935
   67MOL   H22420156   2.750   1.309   0.335  0.5047  0.6438  0.9543
   67MOL   H22520157   2.805   1.476   0.315 -1.9344  0.2744  0.1514
   67MOL   H22620158   2.865   1.349   0.208 -2.2889 -0.3992 -2.9235
   67MOL   C22720159   2.413   1.187   7.815 -0.4894 -0.3131 -0.3300
   67MOL   C22820160   2.345   1.107   7.699  0.6197 -0.6979  0.0048
   67MOL   C22920161   2.415   1.128   7.560 -0.4908 -0.1006  0.2211
   67MOL   O23020162   2.385   1.062   7.461 -0.0410  0.5059 -0.2000
   67MOL   O23120163   2.520   1.211   7.567  0.6922  0.5774  0.1932
   67MOL   C23220164   2.585   1.256   7.444  0.4743  0.7189 -0.1611
   67MOL   C23320165   2.506   1.380   7.399  0.4001 -0.8461 -0.3445
   67MOL   H23420166   2.356   1.182   7.907  3.0350 -1.9593  1.8746
   67MOL   H23520167   2.414   1.290   7.779 -1.8540 -0.3948 -0.6236
   67MOL   H23620168   2.360   1.005   7.733  0.5096 -0.4533  0.8047
   67MOL   H23720169   2.689   1.278   7.468  1.8146 -2.8276 -2.2962
   67MOL   H23820170   2.582   1.178   7.368  0.4505  0.7799 -0.2224
   67MOL   H23920171   2.556   1.420   7.311  0.3435 -1.0152 -0.4539
   67MOL   H24020172   2.505   1.455   7.478 -0.8503 -2.5806  1.3432
   67MOL   H24120173   2.402   1.358   7.378 -0.4606  2.5422  0.1100
   67MOL   C24220174   2.193   1.134   7.688  0.4593 -0.1263 -0.4913
   67MOL   C24320175   2.108   1.018   7.624 -1.0390  0.3826 -0.1874
   67MOL   C24420176   2.026   1.072   7.502  0.1189  0.1730 -0.4681
   67MOL   O24520177   1.901   1.068   7.492  0.1585  0.2004 -0.0289
   67MOL   O24620178   2.104   1.122   7.411  0.1554  0.2689 -1.0263
   67MOL   C24720179   2.046   1.188   7.288 -0.5900 -0.1085 -0.6083
   67MOL   C24820180   1.965   1.315   7.313  0.0181  0.4781  0.2306
   67MOL   H24920181   2.159   1.152   7.790 -0.5749 -1.2342 -0.6309
   67MOL   H25020182   2.166   1.228   7.640 -1.5189 -0.7567 -0.6607
   67MOL   H25120183   2.179   0.947   7.581 -0.5524  2.0696 -2.2542
   67MOL   H25220184   2.126   1.216   7.219  0.5810 -0.2251  0.6839
   67MOL   H25320185   1.983   1.117   7.235 -0.0774  0.7260 -2.3791
   67MOL   H25420186   2.033   1.386   7.361  0.6337  0.3537 -0.4473
   67MOL   H25520187   1.879   1.301   7.378 -1.5812 -0.0867 -1.9184
   67MOL   H25620188   1.925   1.366   7.225 -0.3545  1.2215  0.8246
   67MOL   C25720189   2.004   0.953   7.721  0.1599 -0.1186 -1.0602
   67MOL   C25820190   2.073   0.890   7.843  0.0453 -0.2959  0.1883
   67MOL   C25920191   2.146   0.764   7.793  0.0196  0.3585  0.3999
   67MOL   O26020192   2.270   0.756   7.796  0.3231  0.1840  0.5232
   67MOL   O26120193   2.067   0.665   7.748 -0.4323  0.2673 -0.0405
   67MOL   C26220194   2.129   0.550   7.697  0.4195 -0.8708 -0.2751
   67MOL   C26320195   2.007   0.459   7.651 -0.5799  0.5826 -0.5126
   67MOL   H26420196   1.926   1.025   7.745  1.2259  0.6534  0.1307
   67MOL   H26520197   1.945   0.881   7.665 -0.3912  0.0190 -0.6611
   67MOL   H26620198   2.148   0.958   7.884  1.9011 -2.1663 -0.0098
   67MOL   H26720199   2.194   0.570   7.612 -0.1281 -1.9165 -0.9551
   67MOL   H26820200   2.176   0.490   7.775  0.4641 -0.1591  0.2550
   67MOL   H26920201   1.966   0.406   7.737  1.6580 -0.9605 -0.3479
   67MOL   H27020202   2.033   0.384   7.576  0.7786  0.5669 -0.0564
   67MOL   H27120203   1.931   0.518   7.600 -1.2744  1.0732  1.0593
   67MOL   C27220204   1.970   0.850   0.041 -0.5386  0.5515  0.1201
   67MOL   C27320205   1.896   0.963   0.121  0.1284 -0.6585  0.4007
   67MOL   C27420206   1.991   1.079   0.163  0.5007 -0.4174 -0.1441
   67MOL   O27520207   2.056   1.074   0.269 -0.5799  0.5872 -0.4398
   67MOL   O27620208   2.000   1.173   0.072  0.1584  0.7018  0.3683
   67MOL   C27720209   2.055   1.301   0.105  0.4451  0.5623  0.2363
   67MOL   C27820210   2.026   1.404   7.904  0.2477 -0.4283  0.1530
   67MOL   H27920211   1.898   0.776   0.007 -1.1462  1.2735 -0.1622
   67MOL   H28020212   2.028   0.802   0.121 -0.3495 -0.9269 -0.8942
   67MOL   H28120213   1.826   1.010   0.052 -0.3562 -0.9285  0.7045
   67MOL   H28220214   2.010   1.327   0.201 -2.1360  0.6567 -0.9604
   67MOL   H28320215   2.162   1.291   0.124  0.4401 -0.2351 -0.1624
   67MOL   H28420216   2.061   1.368   7.807  4.4727  1.7300  0.7454
   67MOL   H28520217   2.082   1.495   0.017 -2.5776  1.5469 -0.6375
   67MOL   H28620218   1.921   1.433   7.906  0.7747  1.6445 -1.1446
   67MOL   C28720219   1.811   0.899   0.238 -0.3399  0.0600  0.6568
   67MOL   C28820220   1.703   0.990   0.291 -0.1021  0.3556 -0.2878
   67MOL   C28920221   1.631   0.930   0.406  0.3539 -0.1111 -0.4275
   67MOL   O29020222   1.665   0.935   0.521 -0.1392  0.2422 -0.1394
   67MOL   O29120223   1.525   0.864   0.362  0.0782  0.1360 -0.0899
   67MOL   C29220224   1.447   0.787   0.451 -0.0787 -0.1654  0.3170
   67MOL   C29320225   1.319   0.768   0.372  0.2102 -0.2881  0.1134
   67MOL   H29420226   1.765   0.802   0.217  1.1078 -0.7245  1.0907
   67MOL   H29520227   1.888   0.894   0.314 -0.8493 -0.4738  1.1412
   67MOL   H29620228   1.724   1.092   0.323 -1.9887  0.7161 -0.1149
   67MOL   H29720229   1.493   0.697   0.494 -0.2510 -0.2672  0.2913
   67MOL   H29820230   1.427   0.838   0.545  2.0459  1.3388 -0.0086
   67MOL   H29920231   1.289   0.869   0.344  0.6423 -0.1862  0.0085
   67MOL   H30020232   1.246   0.722   0.438  0.0763  1.4225  1.1916
   67MOL   H30120233   1.327   0.694   0.293 -0.8465 -0.5345  0.2386
   67MOL   H30220234   1.621   0.996   0.220 -1.0545 -1.3900  0.6301
   68MOL     C120235   6.613   2.282   0.667 -0.2173  0.0782 -0.1244
   68MOL     C220236   6.714   2.402   0.689  0.3470  0.3775 -0.2418
   68MOL     C320237   6.655   2.542   0.700 -0.5989  0.0126 -0.3760
   68MOL     O420238   6.550   2.572   0.640 -0.0642  0.8314  0.2105
   68MOL     O520239   6.718   2.619   0.780 -0.3503  0.6269 -0.3742
   68MOL     C620240   6.660   2.744   0.809 -0.2965  0.0629 -0.2475
   68MOL     C720241   6.700   2.783   0.950  0.1591  0.1161 -0.4599
   68MOL     H820242   6.581   2.262   0.565 -0.9186 -0.5114  0.2083
   68MOL     H920243   6.523   2.296   0.727  0.1753  0.7840  0.3053
   68MOL    H1020244   6.752   2.398   0.791 -3.8434 -1.8618  1.3261
   68MOL    H1120245   6.700   2.813   0.735 -0.6611 -0.5586 -1.0303
   68MOL    H1220246   6.552   2.733   0.792 -0.1329 -1.3945 -0.3767
   68MOL    H1320247   6.699   2.888   0.980 -1.2308 -0.0701  0.1676
   68MOL    H1420248   6.803   2.754   0.975 -0.0606 -1.0352 -0.8483
   68MOL    H1520249   6.637   2.723   1.016  0.3567  0.2263 -0.1689
   68MOL    H1620250   6.662   2.194   0.709  3.8724  2.2610 -0.0582
   68MOL    C1720251   6.835   2.381   0.585 -0.1785  0.3688 -0.4107
   68MOL    C1820252   6.974   2.360   0.644 -0.4114  0.5549  0.2532
   68MOL    C1920253   7.005   2.464   0.756 -0.1817  0.1560 -0.2695
   68MOL    O2020254   6.997   2.441   0.876  0.3684 -0.0173  0.3422
   68MOL    O2120255   7.036   2.584   0.702  0.0506  0.2090  0.8226
   68MOL    C2220256   7.044   2.698   0.783  0.5390  0.2265  0.1946
   68MOL    C2320257   7.062   2.825   0.703 -0.4989  0.5653  0.0821
   68MOL    H2420258   6.808   2.294   0.526 -1.5384  0.3218  0.2533
   68MOL    H2520259   6.830   2.473   0.527  0.3053  0.8622  0.3238
   68MOL    H2620260   6.974   2.269   0.704  0.4005  0.8289  0.6682
   68MOL    H2720261   6.959   2.699   0.852  0.9644 -0.4997  0.7423
   68MOL    H2820262   7.134   2.674   0.840  0.7393  0.4688 -0.0200
   68MOL    H2920263   7.153   2.829   0.643  0.4389 -2.5108  1.2236
   68MOL    H3020264   7.063   2.912   0.769  1.6507  1.4809 -1.1086
   68MOL    H3120265   6.984   2.849   0.630 -1.2005 -2.2480 -0.1703
   68MOL    C3220266   7.090   2.341   0.547 -0.7307  0.1969  0.1929
   68MOL    C3320267   7.077   2.225   0.436 -0.0939 -0.0667  0.0895
   68MOL    C3420268   7.061   2.082   0.492 -0.0192 -1.2743  0.1586
   68MOL    O3520269   7.152   1.998   0.479  0.2459  0.2945  0.2226
   68MOL    O3620270   6.951   2.069   0.565 -0.2076 -0.1928 -0.2714
   68MOL    C3720271   6.910   1.945   0.607 -0.7912 -0.7795  0.0767
   68MOL    C3820272   6.762   1.947   0.632  0.1571  0.2225 -0.9325
   68MOL    H3920273   7.103   2.436   0.497 -0.3384  0.5212  0.8974
   68MOL    H4020274   7.180   2.317   0.604 -1.3941  0.7517  1.5105
   68MOL    H4120275   6.985   2.241   0.378  0.1744  0.8523 -0.0937
   68MOL    H4220276   6.936   1.875   0.528 -0.5424 -0.5287 -0.0617
   68MOL    H4320277   6.970   1.917   0.694  1.8925 -0.4840 -1.6364
   68MOL    H4420278   6.724   1.846   0.644  0.4356  0.2042 -0.1291
   68MOL    H4520279   6.708   2.006   0.558  0.6065 -0.0300 -1.4578
   68MOL    H4620280   6.744   1.990   0.731 -0.4130 -1.4016 -0.3204
   68MOL    C4720281   7.186   2.231   0.324  0.2288  0.2832  0.5899
   68MOL    C4820282   7.150   2.155   0.192 -0.0897  0.8239 -0.1607
   68MOL    C4920283   7.254   2.051   0.152 -0.5932 -0.8570  0.0855
   68MOL    O5020284   7.353   2.025   0.218  0.2074  0.0896 -0.2172
   68MOL    O5120285   7.218   1.994   0.034 -0.5819  0.5621  0.5913
   68MOL    C5220286   7.294   1.885   7.894  0.3674 -0.8608  0.3137
   68MOL    C5320287   7.221   1.827   7.771  0.4943  0.5188  0.3330
   68MOL    H5420288   7.209   2.336   0.309  1.4607 -0.0517  0.1406
   68MOL    H5520289   7.286   2.207   0.360 -0.1953 -2.3589  0.1140
   68MOL    H5620290   7.052   2.111   0.206 -0.7743  1.7513 -1.8400
   68MOL    H5720291   7.398   1.909   7.873  0.2377 -0.3928  0.2122
   68MOL    H5820292   7.301   1.798   0.052  1.1952 -0.0419  1.3198
   68MOL    H5920293   7.204   1.914   7.707 -2.1151  1.0315  1.6225
   68MOL    H6020294   7.122   1.791   7.801  0.5723  1.1042  1.2982
   68MOL    H6120295   7.278   1.744   7.731 -1.6520 -0.0177 -1.7715
   68MOL    C6220296   7.135   2.257   0.081 -0.0384 -0.5209  0.0047
   68MOL    C6320297   7.019   2.355   0.093  1.1577 -0.2596  0.4403
   68MOL    C6420298   6.881   2.289   0.080 -0.2111  0.2596  0.0844
   68MOL    O6520299   6.827   2.235   0.176 -0.6069  0.5520  0.7396
   68MOL    O6620300   6.844   2.268   7.862  0.7228 -0.6478 -0.1402
   68MOL    C6720301   6.723   2.194   7.832  0.2627 -0.3142 -0.3306
   68MOL    C6820302   6.735   2.131   7.692 -0.1754  0.0091  0.4554
   68MOL    H6920303   7.234   2.303   0.082 -1.6546  3.1920 -1.5665
   68MOL    H7020304   7.133   2.219   7.887  1.3089 -0.6555  0.0096
   68MOL    H7120305   7.032   2.402   0.190  1.7570  1.0860 -0.2716
   68MOL    H7220306   6.699   2.116   7.904 -1.3915  1.3743  0.9979
   68MOL    H7320307   6.636   2.259   7.840  1.9239  1.7988  1.4305
   68MOL    H7420308   6.638   2.097   7.656 -0.7734  1.3909  0.7181
   68MOL    H7520309   6.812   2.053   7.693 -0.6297 -0.4578 -0.7748
   68MOL    H7620310   6.775   2.202   7.620  0.7707 -1.0947 -0.1286
   68MOL    C7720311   7.037   2.472   7.903 -0.0836 -0.0406 -0.1590
   68MOL    C7820312   6.946   2.590   0.017 -0.0168  0.3910 -0.5366
   68MOL    C7920313   6.867   2.634   7.803 -0.3291 -0.4833  0.0607
   68MOL    O8020314   6.749   2.609   7.791  0.5244 -0.2735 -0.5715
   68MOL    O8120315   6.945   2.700   7.717  0.1472 -0.3891  0.0907
   68MOL    C8220316   6.883   2.738   7.596 -0.1950 -0.4381  1.1308
   68MOL    C8320317   6.911   2.646   7.476  0.1093  0.0423  0.0158
   68MOL    H8420318   7.135   2.520   7.896  0.4456 -1.0369  0.2219
   68MOL    H8520319   7.015   2.436   7.802 -3.0423  0.4999  0.2660
   68MOL    H8620320   6.869   2.552   0.083  0.9232  2.3298  1.7562
   68MOL    H8720321   6.777   2.750   7.615  0.1369  2.1812  1.5082
   68MOL    H8820322   6.926   2.837   7.580 -0.5012 -0.3578  0.7966
   68MOL    H8920323   6.873   2.693   7.385  2.5816 -0.5806 -1.3905
   68MOL    H9020324   6.862   2.550   7.487  0.5417 -0.1296  0.4608
   68MOL    H9120325   7.018   2.631   7.461  0.0654 -0.8180  0.4964
   68MOL    C9220326   7.008   2.709   0.093 -0.0575  0.5047  0.7797
   68MOL    C9320327   7.048   2.678   0.243  0.0479 -0.1622 -0.2889
   68MOL    C9420328   6.919   2.681   0.324  0.3838 -0.2001 -0.1071
   68MOL    O9520329   6.893   2.781   0.394  0.3411 -0.5997 -0.7583
   68MOL    O9620330   6.828   2.578   0.301  0.3324 -0.1962  0.0937
   68MOL    C9720331   6.694   2.602   0.322  0.5695  0.2372 -0.2455
   68MOL    C9820332   6.600   2.495   0.270 -0.0109 -0.2029 -0.5529
   68MOL    H9920333   7.100   2.732   0.039 -1.3098  0.8902 -1.2424
   68MOL   H10020334   6.943   2.796   0.081 -0.1718  0.1874 -1.1244
   68MOL   H10120335   7.098   2.581   0.254 -0.0470 -0.2752 -0.8533
   68MOL   H10220336   6.681   2.605   0.430 -2.5582  2.2754 -0.6241
   68MOL   H10320337   6.664   2.700   0.285  0.7992  0.8000  1.0449
   68MOL   H10420338   6.613   2.390   0.299 -2.6651 -0.9821 -1.9715
   68MOL   H10520339   6.618   2.503   0.162  0.3959  2.0108 -0.3369
   68MOL   H10620340   6.495   2.516   0.286 -0.1751 -0.1461 -1.6565
   68MOL   C10720341   7.160   2.776   0.302  0.7496  0.8830 -0.1238
   68MOL   C10820342   7.289   2.804   0.229 -1.0048  0.2778 -0.4139
   68MOL   C10920343   7.374   2.679   0.201 -0.3319  0.0292 -0.4367
   68MOL   O11020344   7.417   2.658   0.092 -0.8237 -0.0769  0.3281
   68MOL   O11120345   7.395   2.592   0.304  0.4451  0.0012 -0.0887
   68MOL   C11220346   7.462   2.469   0.310 -0.6381 -0.5349  0.9766
   68MOL   C11320347   7.461   2.415   0.452  1.2147  0.7513 -0.0644
   68MOL   H11420348   7.113   2.872   0.321 -0.5722  0.1275  0.5226
   68MOL   H11520349   7.176   2.754   0.408 -2.0073 -1.3258 -0.0770
   68MOL   H11620350   7.265   2.832   0.126 -0.9987  1.3999 -0.1226
   68MOL   H11720351   7.392   2.409   0.252  0.6969 -0.9391 -0.2507
   68MOL   H11820352   7.560   2.479   0.262 -0.7189  0.8635  1.0668
   68MOL   H11920353   7.508   2.317   0.459 -1.7575 -0.8855 -1.9536
   68MOL   H12020354   7.360   2.417   0.493  2.4329  0.8367  3.0139
   68MOL   H12120355   7.517   2.486   0.513 -1.0529  1.0517  1.7167
   68MOL   C12220356   7.379   2.909   0.299  0.1164  0.4062  0.2444
   68MOL   C12320357   7.327   3.050   0.324 -0.3538 -0.1705  0.1532
   68MOL   C12420358   7.268   3.112   0.198 -0.5145  0.2514 -0.4343
   68MOL   O12520359   7.342   3.145   0.104  0.2764 -1.0285  0.9108
   68MOL   O12620360   7.137   3.129   0.212 -0.0651 -0.2304  0.1198
   68MOL   C12720361   7.076   3.212   0.115  0.3394 -0.0531 -0.0844
   68MOL   C12820362   7.035   3.134   7.900  0.2599 -0.4125  0.3732
   68MOL   H12920363   7.401   2.869   0.398  0.4344 -1.1963 -0.4558
   68MOL   H13020364   7.470   2.912   0.238 -0.1487 -1.7609 -0.3045
   68MOL   H13120365   7.245   3.047   0.395 -0.8129 -0.3004 -0.3814
   68MOL   H13220366   6.994   3.276   0.149 -1.5146 -1.5402 -1.5931
   68MOL   H13320367   7.145   3.290   0.086  1.4344 -0.5896  1.0201
   68MOL   H13420368   7.000   3.200   7.821  0.4769  1.0084  1.4536
   68MOL   H13520369   6.948   3.071   0.012  0.9143 -0.6562  2.5523
   68MOL   H13620370   7.113   3.073   7.855  2.5158  1.3894  1.7618
   68MOL   C13720371   7.441   3.146   0.369  0.3232 -0.4367  0.9530
   68MOL   C13820372   7.481   3.141   0.522  0.0710  0.1133  0.4607
   68MOL   C13920373   7.358   3.126   0.615  1.4249 -0.7793  0.9184
   68MOL   O14020374   7.336   3.016   0.665  0.2365  0.2535  0.4072
   68MOL   O14120375   7.285   3.237   0.628 -0.1551  0.1911 -0.3877
   68MOL   C14220376   7.141   3.230   0.674  0.3811 -0.4154  0.2878
   68MOL   C14320377   7.051   3.205   0.553 -0.7118  0.8360  0.0781
   68MOL   H14420378   7.531   3.120   0.314  0.3548  1.0765  0.2829
   68MOL   H14520379   7.425   3.252   0.350  1.6812 -0.2151  1.0204
   68MOL   H14620380   7.538   3.050   0.538 -0.7097 -0.6972 -1.1829
   68MOL   H14720381   7.135   3.150   0.748  1.8740 -0.7422  0.0717
   68MOL   H14820382   7.103   3.321   0.722  1.3309 -0.5302  1.2858
   68MOL   H14920383   6.950   3.194   0.592 -0.2141  1.8797  1.7060
   68MOL   H15020384   7.083   3.111   0.507 -0.5763  1.4552 -1.0946
   68MOL   H15120385   7.063   3.282   0.478  3.2768 -1.7939 -2.1420
   68MOL   C15220386   7.572   3.267   0.544  0.8668 -0.3399  0.0034
   68MOL   C15320387   7.677   3.258   0.659 -0.3555  0.1042 -0.0259
   68MOL   C15420388   7.613   3.255   0.799  0.5264  0.1419  0.2817
   68MOL   O15520389   7.645   3.176   0.889 -0.0819  0.0832  0.1384
   68MOL   O15620390   7.529   3.359   0.823  0.7667 -0.1626 -0.0077
   68MOL   C15720391   7.430   3.352   0.926  0.0912  0.2306 -0.0339
   68MOL   C15820392   7.367   3.491   0.962  0.8604  0.4489  0.0717
   68MOL   H15920393   7.627   3.289   0.453  1.1941 -0.8486  0.0752
   68MOL   H16020394   7.507   3.353   0.559  2.1490  0.7993 -0.8381
   68MOL   H16120395   7.707   3.154   0.648 -1.0175  0.0336 -1.1966
   68MOL   H16220396   7.357   3.277   0.895 -0.2409  1.2491 -1.7932
   68MOL   H16320397   7.478   3.314   1.016 -0.5022  0.0193  0.1920
   68MOL   H16420398   7.294   3.520   0.887  1.1072  0.1708 -0.2821
   68MOL   H16520399   7.439   3.572   0.971 -1.3219  2.3707  0.5698
   68MOL   H16620400   7.311   3.467   1.052  2.2733  1.0768  1.1435
   68MOL   C16720401   7.793   3.362   0.644  0.7349 -0.1464  0.1355
   68MOL   C16820402   0.013   3.305   0.573 -0.0260 -0.8130 -0.2725
   68MOL   C16920403   0.088   3.215   0.667 -0.0841 -0.5359 -0.1874
   68MOL   O17020404   0.147   3.258   0.767 -0.0183 -0.4422  0.2598
   68MOL   O17120405   0.080   3.088   0.625 -0.5116 -0.5206  0.1692
   68MOL   C17220406   0.155   2.980   0.674  0.1323  0.2825  0.5206
   68MOL   C17320407   0.068   2.903   0.776 -0.7126 -0.2471  0.2670
   68MOL   H17420408   7.756   3.447   0.587 -3.6487  0.6314  3.9542
   68MOL   H17520409   7.830   3.401   0.738 -0.9395  1.2388  0.2390
   68MOL   H17620410   7.872   3.237   0.503 -0.8959  1.2042 -1.6517
   68MOL   H17720411   0.175   2.918   0.586 -1.9650 -1.3667  1.1839
   68MOL   H17820412   0.252   3.013   0.710  1.0355  0.0665 -1.6096
   68MOL   H17920413   0.043   2.969   0.859  1.3343  2.1730 -0.9707
   68MOL   H18020414   0.119   2.813   0.811 -0.6242 -0.6127 -0.7870
   68MOL   H18120415   7.876   2.878   0.744 -1.5978  1.5298  1.5221
   68MOL   C18220416   0.101   3.416   0.496 -0.2200  0.4772 -0.7164
   68MOL   C18320417   0.221   3.349   0.407  0.1832  0.5225  0.1468
   68MOL   C18420418   0.362   3.362   0.470  0.2962  0.1534  0.4813
   68MOL   O18520419   0.429   3.269   0.507  0.4953  0.1344 -0.1520
   68MOL   O18620420   0.397   3.492   0.474  0.0400  0.2805  0.2307
   68MOL   C18720421   0.515   3.530   0.538  0.1741 -0.1954  0.9671
   68MOL   C18820422   0.534   3.679   0.526 -0.6309 -0.4358  0.4959
   68MOL   H18920423   0.042   3.467   0.420 -1.0152  2.5595  1.2350
   68MOL   H19020424   0.149   3.490   0.561 -0.0080  0.0631 -0.4031
   68MOL   H19120425   0.197   3.243   0.403  0.1731  0.4142  2.6031
   68MOL   H19220426   0.517   3.490   0.640  0.2440 -2.7956 -0.0105
   68MOL   H19320427   0.598   3.485   0.484 -1.4845 -0.9172 -1.0423
   68MOL   H19420428   0.465   3.728   0.594  1.9985 -1.1272  3.8006
   68MOL   H19520429   0.525   3.711   0.422 -1.3000  1.6279  1.1683
   68MOL   H19620430   0.637   3.705   0.552 -0.4051 -0.5221 -0.3037
   68MOL   C19720431   0.220   3.395   0.256 -0.7177  0.1018 -0.4015
   68MOL   C19820432   0.283   3.304   0.152  0.7740  0.0256 -0.0180
   68MOL   C19920433   0.434   3.331   0.129 -0.7633 -0.5761  0.5389
   68MOL   O20020434   0.507   3.236   0.115  0.2344 -0.1138  0.5168
   68MOL   O20120435   0.479   3.463   0.113  0.8716  0.2568 -0.0082
   68MOL   C20220436   0.610   3.490   0.083  0.1500  0.5953  0.1677
   68MOL   C20320437   0.643   3.627   0.139 -0.1992  0.4453  0.4099
   68MOL   H20420438   0.121   3.410   0.214 -0.2459  1.1726 -1.1799
   68MOL   H20520439   0.268   3.493   0.254  2.3884 -1.2647  2.1666
   68MOL   H20620440   0.271   3.199   0.180 -0.4333  1.0513  3.5197
   68MOL   H20720441   0.673   3.416   0.133  1.2755 -0.4486 -2.7114
   68MOL   H20820442   0.618   3.486   7.883  0.4645 -1.6112  0.2551
   68MOL   H20920443   0.624   3.704   0.063  0.2239 -0.7190 -0.8996
   68MOL   H21020444   0.752   3.633   0.146 -0.2869  1.0509  1.3718
   68MOL   H21120445   0.600   3.650   0.236  1.3778  3.0331  0.5442
   68MOL   C21220446   0.206   3.303   0.014  0.0129 -0.8128  0.1677
   68MOL   C21320447   0.098   3.187   0.004 -0.5354 -0.0738  0.4822
   68MOL   C21420448   7.893   3.207   0.102 -1.0241  0.3124 -0.0775
   68MOL   O21520449   7.866   3.127   0.192 -0.6382 -0.1478  0.0265
   68MOL   O21620450   7.829   3.319   0.081 -0.2475  0.2207 -0.6444
   68MOL   C21720451   7.715   3.357   0.157  0.2004 -0.6070  0.0357
   68MOL   C21820452   7.583   3.344   0.077  0.1741 -0.5952 -0.7853
   68MOL   H21920453   0.161   3.401   7.905  1.0812 -0.4119 -0.3957
   68MOL   H22020454   0.276   3.302   7.839  2.6176  0.2281  2.2876
   68MOL   H22120455   0.054   3.207   7.815  0.3220  0.8598  0.2789
   68MOL   H22220456   7.716   3.309   0.255 -0.8252 -1.1312 -0.2134
   68MOL   H22320457   7.722   3.465   0.169  2.2668 -1.0632  3.9677
   68MOL   H22420458   7.503   3.385   0.138  0.7570  1.7022 -1.4815
   68MOL   H22520459   7.573   3.237   0.063  0.3578 -0.5131 -1.6032
   68MOL   H22620460   7.587   3.390   7.886  0.0149 -0.6244 -0.8044
   68MOL   C22720461   0.137   3.042   7.903 -0.8116 -0.0399  0.7919
   68MOL   C22820462   0.251   2.998   7.804 -0.4343 -0.2588  0.1264
   68MOL   C22920463   0.212   3.048   7.663 -0.7051 -0.1499 -0.3863
   68MOL   O23020464   0.263   3.152   7.626 -0.2963  0.5736  0.1396
   68MOL   O23120465   0.121   2.972   7.600  0.4548  0.3011  0.0633
   68MOL   C23220466   0.059   3.012   7.484  0.0502  0.1777  0.0951
   68MOL   C23320467   0.135   2.974   7.360  0.1629 -0.9897  0.3625
   68MOL   H23420468   0.178   3.006   0.089  1.7706  0.3441 -0.1314
   68MOL   H23520469   0.048   2.988   7.870 -0.4059 -0.1440 -0.1556
   68MOL   H23620470   0.339   3.057   7.831  0.5862 -2.3828  1.6268
   68MOL   H23720471   7.865   2.976   7.471 -0.5917  2.2352 -0.8821
   68MOL   H23820472   0.043   3.120   7.488 -1.6786 -0.1028  2.2250
   68MOL   H23920473   0.243   2.978   7.378  0.1621  0.6759  0.0679
   68MOL   H24020474   0.111   3.037   7.274 -2.2495 -0.7865  1.1711
   68MOL   H24120475   0.113   2.868   7.344 -0.7391 -0.6119 -1.0083
   68MOL   C24220476   0.293   2.845   7.802 -0.1368 -0.6970  0.5568
   68MOL   C24320477   0.432   2.826   7.729  0.5570 -0.1595 -0.3565
   68MOL   C24420478   0.438   2.687   7.671 -0.3287  0.4853 -0.3137
   68MOL   O24520479   0.446   2.671   7.548  0.4777  0.3980 -0.1210
   68MOL   O24620480   0.439   2.593   7.770  0.2783  0.0805 -0.1942
   68MOL   C24720481   0.421   2.461   7.726 -0.1714 -0.0280 -0.3531
   68MOL   C24820482   0.391   2.356   7.840  0.1697  0.2717  0.1984
   68MOL   H24920483   0.309   2.815   7.906  0.6863  0.1978  0.6989
   68MOL   H25020484   0.217   2.776   7.767  0.7439 -0.6474 -1.5271
   68MOL   H25120485   0.437   2.888   7.640 -0.7266  0.6934  0.1469
   68MOL   H25220486   0.337   2.447   7.658 -0.4192  1.9560 -0.4852
   68MOL   H25320487   0.508   2.433   7.666 -1.3697 -1.5995 -1.3891
   68MOL   H25420488   0.296   2.370   7.891  0.1871  2.9346 -0.4135
   68MOL   H25520489   0.471   2.337   0.003 -0.2305 -1.1960  0.2648
   68MOL   H25620490   0.394   2.263   7.784  1.1494 -0.1203  0.8876
   68MOL   C25720491   0.557   2.857   7.818 -0.3119 -0.5435 -0.3888
   68MOL   C25820492   0.695   2.858   7.747  0.4165  0.2147  0.7397
   68MOL   C25920493   0.813   2.820   7.836 -0.6041 -0.1606 -0.2562
   68MOL   O26020494   0.903   2.743   7.800  0.2521 -0.1460  0.3531
   68MOL   O26120495   0.803   2.886   0.045 -0.1942 -0.6130  0.5785
   68MOL   C26220496   0.892   2.851   0.153  0.5737 -0.2385 -0.1343
   68MOL   C26320497   1.019   2.925   0.165  0.3222  0.2579  0.1578
   68MOL   H26420498   0.546   2.956   7.862 -2.4747 -1.0167  0.2085
   68MOL   H26520499   0.570   2.784   7.898  1.0246  1.4978  1.3145
   68MOL   H26620500   0.695   2.775   7.676  2.5477  0.0191  0.9553
   68MOL   H26720501   0.840   2.880   0.245  1.2355 -1.2053  0.5519
   68MOL   H26820502   0.916   2.745   0.155  1.2513 -0.0952 -0.6590
   68MOL   H26920503   1.005   3.031   0.183  2.4703  0.6114 -0.1519
   68MOL   H27020504   1.083   2.902   0.080 -2.2029 -2.6389 -1.0709
   68MOL   H27120505   1.067   2.880   0.252 -0.9995  0.4774  1.0067
   68MOL   C27220506   0.723   2.988   7.662  0.3788  0.0297 -0.6602
   68MOL   C27320507   0.861   2.990   7.591 -0.1278 -0.1630  0.3721
   68MOL   C27420508   0.885   3.128   7.520 -0.0635 -1.1129 -1.5232
   68MOL   O27520509   0.793   3.212   7.503 -0.2087  0.3620  0.1664
   68MOL   O27620510   1.015   3.145   7.482  0.4809  0.0935 -0.1547
   68MOL   C27720511   1.047   3.258   7.400  0.6161 -0.7824 -0.2133
   68MOL   C27820512   1.191   3.308   7.420  0.0923  0.5530  0.4997
   68MOL   H27920513   0.635   3.011   7.602  0.6586 -1.0070 -1.4903
   68MOL   H28020514   0.707   3.074   7.725 -2.5387  0.3263 -1.7361
   68MOL   H28120515   0.930   2.987   7.676  2.4098 -0.7917 -1.6513
   68MOL   H28220516   1.038   3.243   7.292 -0.6937  1.4150 -0.4396
   68MOL   H28320517   0.983   3.343   7.423  0.1267 -0.8061 -1.4679
   68MOL   H28420518   1.226   3.364   7.334  2.4750 -0.4707  0.7601
   68MOL   H28520519   1.246   3.214   7.429  0.4436  0.8049  1.0202
   68MOL   H28620520   1.198   3.362   7.514 -3.4387  2.0871 -0.0296
   68MOL   C28720521   0.889   2.876   7.495 -0.3982  0.0445 -0.3947
   68MOL   C28820522   0.788   2.880   7.374 -0.0872 -0.3848 -0.1043
   68MOL   C28920523   0.801   2.784   7.257  0.5201  0.1549  0.1697
   68MOL   O29020524   0.794   2.821   7.139  0.3017  0.3438 -0.4491
   68MOL   O29120525   0.824   2.651   7.300  0.2907 -0.2711  0.0574
   68MOL   C29220526   0.828   2.529   7.215 -0.1456  0.9613  0.5326
   68MOL   C29320527   0.711   2.436   7.251  0.0942  0.3416 -0.2630
   68MOL   H29420528   0.994   2.868   7.468 -0.0737 -0.4375  0.9632
   68MOL   H29520529   0.886   2.785   7.555 -1.5165  0.3171 -0.0149
   68MOL   H29620530   0.693   2.845   7.415 -1.3645  0.4543 -2.2377
   68MOL   H29720531   0.819   2.552   7.109  1.5919 -1.7674 -0.2707
   68MOL   H29820532   0.927   2.484   7.225 -0.3168  0.1554 -1.2254
   68MOL   H29920533   0.627   2.443   7.182 -0.4369 -1.3330  0.2060
   68MOL   H30020534   0.674   2.454   7.352  3.0698 -1.9675  1.3197
   68MOL   H30120535   0.731   2.329   7.246 -3.8023 -0.7149  3.1200
   68MOL   H30220536   0.775   2.980   7.331 -1.2589 -1.2667 -1.8919
   69MOL     C120537   2.856   3.050   1.541  0.5206 -0.3405  0.5058
   69MOL     C220538   2.714   3.110   1.538 -0.5723  0.8707 -0.2020
   69MOL     C320539   2.617   2.996   1.566  0.2479 -0.0034  0.3249
   69MOL     O420540   2.517   2.976   1.495  0.3105  0.9724  0.0458
   69MOL     O520541   2.639   2.937   1.689 -0.3831 -0.0120 -0.2315
   69MOL     C620542   2.542   2.837   1.738 -0.5422 -0.2520  0.1688
   69MOL     C720543   2.434   2.908   1.822  0.6535 -0.0328  1.2065
   69MOL     H820544   2.926   3.129   1.570 -1.2277  1.4501 -0.0288
   69MOL     H920545   2.890   3.011   1.445  1.5198 -1.9064  1.4963
   69MOL    H1020546   2.714   3.178   1.624  3.7708  1.1200 -0.3211
   69MOL    H1120547   2.512   2.757   1.670 -0.8395  0.4583 -0.5507
   69MOL    H1220548   2.607   2.779   1.804 -0.7522  1.5600  2.0094
   69MOL    H1320549   2.360   2.839   1.864  0.1169 -0.4995 -0.4564
   69MOL    H1420550   2.366   2.971   1.764  2.3875  0.1595 -0.6594
   69MOL    H1520551   2.489   2.965   1.896  0.4344 -2.7339  3.5806
   69MOL    H1620552   2.880   2.970   1.610  0.1989 -1.2018 -0.3677
   69MOL    C1720553   2.688   3.205   1.414 -0.1143  0.7259  0.5488
   69MOL    C1820554   2.625   3.340   1.452  0.5816  0.1349  0.0568
   69MOL    C1920555   2.478   3.320   1.487  0.1644 -0.6743 -0.2364
   69MOL    O2020556   2.433   3.343   1.598 -0.4152  0.5216 -0.5737
   69MOL    O2120557   2.412   3.278   1.379 -0.3599  0.2427  0.0169
   69MOL    C2220558   2.277   3.265   1.385  0.4752 -0.1916  0.4133
   69MOL    C2320559   2.233   3.238   1.242  0.0999 -0.2749  0.5256
   69MOL    H2420560   2.789   3.223   1.378 -1.0083  0.9187 -2.0269
   69MOL    H2520561   2.637   3.162   1.327  1.0684  0.9770 -0.2847
   69MOL    H2620562   2.674   3.383   1.540 -0.0677  1.5646 -0.2574
   69MOL    H2720563   2.258   3.182   1.453  2.8449 -1.6478 -0.6196
   69MOL    H2820564   2.236   3.356   1.427 -0.3405  0.6154 -2.0530
   69MOL    H2920565   2.144   3.176   1.238 -0.6555  0.8293 -0.1561
   69MOL    H3020566   2.313   3.201   1.177  1.0221  1.1256  0.8366
   69MOL    H3120567   2.195   3.328   1.193 -4.5415 -1.7105  1.2497
   69MOL    C3220568   2.632   3.456   1.341  0.9286  0.0466 -0.3147
   69MOL    C3320569   2.623   3.612   1.375  0.2220  0.3875 -0.0036
   69MOL    C3420570   2.475   3.655   1.410 -0.3153  0.0906 -0.5574
   69MOL    O3520571   2.402   3.699   1.326 -0.2411  0.1995  0.0720
   69MOL    O3620572   2.435   3.627   1.541 -0.0248 -0.6021  0.9123
   69MOL    C3720573   2.299   3.648   1.572 -0.5805  0.4619  1.0731
   69MOL    C3820574   2.276   3.784   1.639  0.1696 -0.3468 -0.4365
   69MOL    H3920575   2.730   3.437   1.298  0.7744 -1.2048 -0.1201
   69MOL    H4020576   2.563   3.436   1.259 -0.2634  0.4638  0.5652
   69MOL    H4120577   2.671   3.630   1.471  0.7993 -1.7845  0.1348
   69MOL    H4220578   2.238   3.648   1.482  1.7392  2.2965 -0.5758
   69MOL    H4320579   2.258   3.573   1.639  2.2942 -0.5928  1.7048
   69MOL    H4420580   2.176   3.822   1.660  0.7986  0.9513  0.2788
   69MOL    H4520581   2.314   3.858   1.569 -0.5358  0.0863 -0.3771
   69MOL    H4620582   2.343   3.801   1.724 -0.4948  0.3252 -0.0381
   69MOL    C4720583   2.676   3.701   1.263  0.1999 -0.0086  0.0978
   69MOL    C4820584   2.830   3.707   1.258 -0.0396  0.5742  0.4912
   69MOL    C4920585   2.900   3.747   1.389 -0.7054 -0.2952 -0.1066
   69MOL    O5020586   3.010   3.699   1.423 -0.2482  0.2718 -1.1273
   69MOL    O5120587   2.838   3.850   1.457 -0.1897 -0.2785  0.3905
   69MOL    C5220588   2.866   3.877   1.593  0.2101 -0.4828 -0.1268
   69MOL    C5320589   2.759   3.972   1.650 -0.5155 -0.5348 -0.0697
   69MOL    H5420590   2.631   3.662   1.171  0.3625 -0.9885  0.4302
   69MOL    H5520591   2.633   3.799   1.278  0.1663  0.1674 -1.1253
   69MOL    H5620592   2.849   3.600   1.244  0.2946  0.7070 -0.1128
   69MOL    H5720593   2.846   3.787   1.651 -1.5164 -0.1356 -0.1348
   69MOL    H5820594   2.969   3.912   1.602 -0.2063  0.7657 -0.1408
   69MOL    H5920595   2.791   3.991   1.752 -0.1571  0.1813 -0.3146
   69MOL    H6020596   2.664   3.918   1.656 -0.0042 -1.5838 -1.2325
   69MOL    H6120597   2.758   4.052   1.576  0.0589 -1.6222 -1.2898
   69MOL    C6220598   2.888   3.776   1.131  0.1110 -0.0315  0.1217
   69MOL    C6320599   3.036   3.745   1.091 -0.5948 -0.3285  0.2771
   69MOL    C6420600   3.078   3.597   1.077 -0.3768  0.2112  0.3444
   69MOL    O6520601   2.998   3.504   1.065  0.0543  0.0852  0.0143
   69MOL    O6620602   3.210   3.584   1.084  0.0111 -0.0467 -0.0555
   69MOL    C6720603   3.285   3.467   1.050 -0.0440 -0.6757  0.9469
   69MOL    C6820604   3.424   3.468   1.114 -0.2219 -0.4431 -0.5935
   69MOL    H6920605   2.827   3.745   1.045  0.9407 -2.4221  0.3559
   69MOL    H7020606   2.864   3.882   1.132 -2.3744 -0.5340 -1.3578
   69MOL    H7120607   3.056   3.792   0.995 -1.3000  0.6008  0.5811
   69MOL    H7220608   3.244   3.371   1.081 -1.3587  0.0392  1.4548
   69MOL    H7320609   3.298   3.474   0.942  1.2288  0.9149  1.1745
   69MOL    H7420610   3.488   3.397   1.063 -2.2797 -1.2632 -2.1416
   69MOL    H7520611   3.425   3.447   1.221  1.6535 -2.5765 -1.0039
   69MOL    H7620612   3.478   3.562   1.116  1.2954 -1.2869 -1.2245
   69MOL    C7720613   3.135   3.832   1.180 -0.2974  0.1879  0.3768
   69MOL    C7820614   3.251   3.903   1.100  0.2169 -0.0282  0.1079
   69MOL    C7920615   3.382   3.894   1.175  0.5696 -1.0575  0.1223
   69MOL    O8020616   3.397   3.908   1.295  0.0522  0.4076  0.2818
   69MOL    O8120617   3.478   3.895   1.082 -0.1004  0.1507  0.0865
   69MOL    C8220618   3.613   3.901   1.123  0.5399  0.2053 -0.2982
   69MOL    C8320619   3.678   3.758   1.125 -0.7397  0.1510 -0.0082
   69MOL    H8420620   3.072   3.909   1.224  0.7895  1.6144 -0.4941
   69MOL    H8520621   3.168   3.768   1.261  0.8297  1.0448  0.6203
   69MOL    H8620622   3.270   3.842   1.012  2.1057  0.3094  0.2594
   69MOL    H8720623   3.668   3.953   1.045  1.1090  2.0731  1.3026
   69MOL    H8820624   3.633   3.968   1.207  0.8260 -1.5743  1.0895
   69MOL    H8920625   3.653   3.703   1.216  1.9146  0.6665  1.0757
   69MOL    H9020626   3.785   3.768   1.143 -0.5533  0.1968 -1.1540
   69MOL    H9120627   3.659   3.697   1.037 -1.8996  0.7575 -0.1857
   69MOL    C9220628   3.215   4.050   1.065 -0.2166  0.3049  0.0148
   69MOL    C9320629   3.111   4.076   0.950 -0.8498 -0.4472  0.4155
   69MOL    C9420630   3.163   4.032   0.811 -0.3240 -0.2430 -0.0523
   69MOL    O9520631   3.194   4.117   0.728 -0.1455 -0.1494  0.7705
   69MOL    O9620632   3.151   3.898   0.784  0.3426  0.4453  0.0749
   69MOL    C9720633   3.181   3.849   0.656 -0.0087  0.1158  0.2047
   69MOL    C9820634   3.237   3.706   0.667  0.3835 -0.7106 -0.4744
   69MOL    H9920635   3.193   4.095   1.163 -2.5218 -1.4030  0.3180
   69MOL   H10020636   3.306   4.098   1.028 -0.9553  2.6510  1.1232
   69MOL   H10120637   3.022   4.018   0.971  0.1182 -2.4533 -0.8678
   69MOL   H10220638   3.085   3.851   0.605  0.9529  0.8888 -1.5961
   69MOL   H10320639   3.248   3.910   0.596 -1.7856  1.2553 -0.6624
   69MOL   H10420640   3.175   3.642   0.730 -1.2120  0.6572 -0.6123
   69MOL   H10520641   3.337   3.711   0.709 -0.0324 -0.3653  0.4849
   69MOL   H10620642   3.249   3.661   0.569  3.7437 -1.5299  0.2569
   69MOL   C10720643   3.082   4.233   0.933  0.2569 -0.5539 -0.1735
   69MOL   C10820644   2.999   4.288   1.053  0.7556 -0.4879  0.8607
   69MOL   C10920645   2.856   4.234   1.037 -0.0490 -0.3689  0.2896
   69MOL   O11020646   2.808   4.150   1.116 -0.1294  0.4335  0.0371
   69MOL   O11120647   2.794   4.285   0.929 -0.2044  0.4543 -0.1847
   69MOL   C11220648   2.664   4.255   0.890  0.2601 -0.1105 -0.4235
   69MOL   C11320649   2.556   4.362   0.935 -0.6742  0.1791 -0.0098
   69MOL   H11420650   3.174   4.292   0.933 -1.5394  2.3984  2.9872
   69MOL   H11520651   3.019   4.241   0.845 -2.0953 -1.0777  1.4216
   69MOL   H11620652   3.037   4.240   1.143  1.5577 -2.2220 -0.3573
   69MOL   H11720653   2.675   4.248   0.782 -0.2762 -2.9283 -0.3423
   69MOL   H11820654   2.623   4.158   0.918 -2.7693  1.1818 -0.1959
   69MOL   H11920655   2.466   4.353   0.875 -1.1846 -0.7523  0.8725
   69MOL   H12020656   2.593   4.463   0.952  0.8078 -0.3049 -0.2516
   69MOL   H12120657   2.519   4.347   1.037 -0.0447 -1.1149  0.0526
   69MOL   C12220658   3.014   4.440   1.069  0.8180 -0.1038  0.2994
   69MOL   C12320659   2.947   4.511   1.188 -0.4022  0.9268  0.1526
   69MOL   C12420660   2.999   4.453   1.330  0.2427 -0.6051 -0.3283
   69MOL   O12520661   3.084   4.508   1.393  0.3117 -0.1806 -0.0908
   69MOL   O12620662   2.930   4.341   1.363 -0.1603  0.1862  0.7957
   69MOL   C12720663   2.977   4.262   1.471  0.3303 -0.6948  0.0291
   69MOL   C12820664   3.084   4.166   1.422 -0.0299  0.5630 -0.2388
   69MOL   H12920665   3.121   4.459   1.071  0.3061  3.0298  0.3530
   69MOL   H13020666   2.973   4.504   0.992 -0.4816 -2.2284 -0.8193
   69MOL   H13120667   2.992   4.610   1.181  0.1093  0.6661 -0.3335
   69MOL   H13220668   3.006   4.320   1.558 -1.9008 -1.3836  1.2916
   69MOL   H13320669   2.884   4.209   1.496  0.4582 -0.9503 -0.0323
   69MOL   H13420670   3.043   4.096   1.349  0.4129 -1.4252  1.3606
   69MOL   H13520671   3.121   4.113   1.510  2.2179 -0.6687 -1.8822
   69MOL   H13620672   3.165   4.217   1.371  0.8286 -0.7323 -0.1794
   69MOL   C13720673   2.793   4.518   1.179  0.4734  0.0935  0.1182
   69MOL   C13820674   2.721   4.615   1.276  0.0143  0.2703  0.1181
   69MOL   C13920675   2.566   4.594   1.283 -0.0888  1.4197 -0.0170
   69MOL   O14020676   2.508   4.536   1.196 -0.0039 -0.4471  0.0052
   69MOL   O14120677   2.513   4.633   1.397 -0.4145 -0.5290  0.5704
   69MOL   C14220678   2.375   4.637   1.412  0.0651 -0.6767  0.4402
   69MOL   C14320679   2.350   4.699   1.557 -0.2129  0.4784  0.0232
   69MOL   H14420680   2.770   4.557   1.080  1.0627 -0.5688 -0.2754
   69MOL   H14520681   2.752   4.417   1.189  1.8141 -0.5407 -0.7341
   69MOL   H14620682   2.750   4.576   1.374 -0.9185  1.0606  0.7228
   69MOL   H14720683   2.321   4.693   1.336  0.9880  0.3965  0.5658
   69MOL   H14820684   2.328   4.539   1.397 -3.1406  0.5548  1.8774
   69MOL   H14920685   2.413   4.649   1.630  0.0776 -0.9012 -1.1409
   69MOL   H15020686   2.254   4.686   1.605  0.3083 -0.7262  0.7618
   69MOL   H15120687   2.368   4.806   1.559 -1.3513  0.6704 -0.1031
   69MOL   C15220688   2.775   4.760   1.259  0.2194  0.7213 -0.4251
   69MOL   C15320689   2.707   4.875   1.322  0.4439 -0.7928 -0.1684
   69MOL   C15420690   2.741   5.007   1.254 -0.4037 -0.3473  0.0401
   69MOL   O15520691   2.850   5.063   1.277 -0.0788 -0.0174 -0.2041
   69MOL   O15620692   2.644   5.058   1.169  0.4877  0.6135 -0.0137
   69MOL   C15720693   2.681   5.171   1.093  0.4036 -0.2243  0.4669
   69MOL   C15820694   2.548   5.251   1.062 -0.1906 -0.1268  0.3032
   69MOL   H15920695   2.878   4.763   1.295  0.5187  1.2269 -1.3198
   69MOL   H16020696   2.784   4.779   1.152 -0.3849 -1.7140 -0.9288
   69MOL   H16120697   2.600   4.870   1.301  0.7415 -0.9179 -1.7409
   69MOL   H16220698   2.747   5.241   1.145  1.9986 -1.9050  0.7382
   69MOL   H16320699   2.735   5.140   1.003 -0.3540  1.8777 -0.7598
   69MOL   H16420700   2.568   5.335   0.996 -0.8671  0.9256  1.4023
   69MOL   H16520701   2.495   5.299   1.145  0.1528  3.0838 -1.2210
   69MOL   H16620702   2.475   5.191   1.009  0.4221  0.2259 -0.9443
   69MOL   C16720703   2.713   4.886   1.477 -0.2620 -0.3047  0.2606
   69MOL   C16820704   2.846   4.921   1.551 -0.2065  0.6568 -0.0899
   69MOL   C16920705   2.936   4.793   1.578 -0.0626 -0.2402 -0.0871
   69MOL   O17020706   2.883   4.683   1.588 -0.2059 -0.7832 -0.2099
   69MOL   O17120707   3.073   4.823   1.577  0.3734  0.1366 -0.0564
   69MOL   C17220708   3.165   4.728   1.613 -0.7552  0.8581 -0.4178
   69MOL   C17320709   3.230   4.762   1.752 -0.1433  1.0677 -0.2287
   69MOL   H17420710   2.637   4.961   1.498 -0.7828 -0.8434  0.3295
   69MOL   H17520711   2.673   4.794   1.521 -0.1280 -0.4868  0.0069
   69MOL   H17620712   2.914   4.970   1.481 -2.1447  2.2624 -0.8729
   69MOL   H17720713   3.127   4.627   1.626  0.2092  0.1740 -2.6142
   69MOL   H17820714   3.229   4.707   1.527 -0.4390  1.1985 -0.2667
   69MOL   H17920715   3.326   4.710   1.754  0.0067  1.3230 -0.6151
   69MOL   H18020716   3.160   4.747   1.834  0.3027 -2.0655 -0.3888
   69MOL   H18120717   3.263   4.866   1.760  1.4196  0.6352 -0.9489
   69MOL   C18220718   2.829   5.022   1.665  0.9671  0.2950 -0.8231
   69MOL   C18320719   2.757   4.962   1.790  0.4369 -0.0585  0.1025
   69MOL   C18420720   2.668   5.065   1.854 -0.5097 -0.0148 -0.1310
   69MOL   O18520721   2.680   5.104   1.969  0.2318 -0.1537 -0.3545
   69MOL   O18620722   2.581   5.114   1.764 -0.4886  0.7858  0.4773
   69MOL   C18720723   2.465   5.170   1.803  0.4093 -0.0740  0.2144
   69MOL   C18820724   2.391   5.199   1.665 -0.5350  0.2384 -0.1252
   69MOL   H18920725   2.931   5.048   1.696  0.2454  1.2888  0.8111
   69MOL   H19020726   2.794   5.120   1.632  0.2607 -0.3105 -1.8795
   69MOL   H19120727   2.688   4.881   1.767  0.1569 -0.1023  1.0918
   69MOL   H19220728   2.401   5.095   1.848 -0.6443  1.0201  0.5803
   69MOL   H19320729   2.469   5.259   1.866 -2.6442 -1.0599  1.9228
   69MOL   H19420730   2.355   5.112   1.610 -1.6623 -0.4974  1.7497
   69MOL   H19520731   2.443   5.266   1.596 -1.8861  1.3365 -0.1058
   69MOL   H19620732   2.306   5.266   1.678 -0.7013 -0.3505  1.9046
   69MOL   C19720733   2.852   4.910   1.904  0.0037 -0.3079  0.2055
   69MOL   C19820734   2.799   4.778   1.975 -0.3184 -0.4843 -0.0077
   69MOL   C19920735   2.684   4.811   2.078  0.6228 -0.9493  0.4052
   69MOL   O20020736   2.566   4.770   2.069 -0.5209 -0.0619 -1.1262
   69MOL   O20120737   2.726   4.893   2.169  0.1584 -0.9532 -0.0498
   69MOL   C20220738   2.645   4.932   2.276 -0.2841  0.6086 -0.3416
   69MOL   C20320739   2.723   5.000   2.383 -0.3615 -0.1480  0.1226
   69MOL   H20420740   2.954   4.902   1.866  0.0501  0.8997  0.0444
   69MOL   H20520741   2.881   4.981   1.981  3.3332 -0.9066 -0.4070
   69MOL   H20620742   2.744   4.721   1.900 -1.3343  0.0592  0.3017
   69MOL   H20720743   2.569   5.007   2.257 -0.5273  0.4659  0.0668
   69MOL   H20820744   2.604   4.846   2.330 -2.7510  1.1415 -1.3198
   69MOL   H20920745   2.808   4.940   2.415  1.3942  2.2619  0.1096
   69MOL   H21020746   2.662   5.015   2.472  0.2504  0.4345  0.4412
   69MOL   H21120747   2.761   5.099   2.357  0.5709 -0.2465  1.0936
   69MOL   C21220748   2.911   4.693   2.032 -0.6367  0.6219 -0.9191
   69MOL   C21320749   2.889   4.547   2.049  0.2051  0.7232  0.4758
   69MOL   C21420750   2.881   4.477   1.911  0.1667  0.6922  0.8217
   69MOL   O21520751   2.986   4.443   1.854 -0.5537 -0.3179  0.4039
   69MOL   O21620752   2.764   4.461   1.866 -0.5752 -0.2681 -0.0817
   69MOL   C21720753   2.737   4.358   1.768 -0.2750 -0.1293 -1.0237
   69MOL   C21820754   2.697   4.395   1.630 -0.5856  0.2390 -0.1588
   69MOL   H21920755   3.001   4.712   1.973 -0.4414 -1.7607 -1.4506
   69MOL   H22020756   2.944   4.735   2.127  2.0313 -1.1149 -1.0191
   69MOL   H22120757   2.983   4.517   2.097  0.7331  1.4315 -0.1037
   69MOL   H22220758   2.821   4.290   1.754 -0.8011 -1.9086  3.4239
   69MOL   H22320759   2.665   4.293   1.818 -1.4321  1.0675 -1.1086
   69MOL   H22420760   2.618   4.470   1.631 -0.6443  0.1812  1.3264
   69MOL   H22520761   2.660   4.305   1.581  1.1374 -1.8666  2.2418
   69MOL   H22620762   2.782   4.438   1.578  0.0702  0.5207  1.1320
   69MOL   C22720763   2.772   4.510   2.140 -0.1611  1.3292 -0.5641
   69MOL   C22820764   2.773   4.550   2.291 -0.0451 -0.4045  0.4291
   69MOL   C22920765   2.910   4.593   2.351  0.0661  0.4260  0.4456
   69MOL   O23020766   2.928   4.701   2.401 -0.9819 -0.0927  0.4357
   69MOL   O23120767   3.012   4.511   2.324  0.2637  0.1620  0.1165
   69MOL   C23220768   3.138   4.538   2.368  0.2313 -0.2116 -0.4475
   69MOL   C23320769   3.159   4.517   2.518  0.5787  0.2669  0.3646
   69MOL   H23420770   2.674   4.535   2.100 -1.9069  1.1351  3.3903
   69MOL   H23520771   2.768   4.401   2.135 -2.0955  1.2315  2.3129
   69MOL   H23620772   2.704   4.634   2.303  0.3570  0.0693 -0.4915
   69MOL   H23720773   3.205   4.473   2.311  0.9467 -1.0987  1.3479
   69MOL   H23820774   3.169   4.635   2.330 -2.9905  1.2306  0.5064
   69MOL   H23920775   3.109   4.586   2.586 -2.4744 -1.5447  0.0782
   69MOL   H24020776   3.263   4.523   2.551  2.3065 -1.9999 -4.2217
   69MOL   H24120777   3.119   4.420   2.547  1.5401 -0.1006  0.4829
   69MOL   C24220778   2.722   4.438   2.382 -0.1394 -0.0618 -0.7022
   69MOL   C24320779   2.579   4.384   2.343 -0.5991 -0.4723  0.8906
   69MOL   C24420780   2.465   4.484   2.339 -0.6714  0.1268  0.4632
   69MOL   O24520781   2.410   4.517   2.234  0.0708 -0.1170  0.1627
   69MOL   O24620782   2.449   4.550   2.459 -0.0667  0.5320 -0.7154
   69MOL   C24720783   2.346   4.645   2.462  0.6703  0.0134 -0.3252
   69MOL   C24820784   2.390   4.743   2.567 -0.1328 -0.2790  0.1360
   69MOL   H24920785   2.791   4.355   2.368 -0.7578 -0.7341  0.2509
   69MOL   H25020786   2.733   4.463   2.487  2.4817 -2.5696 -0.3046
   69MOL   H25120787   2.592   4.369   2.236 -2.0492  1.4450  0.4039
   69MOL   H25220788   2.327   4.689   2.364  1.3162 -0.8814 -0.8590
   69MOL   H25320789   2.259   4.590   2.498 -0.0044  1.6768  0.6352
   69MOL   H25420790   2.302   4.803   2.589 -0.9990 -1.2495 -0.5937
   69MOL   H25520791   2.465   4.806   2.520 -1.6544  1.2225 -0.3286
   69MOL   H25620792   2.433   4.692   2.653 -1.2820  0.5389  1.2146
   69MOL   C25720793   2.541   4.271   2.438  0.5914  0.1648  0.2736
   69MOL   C25820794   2.620   4.141   2.432 -0.9875  0.1409  0.3268
   69MOL   C25920795   2.646   4.088   2.289  0.0357 -0.0787 -0.0501
   69MOL   O26020796   2.763   4.074   2.253  0.3238  0.5722 -0.0722
   69MOL   O26120797   2.536   4.057   2.222  0.6798  0.1370  0.3282
   69MOL   C26220798   2.543   3.991   2.099  0.3604 -0.2736  0.0804
   69MOL   C26320799   2.534   4.086   1.989  0.6308 -0.0178 -0.3240
   69MOL   H26420800   2.533   4.305   2.542 -1.5872  1.6627 -0.3705
   69MOL   H26520801   2.437   4.246   2.417  1.4882 -2.7818 -0.8980
   69MOL   H26620802   2.722   4.163   2.462  0.0465  2.3645 -4.3244
   69MOL   H26720803   2.637   3.935   2.096  1.6301  1.6682  2.2298
   69MOL   H26820804   2.463   3.918   2.089  1.3063 -1.6102  1.9316
   69MOL   H26920805   2.635   4.114   1.958  0.4564  0.0485 -0.8262
   69MOL   H27020806   2.473   4.173   2.011  1.6367  0.7676 -0.5771
   69MOL   H27120807   2.495   4.030   1.905 -1.2878 -0.0629  0.5685
   69MOL   C27220808   2.561   4.028   2.520  0.0828  0.8048 -0.3304
   69MOL   C27320809   2.608   4.027   2.669  0.4962  0.0460 -1.0628
   69MOL   C27420810   2.749   3.984   2.700  0.1297  0.2728 -0.0330
   69MOL   O27520811   2.836   4.060   2.749 -0.4812  0.6502  0.3259
   69MOL   O27620812   2.763   3.855   2.668  0.3154  0.7030 -0.0102
   69MOL   C27720813   2.872   3.785   2.727 -0.3556 -0.3982  0.5110
   69MOL   C27820814   2.978   3.761   2.619  0.4785 -0.2206  0.5601
   69MOL   H27920815   2.453   4.015   2.514  0.3677 -3.0400  1.2330
   69MOL   H28020816   2.599   3.932   2.487  0.1980  1.4700 -2.2008
   69MOL   H28120817   2.620   4.132   2.696 -3.9107  0.8579 -1.8515
   69MOL   H28220818   2.914   3.831   2.816 -1.4349  0.8915  0.3910
   69MOL   H28320819   2.835   3.694   2.774 -0.7052  1.1447  3.3621
   69MOL   H28420820   3.066   3.714   2.662  1.1840 -0.0818 -0.7000
   69MOL   H28520821   3.017   3.847   2.565  1.0391 -0.7936  0.0496
   69MOL   H28620822   2.929   3.692   2.550 -1.3673  0.6867  0.9136
   69MOL   C28720823   2.506   3.957   2.762 -0.2622 -0.6522 -0.1429
   69MOL   C28820824   2.492   4.030   2.898  0.5724 -0.1825  0.1957
   69MOL   C28920825   2.390   4.142   2.875  0.3472  0.1520 -0.2477
   69MOL   O29020826   2.270   4.116   2.864  0.3463 -0.0962  0.7518
   69MOL   O29120827   2.457   4.251   2.863  0.5206 -0.2640  0.5708
   69MOL   C29220828   2.391   4.371   2.840 -0.9698  0.5270  0.5370
   69MOL   C29320829   2.366   4.462   2.960 -0.0746  0.6733 -0.0482
   69MOL   H29420830   2.413   3.940   2.709 -0.6627 -0.6149  0.5325
   69MOL   H29520831   2.529   3.853   2.785 -1.0155 -0.6218  0.7939
   69MOL   H29620832   2.459   3.960   2.975 -0.7813 -1.4770 -1.5112
   69MOL   H29720833   2.452   4.422   2.765 -1.1573 -1.4314 -0.9858
   69MOL   H29820834   2.294   4.351   2.795 -0.4563 -4.0881  1.2774
   69MOL   H29920835   2.444   4.468   3.035  0.3341  0.9885 -0.4936
   69MOL   H30020836   2.272   4.442   3.012  0.0060 -1.9681 -0.8559
   69MOL   H30120837   2.350   4.564   2.925 -3.8944  0.4118  0.7244
   69MOL   H30220838   2.584   4.080   2.924 -0.2115 -1.0258  5.0107
   70MOL     C120839   2.842   4.171   3.470  0.4426 -0.3203 -0.4803
   70MOL     C220840   2.976   4.127   3.543  0.2174  0.0027  0.0329
   70MOL     C320841   2.937   4.076   3.682  0.2490 -0.4920  0.2036
   70MOL     O420842   2.939   3.959   3.709 -0.3012  0.5573  0.4287
   70MOL     O520843   2.898   4.169   3.772 -0.3170 -0.4725  0.1572
   70MOL     C620844   2.850   4.127   3.900  0.5233  0.2290  0.2246
   70MOL     C720845   2.808   4.257   3.976  0.8087  0.0202  0.5069
   70MOL     H820846   2.800   4.248   3.535  0.5160  0.2871 -1.1484
   70MOL     H920847   2.771   4.088   3.478  0.0062  0.1669  0.7657
   70MOL    H1020848   3.022   4.044   3.489  0.3086  1.4386 -2.1566
   70MOL    H1120849   2.774   4.049   3.893  0.9957 -0.3427  1.4292
   70MOL    H1220850   2.939   4.086   3.946 -0.1554 -2.1060 -0.4634
   70MOL    H1320851   2.806   4.255   4.085  2.4824 -0.4127  0.5419
   70MOL    H1420852   2.707   4.281   3.942  1.0236  1.8322  1.0796
   70MOL    H1520853   2.873   4.342   3.951  1.6933 -0.5200  0.9294
   70MOL    H1620854   2.846   4.216   3.371  2.4668 -1.2899 -0.8559
   70MOL    C1720855   3.069   4.250   3.548 -0.1109  0.1531 -0.3909
   70MOL    C1820856   3.209   4.220   3.591 -0.1999  0.2183  0.7584
   70MOL    C1920857   3.232   4.261   3.736  0.3406 -0.0137 -0.3536
   70MOL    O2020858   3.211   4.186   3.830  0.2438  0.6571  0.6058
   70MOL    O2120859   3.280   4.384   3.748  0.6725 -0.4875  0.0664
   70MOL    C2220860   3.295   4.434   3.880  0.3401 -0.4075  0.3675
   70MOL    C2320861   3.161   4.477   3.942 -0.8869  0.4710 -0.7744
   70MOL    H2420862   3.073   4.283   3.445 -0.2385  2.5452  0.3466
   70MOL    H2520863   3.022   4.325   3.612  1.7691  0.7993  0.2665
   70MOL    H2620864   3.224   4.112   3.595  0.8895  0.3180 -0.3930
   70MOL    H2720865   3.338   4.353   3.939 -1.5676 -1.5378  0.2432
   70MOL    H2820866   3.361   4.521   3.879 -1.2742  0.8228 -0.4035
   70MOL    H2920867   3.096   4.543   3.884 -0.7654 -0.8642 -2.4430
   70MOL    H3020868   3.175   4.522   4.040 -0.2851 -1.8132  0.2171
   70MOL    H3120869   3.102   4.387   3.957 -0.6507  0.2938 -0.8995
   70MOL    C3220870   3.305   4.268   3.485 -0.0157  0.2376  0.3279
   70MOL    C3320871   3.452   4.232   3.494  0.0280 -0.7077  0.3298
   70MOL    C3420872   3.466   4.080   3.499 -0.4620  0.4744  0.0591
   70MOL    O3520873   3.406   4.001   3.421  0.1370 -0.3867  0.1593
   70MOL    O3620874   3.532   4.034   3.613  0.0517 -0.4948  0.2005
   70MOL    C3720875   3.578   3.898   3.618  0.5719 -0.4041  0.3484
   70MOL    C3820876   3.691   3.868   3.508  0.1055 -0.2632 -0.1186
   70MOL    H3920877   3.279   4.237   3.384  2.8250  0.8855 -0.6500
   70MOL    H4020878   3.291   4.376   3.481 -0.1801  0.1857 -0.4800
   70MOL    H4120879   3.493   4.254   3.396  0.5415 -2.4056  0.1455
   70MOL    H4220880   3.624   3.878   3.715  0.8080 -0.3627  0.2457
   70MOL    H4320881   3.492   3.833   3.600 -0.9507  1.7640 -0.5151
   70MOL    H4420882   3.658   3.903   3.411 -0.3020 -1.3784 -0.3881
   70MOL    H4520883   3.705   3.760   3.514 -3.3056 -0.7971 -0.4898
   70MOL    H4620884   3.779   3.928   3.528  0.0133  1.1587 -3.7346
   70MOL    C4720885   3.542   4.315   3.589  0.3063 -0.3511  0.2239
   70MOL    C4820886   3.700   4.317   3.585 -0.7678 -0.5840  0.0364
   70MOL    C4920887   3.760   4.362   3.713 -0.0483 -0.0507  0.6160
   70MOL    O5020888   3.815   4.288   3.799  0.4015 -0.4192  0.4784
   70MOL    O5120889   3.757   4.494   3.732  0.3227  0.4991 -0.2655
   70MOL    C5220890   3.820   4.556   3.842 -0.0523 -0.1380  0.2847
   70MOL    C5320891   3.843   4.705   3.817  0.4165  0.8835 -0.1629
   70MOL    H5420892   3.507   4.417   3.573  1.4031 -0.1070 -0.6962
   70MOL    H5520893   3.511   4.293   3.691 -1.0890 -1.2641 -0.3874
   70MOL    H5620894   3.726   4.214   3.564  1.5139  0.6388 -3.7005
   70MOL    H5720895   3.765   4.542   3.935  0.5167  1.4272  0.8693
   70MOL    H5820896   3.914   4.504   3.861  0.1988 -0.7966 -2.5927
   70MOL    H5920897   3.900   4.761   3.892 -1.0949  2.8651 -0.4549
   70MOL    H6020898   3.752   4.764   3.810 -1.2739 -1.7425 -0.7846
   70MOL    H6120899   3.897   4.729   3.725 -0.8175  0.6514 -0.9521
   70MOL    C6220900   3.751   4.392   3.464 -0.6120 -1.1030  0.3534
   70MOL    C6320901   3.900   4.374   3.421  0.3021 -0.0032 -0.7874
   70MOL    C6420902   3.953   4.498   3.346  0.1806  0.0193  0.6848
   70MOL    O6520903   3.885   4.562   3.272  0.2750 -0.3998  0.3627
   70MOL    O6620904   4.074   4.534   3.388  0.0701  0.1084  0.4829
   70MOL    C6720905   4.152   4.617   3.303 -0.3367  0.3481  0.0464
   70MOL    C6820906   4.295   4.564   3.315 -0.3806  0.0305  0.5906
   70MOL    H6920907   3.680   4.378   3.383  0.6864 -0.1508 -0.9917
   70MOL    H7020908   3.737   4.497   3.489 -2.9606 -1.6978  1.7339
   70MOL    H7120909   3.942   4.376   3.522 -1.3763  2.8277 -0.1060
   70MOL    H7220910   4.119   4.624   3.199  0.0506  0.8796 -0.0443
   70MOL    H7320911   4.144   4.717   3.347 -0.2859 -0.0809  1.0442
   70MOL    H7420912   4.328   4.574   3.419 -0.4304 -0.6936  0.6776
   70MOL    H7520913   4.362   4.616   3.247  0.2386  0.6299  1.6462
   70MOL    H7620914   4.310   4.462   3.283  0.0127  0.9413 -2.2867
   70MOL    C7720915   3.918   4.236   3.358  0.1712 -0.2439  0.0864
   70MOL    C7820916   4.039   4.152   3.383 -0.9140 -0.2291 -0.3068
   70MOL    C7920917   4.053   4.112   3.538  0.4963 -1.0373  0.3691
   70MOL    O8020918   4.086   4.192   3.625 -0.0317  0.0027  0.3531
   70MOL    O8120919   4.022   3.985   3.564  0.3247 -0.5565 -0.0762
   70MOL    C8220920   4.046   3.944   3.701  0.2191 -0.6433 -0.2000
   70MOL    C8320921   4.051   3.788   3.723  0.1669  0.5355 -0.3959
   70MOL    H8420922   3.831   4.177   3.389  0.5915 -1.1126 -0.3744
   70MOL    H8520923   3.904   4.246   3.251  0.1348 -0.4007  0.0763
   70MOL    H8620924   4.003   4.063   3.331 -0.5443 -1.9589  2.2938
   70MOL    H8720925   4.145   3.978   3.730 -1.6664  2.3016  3.1253
   70MOL    H8820926   3.975   3.995   3.765  0.2945  0.2492 -0.8272
   70MOL    H8920927   4.123   3.736   3.660  0.6394 -0.5424  0.9996
   70MOL    H9020928   3.950   3.749   3.715  0.3220 -0.4804  1.8909
   70MOL    H9120929   4.081   3.765   3.826 -0.3748 -0.4258 -0.4525
   70MOL    C9220930   4.171   4.208   3.315 -0.6541 -0.4948 -0.3236
   70MOL    C9320931   4.301   4.123   3.317  1.0057  0.1882  0.5039
   70MOL    C9420932   4.426   4.205   3.345  0.1199 -0.9041  0.6138
   70MOL    O9520933   4.526   4.202   3.276 -0.2065 -0.2099  0.6618
   70MOL    O9620934   4.420   4.268   3.465  0.2979  0.0560  0.0039
   70MOL    C9720935   4.536   4.328   3.516  0.3524  0.1199  0.5034
   70MOL    C9820936   4.501   4.391   3.647 -0.0559  0.2275 -0.4672
   70MOL    H9920937   4.153   4.235   3.211 -0.1879 -1.6249 -0.7067
   70MOL   H10020938   4.184   4.301   3.370  0.6641  0.0895 -1.5855
   70MOL   H10120939   4.302   4.056   3.404  0.0250  2.1672  2.0857
   70MOL   H10220940   4.602   4.242   3.531  0.4122  0.3328  1.5438
   70MOL   H10320941   4.592   4.397   3.453  0.9564  0.4502  1.3877
   70MOL   H10420942   4.433   4.474   3.627  1.0575  1.2051 -0.2581
   70MOL   H10520943   4.592   4.414   3.701 -0.3388 -0.4119  0.3042
   70MOL   H10620944   4.438   4.318   3.698  1.4081 -0.3090  0.6013
   70MOL   C10720945   4.324   4.041   3.193 -0.2014 -0.2158  0.0084
   70MOL   C10820946   4.212   3.945   3.154 -0.4910 -0.3392  0.2751
   70MOL   C10920947   4.190   3.837   3.265 -0.1723  0.2708 -0.6876
   70MOL   O11020948   4.279   3.787   3.330  0.2178  0.5327  0.1475
   70MOL   O11120949   4.063   3.793   3.266  0.3747  0.0910 -0.0978
   70MOL   C11220950   4.031   3.665   3.323  0.0425  0.2928 -0.1716
   70MOL   C11320951   3.881   3.629   3.302 -0.3301 -0.1103  0.5684
   70MOL   H11420952   4.360   4.100   3.109 -0.0017  0.8448  0.8122
   70MOL   H11520953   4.403   3.968   3.212  0.1594  0.6591  2.0715
   70MOL   H11620954   4.121   4.002   3.136 -0.2275 -0.1546 -0.5018
   70MOL   H11720955   4.097   3.591   3.277  0.4146  0.5492 -0.0515
   70MOL   H11820956   4.052   3.681   3.429  0.0558  0.0130 -0.1312
   70MOL   H11920957   3.822   3.718   3.323  0.2051  0.7098 -1.2791
   70MOL   H12020958   3.843   3.544   3.358  2.2494  0.5658  3.4546
   70MOL   H12120959   3.856   3.614   3.197  2.0069 -1.6028  0.1890
   70MOL   C12220960   4.252   3.881   3.019 -0.3676  0.2638 -0.5066
   70MOL   C12320961   4.140   3.799   2.957  0.0244  0.0557 -0.0711
   70MOL   C12420962   4.191   3.673   2.894  0.4683  0.7605 -0.2477
   70MOL   O12520963   4.223   3.676   2.777 -0.2845  0.1781  0.0030
   70MOL   O12620964   4.188   3.565   2.972  0.1799  0.3371 -0.1622
   70MOL   C12720965   4.215   3.436   2.925 -0.3483  0.0937  0.4877
   70MOL   C12820966   4.086   3.348   2.930  0.4849  0.2831  0.7222
   70MOL   H12920967   4.292   3.946   2.942  0.5415  0.1235 -0.1543
   70MOL   H13020968   4.328   3.804   3.033  0.0885  0.6891 -0.6288
   70MOL   H13120969   4.064   3.770   3.030 -1.8805 -2.6750 -3.0064
   70MOL   H13220970   4.277   3.428   2.836  1.9628 -0.8324  2.1044
   70MOL   H13320971   4.281   3.391   2.999  1.7117  1.4370 -0.4857
   70MOL   H13420972   4.016   3.357   3.014 -0.2649 -0.7014  0.2207
   70MOL   H13520973   4.102   3.240   2.919 -1.3726 -0.0506  1.0386
   70MOL   H13620974   4.023   3.382   2.848  0.3626 -4.4412 -1.3086
   70MOL   C13720975   4.065   3.883   2.844 -0.1892  0.0384 -0.6896
   70MOL   C13820976   3.977   4.002   2.894 -0.1514  1.0066  0.6427
   70MOL   C13920977   3.843   3.955   2.945  0.2198 -0.4658 -0.5166
   70MOL   O14020978   3.781   3.869   2.885  1.0213 -0.4752 -0.2867
   70MOL   O14120979   3.800   4.017   3.052 -0.6918 -0.4211  0.5441
   70MOL   C14220980   3.693   3.975   3.127  0.2555  0.1297  0.8232
   70MOL   C14320981   3.606   4.099   3.147 -0.0748  0.0526  0.0400
   70MOL   H14420982   4.139   3.915   2.770 -0.9912 -3.8483 -3.3547
   70MOL   H14520983   3.999   3.815   2.790 -0.9258  2.0409 -2.3515
   70MOL   H14620984   4.028   4.051   2.977 -0.0255  2.1487 -0.1074
   70MOL   H14720985   3.651   3.882   3.086  1.3211  0.2655 -0.6248
   70MOL   H14820986   3.747   3.939   3.214  1.2023  0.6339  0.4417
   70MOL   H14920987   3.550   4.136   3.061 -0.6370 -1.2022 -0.1421
   70MOL   H15020988   3.670   4.181   3.181  0.7180 -0.4272 -0.2730
   70MOL   H15120989   3.534   4.076   3.225  0.7824 -0.3949  0.7101
   70MOL   C15220990   3.951   4.106   2.781 -0.1763  0.5720 -0.0923
   70MOL   C15320991   4.072   4.199   2.769  0.0815  0.3058 -0.3653
   70MOL   C15420992   4.061   4.314   2.873  0.2907 -0.1666 -0.0003
   70MOL   O15520993   4.143   4.324   2.964  0.3311  0.0783 -0.4343
   70MOL   O15620994   3.958   4.403   2.861 -0.3734 -0.9607 -0.1249
   70MOL   C15720995   3.940   4.513   2.944  0.4676 -0.3218 -0.1044
   70MOL   C15820996   3.791   4.536   2.983  0.3604 -0.3164  0.8300
   70MOL   H15920997   3.943   4.051   2.687 -0.2359 -3.1545  1.9694
   70MOL   H16020998   3.857   4.158   2.795  0.2173  1.4132 -0.5631
   70MOL   H16120999   4.163   4.140   2.785 -0.4942 -0.1245  1.5659
   70MOL   H16221000   4.000   4.497   3.034  0.5331  0.4969  0.0066
   70MOL   H16321001   3.977   4.605   2.898  2.9221 -1.3951 -0.3677
   70MOL   H16421002   3.732   4.581   2.903  1.5702  1.3137  0.8232
   70MOL   H16521003   3.781   4.607   3.065 -0.2413  0.3094  0.2210
   70MOL   H16621004   3.753   4.443   3.025 -0.4005 -0.7559 -0.8125
   70MOL   C16721005   4.080   4.252   2.626 -0.3601  0.3273  0.5498
   70MOL   C16821006   4.213   4.324   2.584  0.0143  0.1921  0.9119
   70MOL   C16921007   4.340   4.234   2.592 -0.2796  0.1535 -0.4456
   70MOL   O17021008   4.451   4.276   2.640  0.1996  0.0986 -0.4694
   70MOL   O17121009   4.328   4.106   2.531 -0.7222  0.0227 -0.6836
   70MOL   C17221010   4.439   4.019   2.532 -0.5353  0.3151  0.3434
   70MOL   C17321011   4.405   3.891   2.597 -0.2091 -0.6710 -0.1817
   70MOL   H17421012   4.061   4.163   2.567  1.6580 -0.6015  1.2466
   70MOL   H17521013   3.997   4.317   2.600 -0.8347 -0.7441 -0.6769
   70MOL   H17621014   4.207   4.343   2.476 -0.0339  0.6203  0.9889
   70MOL   H17721015   4.458   4.006   2.426 -0.5495  1.8796  0.1259
   70MOL   H17821016   4.525   4.057   2.587  0.6542 -1.6194 -0.1457
   70MOL   H17921017   4.322   3.837   2.551 -2.4291  1.9142  0.6883
   70MOL   H18021018   4.375   3.898   2.702 -2.6199 -3.2238 -0.6355
   70MOL   H18121019   4.496   3.831   2.606  2.0967  2.1904 -3.2350
   70MOL   C18221020   4.232   4.457   2.652 -0.3306  0.1955 -0.3404
   70MOL   C18321021   4.296   4.563   2.563 -0.8170 -0.3742 -0.6539
   70MOL   C18421022   4.441   4.597   2.617  0.5487 -0.1325  0.1394
   70MOL   O18521023   4.456   4.638   2.733 -0.5749  0.1986 -0.0783
   70MOL   O18621024   4.535   4.587   2.528 -0.3030 -0.2388 -0.0885
   70MOL   C18721025   4.671   4.617   2.564  0.6401  0.3353 -0.2561
   70MOL   C18821026   4.753   4.642   2.436 -0.2416 -0.4926  0.5095
   70MOL   H18921027   4.140   4.505   2.685 -2.1966 -2.1766 -1.9064
   70MOL   H19021028   4.291   4.444   2.742 -1.0727 -1.9288 -0.1166
   70MOL   H19121029   4.312   4.537   2.459 -2.3366 -1.1486 -0.7134
   70MOL   H19221030   4.679   4.705   2.627  2.0721 -2.1750  3.2522
   70MOL   H19321031   4.709   4.537   2.628 -1.9312 -0.1871  0.7005
   70MOL   H19421032   4.753   4.553   2.373  0.2191  1.2740 -2.0482
   70MOL   H19521033   4.857   4.666   2.461 -0.6349 -0.4041  2.1687
   70MOL   H19621034   4.709   4.723   2.379  0.1903 -1.8235 -1.7937
   70MOL   C19721035   4.210   4.690   2.549 -0.2181 -0.1880 -0.1569
   70MOL   C19821036   4.092   4.678   2.450 -0.0177 -0.3756  0.2204
   70MOL   C19921037   4.077   4.812   2.369  0.1364  0.1185  0.2332
   70MOL   O20021038   4.067   4.927   2.426 -0.1449  0.2249  0.1182
   70MOL   O20121039   4.072   4.782   2.236 -0.1411  0.1912 -0.2017
   70MOL   C20221040   4.056   4.884   2.144 -0.1630 -0.4552  0.0724
   70MOL   C20321041   4.062   4.832   1.995  0.1258  0.4958 -0.6350
   70MOL   H20421042   4.168   4.721   2.645  1.0723 -1.3492  0.8187
   70MOL   H20521043   4.275   4.775   2.525  1.4613 -2.1048 -2.7273
   70MOL   H20621044   4.105   4.599   2.376 -0.7617  0.4757 -0.8568
   70MOL   H20721045   3.952   4.914   2.149  0.9291  3.6707  0.3944
   70MOL   H20821046   4.114   4.971   2.175 -0.8877 -0.3409  1.1420
   70MOL   H20921047   3.987   4.758   1.964  0.7572 -0.0654 -0.8439
   70MOL   H21021048   4.156   4.782   1.970 -1.0981 -1.7684 -0.9191
   70MOL   H21121049   4.067   4.917   1.928  1.5439  0.3601 -0.7003
   70MOL   C21221050   3.958   4.647   2.520  0.7499  0.4629  0.4144
   70MOL   C21321051   3.832   4.635   2.434 -0.1454  0.8299 -0.7066
   70MOL   C21421052   3.704   4.622   2.517  0.3129  0.0868 -0.1907
   70MOL   O21521053   3.668   4.516   2.565 -0.3974 -0.2876  0.0683
   70MOL   O21621054   3.639   4.742   2.532  0.6958 -0.4954 -0.1859
   70MOL   C21721055   3.519   4.761   2.607  0.5965  0.0160 -0.0377
   70MOL   C21821056   3.564   4.813   2.748 -0.1151  0.7019  0.0084
   70MOL   H21921057   3.968   4.561   2.586  3.8021  0.6537  0.3101
   70MOL   H22021058   3.953   4.729   2.592  1.1983 -0.3920  1.4217
   70MOL   H22121059   3.821   4.724   2.373  0.8945  0.9003 -0.7922
   70MOL   H22221060   3.470   4.841   2.552  0.9617  0.7497  0.6940
   70MOL   H22321061   3.463   4.668   2.610 -0.5154  0.6327 -1.4042
   70MOL   H22421062   3.586   4.916   2.719 -2.7385  1.3921  0.3328
   70MOL   H22521063   3.657   4.762   2.773 -0.2179  0.6152  0.2140
   70MOL   H22621064   3.488   4.827   2.825  2.1693  0.6747  2.3467
   70MOL   C22721065   3.848   4.504   2.344 -0.2164 -1.1181  0.0045
   70MOL   C22821066   3.747   4.472   2.234  0.6161 -0.0750  0.4335
   70MOL   C22921067   3.775   4.328   2.186  0.0063 -0.3382  0.3151
   70MOL   O23021068   3.681   4.248   2.171 -0.4713 -0.8636  0.0468
   70MOL   O23121069   3.906   4.312   2.162  0.0703  0.1051 -0.6203
   70MOL   C23221070   3.943   4.181   2.128 -0.0008  0.6576 -0.0425
   70MOL   C23321071   4.078   4.148   2.195 -0.5005  1.0124  0.3527
   70MOL   H23421072   3.948   4.496   2.302 -0.5676 -1.2605 -0.8206
   70MOL   H23521073   3.852   4.422   2.415 -0.3458  0.3741  1.7719
   70MOL   H23621074   3.645   4.456   2.269  0.3280  0.7749 -0.0050
   70MOL   H23721075   3.864   4.109   2.150 -0.5204  2.0571  3.0663
   70MOL   H23821076   3.956   4.177   2.020  0.3831 -0.3684  0.0355
   70MOL   H23921077   4.074   4.167   2.303 -2.1381 -1.2925  0.7281
   70MOL   H24021078   4.154   4.207   2.143 -1.7315  2.0105 -0.3413
   70MOL   H24121079   4.101   4.043   2.180  1.2847  1.7400 -2.3355
   70MOL   C24221080   3.728   4.585   2.120  1.0856  0.1833  0.3567
   70MOL   C24321081   3.620   4.701   2.161  0.0982 -0.0403 -0.3744
   70MOL   C24421082   3.483   4.650   2.153 -0.2543  0.1380 -0.2023
   70MOL   O24521083   3.407   4.658   2.252 -0.1364  0.2381 -0.6081
   70MOL   O24621084   3.459   4.600   2.032  0.4919  0.1098 -0.3139
   70MOL   C24721085   3.339   4.520   2.017 -0.1880  0.9936 -0.6134
   70MOL   C24821086   3.363   4.377   2.079 -0.4597 -0.0268  0.0309
   70MOL   H24921087   3.827   4.627   2.105  0.8899  0.2461 -0.7969
   70MOL   H25021088   3.702   4.540   2.024  0.1676  2.7848 -0.6765
   70MOL   H25121089   3.637   4.732   2.264 -0.5359  1.5287 -0.7260
   70MOL   H25221090   3.254   4.565   2.067 -0.5397 -2.9510  2.5906
   70MOL   H25321091   3.311   4.517   1.912  0.7761  1.2075 -0.8808
   70MOL   H25421092   3.295   4.300   2.044 -2.4929  1.8461 -0.2126
   70MOL   H25521093   3.375   4.367   2.187  1.1091 -1.6350 -0.2641
   70MOL   H25621094   3.458   4.341   2.039 -0.4005 -0.6736  0.7359
   70MOL   C25721095   3.644   4.818   2.055 -0.3134 -0.5500  0.4570
   70MOL   C25821096   3.628   4.963   2.102 -0.1004 -1.0493  0.2940
   70MOL   C25921097   3.490   4.995   2.156 -0.0068 -0.2305 -0.7252
   70MOL   O26021098   3.467   4.996   2.278 -0.0692  0.3728 -0.3519
   70MOL   O26121099   3.395   5.008   2.063 -0.1815  0.0738  0.2447
   70MOL   C26221100   3.266   5.053   2.103  0.2978  0.2194  0.3232
   70MOL   C26321101   3.169   4.936   2.134 -0.1321 -1.1872 -0.1648
   70MOL   H26421102   3.751   4.811   2.036 -0.1952 -0.0988  0.9554
   70MOL   H26521103   3.600   4.796   1.958 -0.5224  1.4555  0.0892
   70MOL   H26621104   3.692   4.975   2.189  0.5794  0.4059 -0.3946
   70MOL   H26721105   3.276   5.112   2.194 -3.2416  0.6300  0.5123
   70MOL   H26821106   3.223   5.127   2.034 -1.8532 -1.1106  0.1750
   70MOL   H26921107   3.164   4.866   2.050  1.2926 -2.2319  0.5986
   70MOL   H27021108   3.070   4.970   2.165  1.6534  2.6047  1.7659
   70MOL   H27121109   3.216   4.870   2.207  0.4288  0.2905  0.8254
   70MOL   C27221110   3.683   5.069   2.003  1.3452  0.4957 -0.1287
   70MOL   C27321111   3.760   5.192   2.051 -0.0458 -0.9250  0.2003
   70MOL   C27421112   3.692   5.252   2.177 -0.1908  0.3291 -0.0925
   70MOL   O27521113   3.607   5.341   2.174  1.0636  0.4357  0.4382
   70MOL   O27621114   3.738   5.188   2.284  0.0217 -0.4130  0.5217
   70MOL   C27721115   3.679   5.204   2.413 -0.0496 -0.1266 -0.0400
   70MOL   C27821116   3.729   5.089   2.489  0.4352 -0.2605  0.1066
   70MOL   H27921117   3.747   5.022   1.928  2.4893  0.5162  0.8138
   70MOL   H28021118   3.593   5.100   1.950  0.4815 -0.9022  0.5127
   70MOL   H28121119   3.857   5.153   2.083 -0.2402 -0.4748  1.3799
   70MOL   H28221120   3.710   5.296   2.463  0.6544 -0.3890  0.0117
   70MOL   H28321121   3.572   5.225   2.405 -0.8278 -3.6395  0.1635
   70MOL   H28421122   3.703   4.992   2.448  1.4887 -1.2422  1.7193
   70MOL   H28521123   3.715   5.096   2.597 -2.9989  1.5072 -0.3957
   70MOL   H28621124   3.837   5.093   2.472 -0.0038  3.5307 -2.3959
   70MOL   C28721125   3.795   5.296   1.941  0.1178  0.2204  0.2360
   70MOL   C28821126   3.902   5.399   1.979  0.5626  0.0244 -0.3129
   70MOL   C28921127   3.968   5.459   1.855 -0.0842 -0.9163 -0.6282
   70MOL   O29021128   3.949   5.569   1.826  0.2277 -0.5566  0.3725
   70MOL   O29121129   4.029   5.368   1.776 -0.2058  0.2962 -0.2221
   70MOL   C29221130   4.070   5.403   1.649  0.7174  0.4907 -0.8240
   70MOL   C29321131   3.960   5.401   1.548  0.2387 -0.5673  0.1172
   70MOL   H29421132   3.816   5.243   1.849  0.2581  0.8401 -0.0974
   70MOL   H29521133   3.711   5.356   1.905 -0.9361 -2.5415 -2.0646
   70MOL   H29621134   3.871   5.488   2.035 -0.8298  0.0520 -1.1101
   70MOL   H29721135   4.105   5.506   1.645 -0.6492  0.9660 -0.9996
   70MOL   H29821136   4.151   5.340   1.613  0.4263  1.5784 -3.5229
   70MOL   H29921137   3.890   5.484   1.547  1.5801  0.5693  0.4447
   70MOL   H30021138   3.917   5.301   1.557  0.1593 -0.4157  1.4092
   70MOL   H30121139   4.026   5.405   1.461  0.3031  0.8624  0.2267
   70MOL   H30221140   3.978   5.346   2.037 -0.6182  0.4653  1.6873
   71MOL     C121141   3.971   2.769   1.377 -0.6577 -0.0683 -0.3253
   71MOL     C221142   4.031   2.811   1.244 -0.1775  0.4577  0.6291
   71MOL     C321143   4.120   2.709   1.179  0.2142  0.3964 -0.0817
   71MOL     O421144   4.148   2.605   1.236 -0.0133  0.2492  0.1699
   71MOL     O521145   4.158   2.748   1.059  0.2175  0.2977  0.6768
   71MOL     C621146   4.227   2.660   0.976 -0.3713  0.1506 -0.5105
   71MOL     C721147   4.371   2.689   1.009 -0.9009 -0.6002  0.5573
   71MOL     H821148   4.047   2.773   1.456 -2.6051  0.0626  1.5783
   71MOL     H921149   3.938   2.665   1.378  1.2269 -0.6963  2.0027
   71MOL    H1021150   3.943   2.823   1.181 -0.5809 -2.9946  0.4487
   71MOL    H1121151   4.204   2.556   1.003  0.3041  0.4028  1.1019
   71MOL    H1221152   4.210   2.674   0.869  3.4265  1.6609 -0.9977
   71MOL    H1321153   4.406   2.789   0.982  0.0766 -0.6863  1.4498
   71MOL    H1421154   4.425   2.624   0.941  0.2890  0.4257  0.4880
   71MOL    H1521155   4.409   2.676   1.111  4.6412  0.8054 -1.1303
   71MOL    H1621156   3.881   2.826   1.400 -3.7192 -2.6593 -5.0758
   71MOL    C1721157   4.106   2.939   1.259 -0.3116  0.2101  0.4573
   71MOL    C1821158   4.022   3.057   1.317  0.2729  0.8166  0.4878
   71MOL    C1921159   3.901   3.094   1.226  0.3585 -0.0158  0.0311
   71MOL    O2021160   3.785   3.057   1.247 -0.0896  0.0978  0.6362
   71MOL    O2121161   3.934   3.169   1.119 -0.1011 -0.0588 -0.1124
   71MOL    C2221162   3.838   3.226   1.029 -0.3990  0.2506 -0.2314
   71MOL    C2321163   3.807   3.377   1.068  0.4786 -0.3201 -0.9914
   71MOL    H2421164   4.188   2.921   1.328  1.2210  0.5879 -1.2247
   71MOL    H2521165   4.156   2.983   1.172  1.2709  1.0468  1.7508
   71MOL    H2621166   3.964   3.036   1.406 -2.3726  0.1425 -1.3348
   71MOL    H2721167   3.887   3.222   0.932 -1.0215 -0.2834 -0.5234
   71MOL    H2821168   3.745   3.170   1.027 -1.5747  2.1865 -0.2698
   71MOL    H2921169   3.881   3.450   1.035 -1.0924  0.7470 -2.2288
   71MOL    H3021170   3.807   3.362   1.176 -0.0853 -4.1208 -1.4451
   71MOL    H3121171   3.706   3.408   1.040  0.2564  1.5315  1.6907
   71MOL    C3221172   4.116   3.180   1.329 -0.3770 -0.2149  0.7597
   71MOL    C3321173   4.075   3.300   1.407 -0.3628  0.1308  0.0640
   71MOL    C3421174   4.160   3.424   1.371 -0.3656  0.4056  0.6008
   71MOL    O3521175   4.120   3.509   1.295  0.6148  0.0243  0.5883
   71MOL    O3621176   4.279   3.430   1.428 -0.4012 -0.1823  0.4667
   71MOL    C3721177   4.365   3.545   1.425 -0.0088  0.1014  0.6210
   71MOL    C3821178   4.450   3.560   1.550  0.5683  0.9971  0.2432
   71MOL    H3921179   4.211   3.158   1.377  0.1367  0.5670  0.1233
   71MOL    H4021180   4.146   3.208   1.227 -0.2190  0.7655  1.0700
   71MOL    H4121181   3.972   3.323   1.379  0.8212  1.1621 -3.7745
   71MOL    H4221182   4.430   3.534   1.339  0.4261 -1.8704  1.1869
   71MOL    H4321183   4.301   3.633   1.416 -2.6815 -1.6569  1.7925
   71MOL    H4421184   4.376   3.575   1.628 -0.5276 -1.8710 -0.2036
   71MOL    H4521185   4.516   3.646   1.533  2.6555 -1.1322 -2.9346
   71MOL    H4621186   4.506   3.473   1.584 -1.4463 -0.8356 -1.0467
   71MOL    C4721187   4.078   3.275   1.562 -0.6199  0.3214 -0.3589
   71MOL    C4821188   3.941   3.292   1.625  0.1849 -0.3697  0.4374
   71MOL    C4921189   3.892   3.432   1.607  0.0236 -0.1759 -0.2395
   71MOL    O5021190   3.791   3.458   1.541 -0.5325 -0.0212  0.3784
   71MOL    O5121191   3.982   3.519   1.668 -0.1167  0.1114  0.4270
   71MOL    C5221192   3.952   3.653   1.665 -0.5260 -0.4253  0.7480
   71MOL    C5321193   4.039   3.716   1.784  0.3307  0.6240  0.2809
   71MOL    H5421194   4.123   3.178   1.581  1.3869  1.3493  0.3308
   71MOL    H5521195   4.151   3.338   1.613  0.5071  0.3735 -2.0231
   71MOL    H5621196   3.864   3.229   1.582 -0.0337  0.1255  0.0970
   71MOL    H5721197   3.979   3.700   1.570 -2.4259 -0.6444  0.0776
   71MOL    H5821198   3.846   3.675   1.677 -0.5615  0.5672 -1.1258
   71MOL    H5921199   4.137   3.670   1.795  0.7304  0.9422 -1.7352
   71MOL    H6021200   3.975   3.702   1.872 -0.9035 -0.5959 -0.7874
   71MOL    H6121201   4.044   3.824   1.773  1.9449  0.4564 -0.6475
   71MOL    C6221202   3.927   3.245   1.773  0.1089  0.4242 -0.7771
   71MOL    C6321203   3.779   3.227   1.826 -0.0002  0.1037 -0.1477
   71MOL    C6421204   3.745   3.345   1.913  0.3699 -1.0470 -0.0926
   71MOL    O6521205   3.648   3.422   1.891 -0.1478 -0.3164  0.1347
   71MOL    O6621206   3.827   3.355   2.017 -0.0421  0.0294 -0.3319
   71MOL    C6721207   3.811   3.471   2.103  0.0484 -0.4879  0.1033
   71MOL    C6821208   3.913   3.444   2.215  0.3093 -1.0139  0.1416
   71MOL    H6921209   3.998   3.165   1.795  0.8150  1.1522 -0.4201
   71MOL    H7021210   3.978   3.318   1.837 -0.7662  0.3077  0.0760
   71MOL    H7121211   3.715   3.229   1.738  0.0225  0.7094 -0.1511
   71MOL    H7221212   3.848   3.559   2.049  1.5943 -0.4352  1.2058
   71MOL    H7321213   3.713   3.503   2.139  0.8814  0.8508  1.2143
   71MOL    H7421214   3.866   3.355   2.258  0.6007 -0.7347  1.0647
   71MOL    H7521215   3.916   3.527   2.286 -1.5648 -0.9831  0.2024
   71MOL    H7621216   4.004   3.435   2.155 -0.9666  2.7928 -2.5569
   71MOL    C7721217   3.744   3.097   1.897  0.2798 -0.2333 -0.1051
   71MOL    C7821218   3.758   2.979   1.804 -0.7787 -0.7965  0.1881
   71MOL    C7921219   3.645   2.971   1.705 -0.4918 -0.0936  0.1156
   71MOL    O8021220   3.545   2.903   1.722  1.5074 -0.3733 -0.3612
   71MOL    O8121221   3.672   3.047   1.600  0.0615 -0.0621 -0.1304
   71MOL    C8221222   3.567   3.071   1.504  0.0693  0.0471  0.0462
   71MOL    C8321223   3.581   3.218   1.460 -0.5124 -1.4414 -0.2555
   71MOL    H8421224   3.818   3.090   1.977 -0.7120  0.8802  0.9208
   71MOL    H8521225   3.643   3.097   1.935  1.1314  1.8897  2.2413
   71MOL    H8621226   3.849   2.979   1.744 -0.3136  0.8004  0.8781
   71MOL    H8721227   3.590   3.022   1.409  1.9923  0.7766  0.1203
   71MOL    H8821228   3.466   3.062   1.543 -0.1148  2.2526  0.1532
   71MOL    H8921229   3.533   3.267   1.545  0.4867  0.1616 -0.5948
   71MOL    H9021230   3.520   3.235   1.371 -0.5481  2.0004  0.3483
   71MOL    H9121231   3.680   3.259   1.439 -1.1396 -0.2404 -0.9657
   71MOL    C9221232   3.756   2.842   1.880  0.5659 -0.5449  0.1033
   71MOL    C9321233   3.652   2.809   1.994 -0.1977 -0.0838  0.0256
   71MOL    C9421234   3.700   2.877   2.124  0.7911  0.2809  0.3348
   71MOL    O9521235   3.801   2.846   2.185 -0.5425 -0.1428  0.1156
   71MOL    O9621236   3.612   2.966   2.166  0.2930 -0.0495 -0.1472
   71MOL    C9721237   3.624   3.049   2.285  0.6781  0.5142  0.1075
   71MOL    C9821238   3.496   3.115   2.329 -0.7031 -0.7443  0.0351
   71MOL    H9921239   3.758   2.764   1.805 -0.5209 -1.0076  0.5451
   71MOL   H10021240   3.850   2.839   1.935  1.2353  1.0916 -0.9124
   71MOL   H10121241   3.555   2.855   1.973  0.8160  0.9725 -2.5050
   71MOL   H10221242   3.663   2.987   2.365  1.2816  2.1967  1.1524
   71MOL   H10321243   3.710   3.114   2.268  0.5354  1.3563  2.4267
   71MOL   H10421244   3.415   3.046   2.355 -1.5610  0.1082 -0.3625
   71MOL   H10521245   3.475   3.185   2.248 -3.5760 -0.7172  0.7575
   71MOL   H10621246   3.514   3.165   2.424 -2.1247  1.0630 -0.6314
   71MOL   C10721247   3.638   2.652   1.997 -0.2180 -0.0890  0.1761
   71MOL   C10821248   3.513   2.584   2.056 -0.1248  0.1764 -0.4442
   71MOL   C10921249   3.506   2.627   2.199 -0.4319 -0.5992 -0.6453
   71MOL   O11021250   3.414   2.693   2.243 -0.0858  0.3609  0.3848
   71MOL   O11121251   3.621   2.590   2.273  0.1223  0.1571 -0.2404
   71MOL   C11221252   3.646   2.644   2.402 -0.1121  0.4735 -0.1250
   71MOL   C11321253   3.791   2.631   2.437 -0.3275  0.1011  0.0545
   71MOL   H11421254   3.641   2.621   1.892  1.1592  3.1750 -0.8062
   71MOL   H11521255   3.726   2.609   2.046 -0.8943 -1.0135  0.6041
   71MOL   H11621256   3.426   2.626   2.004  0.1056  1.8040  0.4825
   71MOL   H11721257   3.626   2.751   2.403 -0.6290  0.4001 -1.1740
   71MOL   H11821258   3.592   2.591   2.480  0.1341 -0.9159 -0.8727
   71MOL   H11921259   3.851   2.686   2.364  1.0224 -0.3324  0.8108
   71MOL   H12021260   3.818   2.525   2.436 -0.1005  0.1423  1.1634
   71MOL   H12121261   3.815   2.666   2.537 -1.4038  0.8561  0.0536
   71MOL   C12221262   3.535   2.429   2.034  0.3051 -0.6748  0.2372
   71MOL   C12321263   3.405   2.350   2.007  0.0829  0.3573 -0.0172
   71MOL   C12421264   3.326   2.414   1.883 -0.0010  0.4231 -0.0981
   71MOL   O12521265   3.205   2.396   1.866 -0.0367 -0.5265 -0.3429
   71MOL   O12621266   3.414   2.473   1.795 -0.2700  0.5905  0.2792
   71MOL   C12721267   3.366   2.524   1.671 -0.2306 -0.0707  0.7124
   71MOL   C12821268   3.481   2.592   1.597 -0.1888 -0.2595 -0.4251
   71MOL   H12921269   3.603   2.415   1.950  0.2279  1.5250 -0.2111
   71MOL   H13021270   3.588   2.394   2.122 -0.1564 -1.0973  0.3500
   71MOL   H13121271   3.433   2.256   1.960  0.0534  0.6563 -0.6348
   71MOL   H13221272   3.328   2.444   1.608  0.1538 -0.1739  0.6079
   71MOL   H13321273   3.298   2.607   1.687  0.5599  0.4127  1.6339
   71MOL   H13421274   3.510   2.681   1.652  1.6699 -1.4874  0.6378
   71MOL   H13521275   3.453   2.620   1.496  1.3553  1.4738 -0.3903
   71MOL   H13621276   3.565   2.524   1.580  0.4278  0.3225  0.2477
   71MOL   C13721277   3.307   2.318   2.122 -0.3387  0.3562  0.3615
   71MOL   C13821278   3.375   2.218   2.221 -0.7184  0.1275 -0.3470
   71MOL   C13921279   3.386   2.071   2.169  0.2344 -0.7006 -0.3653
   71MOL   O14021280   3.288   2.004   2.137  0.1329  0.5160 -0.3576
   71MOL   O14121281   3.512   2.025   2.172 -0.3656  0.6790 -0.2541
   71MOL   C14221282   3.549   1.904   2.112  0.0226 -0.2704  0.7790
   71MOL   C14321283   3.621   1.924   1.976 -0.1874  0.1699 -1.0073
   71MOL   H14421284   3.303   2.417   2.168  0.6841  1.2210 -1.3468
   71MOL   H14521285   3.205   2.296   2.091  0.0546 -1.0693  0.0438
   71MOL   H14621286   3.480   2.231   2.246 -1.1530  1.1255  1.0454
   71MOL   H14721287   3.625   1.857   2.173  0.1424  0.3297  1.0940
   71MOL   H14821288   3.466   1.833   2.116  0.0460 -0.3821 -0.6422
   71MOL   H14921289   3.726   1.951   1.983 -0.4393  0.4246  2.4742
   71MOL   H15021290   3.574   2.001   1.914  2.6313  0.8197 -2.4181
   71MOL   H15121291   3.618   1.836   1.912  0.6459 -0.5240 -0.0975
   71MOL   C15221292   3.313   2.220   2.360  0.9361 -0.3412  0.5609
   71MOL   C15321293   3.380   2.303   2.470 -0.3491 -0.3614 -0.8720
   71MOL   C15421294   3.515   2.247   2.519  0.0495 -0.1290  0.2376
   71MOL   O15521295   3.547   2.129   2.497 -0.1841 -0.3971  0.2010
   71MOL   O15621296   3.573   2.330   2.597  0.2160 -0.2235 -0.6876
   71MOL   C15721297   3.678   2.285   2.681  0.6247  0.1876  0.2488
   71MOL   C15821298   3.712   2.388   2.789  0.2849  0.1852 -0.3080
   71MOL   H15921299   3.210   2.256   2.351  1.5945  1.4290 -0.1917
   71MOL   H16021300   3.286   2.118   2.388 -0.1010 -0.3603 -0.4736
   71MOL   H16121301   3.412   2.398   2.427  0.4932 -1.0728 -1.8503
   71MOL   H16221302   3.671   2.183   2.718 -2.6185  0.0876 -0.4638
   71MOL   H16321303   3.767   2.270   2.620 -0.6916 -4.4872 -0.7154
   71MOL   H16421304   3.643   2.472   2.793 -0.0236 -0.1065  0.5087
   71MOL   H16521305   3.808   2.438   2.774 -0.1475  0.9483 -0.5755
   71MOL   H16621306   3.709   2.335   2.884 -0.5882 -2.6537 -1.8609
   71MOL   C16721307   3.294   2.327   2.593  0.3951 -0.9668 -0.2605
   71MOL   C16821308   3.266   2.215   2.695 -0.3428  0.6628 -0.1306
   71MOL   C16921309   3.151   2.122   2.656 -0.6659 -0.5793 -0.0317
   71MOL   O17021310   3.061   2.162   2.581 -0.0598  0.1950  0.1151
   71MOL   O17121311   3.146   2.004   2.723  0.0543 -0.0379  0.2937
   71MOL   C17221312   3.036   1.912   2.704  0.5634  0.8147  0.3719
   71MOL   C17321313   3.077   1.773   2.766  0.7265  0.3222  0.0221
   71MOL   H17421314   3.347   2.406   2.647  1.0567 -0.5306 -1.5183
   71MOL   H17521315   3.209   2.392   2.571  2.0165  1.6942  1.0886
   71MOL   H17621316   3.350   2.146   2.702 -1.2463 -0.3056  1.3864
   71MOL   H17721317   2.939   1.942   2.742  1.0440  0.8985  1.5559
   71MOL   H17821318   3.024   1.903   2.596 -3.4464  2.6104  0.5823
   71MOL   H17921319   2.996   1.700   2.769  1.0732 -0.0021  1.8105
   71MOL   H18021320   3.111   1.779   2.870 -0.9999 -0.6999  0.6607
   71MOL   H18121321   3.151   1.722   2.705  1.7567 -0.0288  1.5556
   71MOL   C18221322   3.226   2.280   2.834  0.3723  0.8704  0.4885
   71MOL   C18321323   3.348   2.321   2.929  0.1942 -0.3716 -0.0955
   71MOL   C18421324   3.381   2.212   3.030 -0.2724  0.3293 -0.1483
   71MOL   O18521325   3.357   2.212   3.153  0.8825 -0.0305 -0.7585
   71MOL   O18621326   3.439   2.107   2.969 -0.5335  0.3233 -0.4321
   71MOL   C18721327   3.480   1.990   3.040  0.2842  0.0145  0.3715
   71MOL   C18821328   3.346   1.919   3.071  0.0107 -0.6742 -0.0222
   71MOL   H18921329   3.157   2.362   2.813  0.5292  0.1723 -3.0516
   71MOL   H19021330   3.178   2.207   2.900  2.1758 -1.0557 -0.2759
   71MOL   H19121331   3.437   2.340   2.869 -0.2901  0.1041 -0.6852
   71MOL   H19221332   3.541   1.921   2.981  0.8314  0.1791  0.7475
   71MOL   H19321333   3.533   2.019   3.130 -0.1736  1.1257  0.3031
   71MOL   H19421334   3.271   1.973   3.129  0.9639 -0.4954  1.0761
   71MOL   H19521335   3.378   1.822   3.109 -0.4356 -1.0042 -0.4844
   71MOL   H19621336   3.294   1.894   2.979  0.7690 -0.3972 -0.5324
   71MOL   C19721337   3.298   2.446   3.011  0.0808 -0.1713 -0.0611
   71MOL   C19821338   3.284   2.579   2.933  0.0696  0.1759 -0.8502
   71MOL   C19921339   3.416   2.623   2.885 -0.2076  0.0194 -0.0581
   71MOL   O20021340   3.449   2.601   2.769  0.2958  0.1890  0.2943
   71MOL   O20121341   3.500   2.665   2.989  0.4090  0.3383  0.5807
   71MOL   C20221342   3.636   2.679   2.960 -0.7326 -0.8433  0.5929
   71MOL   C20321343   3.720   2.588   3.046 -1.0349 -0.5235 -0.6473
   71MOL   H20421344   3.210   2.416   3.069 -0.5911  1.0132 -0.4486
   71MOL   H20521345   3.368   2.462   3.093 -1.9579  0.0832  1.6796
   71MOL   H20621346   3.220   2.562   2.847  0.8802 -1.0292 -1.2387
   71MOL   H20721347   3.667   2.672   2.856 -1.3263 -0.1184  0.3657
   71MOL   H20821348   3.670   2.780   2.981 -3.3063  0.0252  0.6957
   71MOL   H20921349   3.706   2.630   3.145  1.3999  1.2109 -0.9885
   71MOL   H21021350   3.825   2.584   3.016 -0.1603 -2.9523  2.4453
   71MOL   H21121351   3.691   2.483   3.042 -0.5516 -0.6345 -1.4161
   71MOL   C21221352   3.212   2.682   3.018  0.3628 -0.2336 -0.4676
   71MOL   C21321353   3.171   2.814   2.953  0.0278 -0.2666 -0.1082
   71MOL   C21421354   3.200   2.937   3.045 -0.6125  0.4971  0.6868
   71MOL   O21521355   3.281   3.023   3.014 -0.7074 -0.0946 -0.4015
   71MOL   O21621356   3.139   2.918   3.167  0.2843  0.0750 -0.7280
   71MOL   C21721357   3.161   3.009   3.275 -0.3756 -0.0375 -0.4235
   71MOL   C21821358   3.070   3.136   3.260 -0.2790  0.0844 -0.3109
   71MOL   H21921359   3.125   2.636   3.064  0.8242  0.7016  1.4181
   71MOL   H22021360   3.270   2.703   3.108 -2.4076  0.3274  1.2430
   71MOL   H22121361   3.219   2.826   2.856 -0.9529  1.7976 -0.3758
   71MOL   H22221362   3.141   2.942   3.358 -0.4157 -0.9631 -1.1719
   71MOL   H22321363   3.265   3.041   3.276 -1.0463  2.2457 -0.0472
   71MOL   H22421364   2.967   3.107   3.241  0.3735 -2.7937  0.2835
   71MOL   H22521365   3.115   3.188   3.175  2.1340 -1.2043  0.1347
   71MOL   H22621366   3.090   3.205   3.342  1.5211 -2.2678  1.3181
   71MOL   C22721367   3.022   2.805   2.909 -0.2498  0.5164  0.0248
   71MOL   C22821368   2.990   2.704   2.792  0.6174  0.4016  0.2363
   71MOL   C22921369   3.070   2.754   2.668 -0.2462 -0.0337 -0.3376
   71MOL   O23021370   3.103   2.870   2.657 -0.0013  0.0891 -0.6635
   71MOL   O23121371   3.085   2.664   2.570  0.5515  0.0532  0.0110
   71MOL   C23221372   3.140   2.705   2.446 -0.7814 -0.3979  0.5776
   71MOL   C23321373   3.049   2.780   2.348 -0.0244 -0.5227  0.5967
   71MOL   H23421374   2.966   2.765   2.994  2.2107 -1.1398  0.9042
   71MOL   H23521375   2.976   2.900   2.881 -1.1994 -0.1905 -0.8840
   71MOL   H23621376   3.018   2.599   2.803 -0.5017  0.0369 -0.3030
   71MOL   H23721377   3.231   2.762   2.466 -0.7177  0.3618 -1.6767
   71MOL   H23821378   3.169   2.612   2.398 -1.6534 -0.8638  0.9489
   71MOL   H23921379   3.102   2.827   2.265 -0.6297  1.3732  1.2508
   71MOL   H24021380   3.003   2.861   2.404 -2.4142 -2.0240  0.8508
   71MOL   H24121381   2.976   2.715   2.300  0.0275 -0.8427  0.9534
   71MOL   C24221382   2.840   2.701   2.764 -0.6967 -0.0521  0.1792
   71MOL   C24321383   2.745   2.658   2.874  0.0367  0.6287 -0.7022
   71MOL   C24421384   2.801   2.526   2.926  0.4072 -0.1175 -0.0919
   71MOL   O24521385   2.863   2.531   3.031 -0.5887 -0.7628  0.2119
   71MOL   O24621386   2.775   2.423   2.847  0.0955  0.0645  0.1757
   71MOL   C24721387   2.786   2.292   2.911  0.1699 -0.4328 -0.0935
   71MOL   C24821388   2.747   2.187   2.805  0.2164 -0.2842  0.0172
   71MOL   H24921389   2.794   2.796   2.734 -0.3514  0.4600  1.2527
   71MOL   H25021390   2.820   2.637   2.678  0.6410 -1.5507  0.9584
   71MOL   H25121391   2.739   2.732   2.954 -2.6593 -2.6676  2.2713
   71MOL   H25221392   2.884   2.263   2.948  0.5622  2.4742  1.2144
   71MOL   H25321393   2.725   2.286   3.002 -0.6614  3.6081 -0.3243
   71MOL   H25421394   2.753   2.084   2.840 -2.2634 -0.9995 -1.6117
   71MOL   H25521395   2.813   2.197   2.719 -0.1207  0.4343 -0.1620
   71MOL   H25621396   2.645   2.210   2.777  0.7379  2.6751  0.4326
   71MOL   C25721397   2.605   2.646   2.825  0.3928  0.2844 -0.3398
   71MOL   C25821398   2.499   2.656   2.927  1.2692  0.3109  0.8868
   71MOL   C25921399   2.483   2.543   3.035 -0.4750  0.1889  0.0820
   71MOL   O26021400   2.450   2.434   2.994  0.3368  0.1373 -0.1477
   71MOL   O26121401   2.532   2.586   3.156  0.0367 -0.2176  0.4178
   71MOL   C26221402   2.530   2.499   3.266  0.3731 -0.1412 -0.0134
   71MOL   C26321403   2.664   2.423   3.293 -0.1239  0.7322  0.2350
   71MOL   H26421404   2.584   2.725   2.752 -0.5149  0.5314  0.1843
   71MOL   H26521405   2.595   2.555   2.765  3.1337  0.3813 -1.0083
   71MOL   H26621406   2.518   2.749   2.979 -1.6616  0.9077  0.9947
   71MOL   H26721407   2.504   2.551   3.358 -0.4050  0.6089 -0.6560
   71MOL   H26821408   2.453   2.424   3.246 -0.2160  0.4399  0.0578
   71MOL   H26921409   2.689   2.358   3.209  0.8905 -1.3533  2.0727
   71MOL   H27021410   2.660   2.352   3.376  0.3095  1.5450  0.9601
   71MOL   H27121411   2.752   2.485   3.313  0.0344  1.0090 -1.2591
   71MOL   C27221412   2.358   2.666   2.859 -0.2746 -0.0217  0.0448
   71MOL   C27321413   2.231   2.694   2.950 -0.8649  0.0137 -0.1650
   71MOL   C27421414   2.109   2.657   2.878  0.3589 -0.7974  0.6018
   71MOL   O27521415   2.026   2.591   2.930 -0.4447  0.2803 -0.1229
   71MOL   O27621416   2.092   2.706   2.755 -0.2702  0.3102 -1.0253
   71MOL   C27721417   1.984   2.662   2.676 -0.3909 -0.3312 -0.5609
   71MOL   C27821418   2.023   2.686   2.537  0.4180  0.3697  0.7223
   71MOL   H27921419   2.362   2.753   2.793 -1.5413  0.0100 -0.0126
   71MOL   H28021420   2.343   2.576   2.799 -0.8160  0.7355 -0.9818
   71MOL   H28121421   2.228   2.627   3.036  1.4909 -2.3036 -1.8114
   71MOL   H28221422   1.965   2.556   2.689  1.2678 -0.1065  4.7679
   71MOL   H28321423   1.892   2.717   2.696 -0.1879  0.5057 -1.8252
   71MOL   H28421424   2.021   2.793   2.519 -0.4035  0.0909 -0.9529
   71MOL   H28521425   1.955   2.637   2.466  2.1470  0.5999 -1.1532
   71MOL   H28621426   2.122   2.645   2.520 -0.6766 -1.5370 -1.4665
   71MOL   C28721427   2.229   2.842   3.001 -0.6820 -0.0255  0.2034
   71MOL   C28821428   2.113   2.884   3.093  0.3689  0.2746 -0.2661
   71MOL   C28921429   2.094   3.032   3.111  0.2113 -0.8715 -0.2595
   71MOL   O29021430   1.988   3.099   3.090  0.0128 -0.2234  0.6022
   71MOL   O29121431   2.206   3.087   3.149  0.3274 -0.1489  0.4261
   71MOL   C29221432   2.205   3.230   3.177 -0.0367  0.2129  0.1816
   71MOL   C29321433   2.342   3.286   3.181 -0.4395 -0.5638 -0.4930
   71MOL   H29421434   2.325   2.871   3.044 -1.6131 -0.1062  2.4389
   71MOL   H29521435   2.216   2.907   2.915  0.2902 -1.3379 -0.9430
   71MOL   H29621436   2.022   2.836   3.058  1.8646 -2.6982 -0.1710
   71MOL   H29721437   2.147   3.279   3.099 -0.5937 -0.4161  0.1956
   71MOL   H29821438   2.167   3.259   3.274 -3.0951 -1.2542 -0.5297
   71MOL   H29921439   2.329   3.388   3.216  1.5234 -0.3097 -0.4983
   71MOL   H30021440   2.393   3.277   3.085  2.6842  1.5568  0.8958
   71MOL   H30121441   2.395   3.230   3.258 -0.9926  0.6843  0.8118
   71MOL   H30221442   2.135   2.838   3.189 -2.2922 -0.2450  0.1358
   72MOL     C121443   4.918   0.430   2.826  0.3373 -0.1480  0.0986
   72MOL     C221444   4.888   0.280   2.812 -0.4160  0.2107 -0.7418
   72MOL     C321445   5.005   0.189   2.872  0.3980 -0.2756  0.3908
   72MOL     O421446   5.021   0.075   2.835  0.3158  0.1919 -0.2875
   72MOL     O521447   5.071   0.247   2.968  1.0119 -0.3010 -0.4820
   72MOL     C621448   5.160   0.177   3.055 -0.2155 -0.0046 -0.6322
   72MOL     C721449   5.094   0.170   3.191 -0.0564 -0.1275 -0.2827
   72MOL     H821450   4.847   0.505   2.792 -0.7565 -0.9445  0.5908
   72MOL     H921451   5.016   0.448   2.781  0.5693 -1.1134  0.2117
   72MOL    H1021452   4.799   0.254   2.869  0.2382 -0.6439 -0.0871
   72MOL    H1121453   5.174   0.073   3.027 -1.7936 -0.1486 -0.9073
   72MOL    H1221454   5.256   0.230   3.058 -1.1175  1.6055  0.4184
   72MOL    H1321455   5.163   0.122   3.260  0.3881  1.3546  0.3054
   72MOL    H1421456   4.997   0.119   3.196  1.1878 -2.4322  1.4155
   72MOL    H1521457   5.088   0.272   3.228  1.3527 -0.0972 -0.1255
   72MOL    H1621458   4.937   0.461   2.928 -2.2102 -0.7729  0.7974
   72MOL    C1721459   4.829   0.236   2.675  0.1046  0.5464 -0.3142
   72MOL    C1821460   4.893   0.267   2.547  0.1021  0.1418 -0.0439
   72MOL    C1921461   5.022   0.181   2.528  0.1495  0.0457 -0.5937
   72MOL    O2021462   5.137   0.221   2.536 -0.3651 -0.7158  0.5202
   72MOL    O2121463   4.992   0.056   2.483  0.6521 -0.6089  0.0456
   72MOL    C2221464   5.081   7.882   2.411 -0.4106 -0.4628  0.2001
   72MOL    C2321465   5.038   7.846   2.272  1.0438  0.2633  0.6049
   72MOL    H2421466   4.812   0.128   2.678 -0.1148  0.6223  3.3732
   72MOL    H2521467   4.726   0.273   2.670 -0.3434 -0.8666 -2.0676
   72MOL    H2621468   4.825   0.224   2.474 -1.1482 -0.0377  1.2066
   72MOL    H2721469   5.182   0.014   2.398 -0.1981 -0.8683  0.5756
   72MOL    H2821470   5.077   7.795   2.476 -3.5821  0.9139  1.9743
   72MOL    H2921471   5.103   7.765   2.242  1.1481 -1.0897  4.1850
   72MOL    H3021472   5.059   0.023   2.207  1.0248 -1.0571 -1.1480
   72MOL    H3121473   4.932   7.825   2.259  0.8192  2.5822 -1.6116
   72MOL    C3221474   4.919   0.415   2.506 -0.5241  0.1113 -0.4218
   72MOL    C3321475   4.797   0.505   2.489 -0.5410 -0.1370 -0.0679
   72MOL    C3421476   4.692   0.452   2.385  0.5054 -0.1799 -0.0943
   72MOL    O3521477   4.720   0.443   2.264 -0.4256  0.1097 -0.7588
   72MOL    O3621478   4.570   0.421   2.435 -0.2923  0.1039  0.2119
   72MOL    C3721479   4.480   0.358   2.347 -0.4760 -0.3102  0.3041
   72MOL    C3821480   4.479   0.211   2.359  0.1533 -0.3125  0.4988
   72MOL    H3921481   4.992   0.460   2.573 -0.7806  0.5266 -0.4196
   72MOL    H4021482   4.978   0.418   2.414  2.5474 -0.8608  1.4431
   72MOL    H4121483   4.741   0.497   2.583  0.6843  2.7191  0.9626
   72MOL    H4221484   4.381   0.391   2.377 -0.2874  1.2752 -0.7418
   72MOL    H4321485   4.468   0.400   2.247  2.5950  0.8667  0.3570
   72MOL    H4421486   4.382   0.176   2.325  1.2540 -0.5712 -2.5242
   72MOL    H4521487   4.493   0.189   2.465 -0.8610  4.1895  1.6637
   72MOL    H4621488   4.562   0.164   2.307  0.0307 -0.0014  0.0215
   72MOL    C4721489   4.838   0.655   2.465  0.4950 -0.1812  0.0948
   72MOL    C4821490   4.715   0.752   2.482 -0.4352 -0.3678  0.1911
   72MOL    C4921491   4.747   0.894   2.436  0.0604 -0.1704  0.7621
   72MOL    O5021492   4.669   0.952   2.361  0.7577 -0.0038 -0.1949
   72MOL    O5121493   4.854   0.948   2.492  0.1095 -0.2903 -0.2571
   72MOL    C5221494   4.900   1.077   2.462 -0.1241 -0.6080 -0.0771
   72MOL    C5321495   4.979   1.089   2.333 -0.1109 -0.3382 -0.0559
   72MOL    H5421496   4.922   0.692   2.524 -0.0988 -0.0939  0.8954
   72MOL    H5521497   4.869   0.662   2.360 -1.0155  2.7504 -0.2241
   72MOL    H5621498   4.634   0.710   2.423  0.0059 -0.5816 -0.2710
   72MOL    H5721499   4.813   1.142   2.468  1.7132  1.8572  0.6551
   72MOL    H5821500   4.961   1.105   2.548 -0.9371 -1.6986  0.8673
   72MOL    H5921501   5.060   1.162   2.338 -0.0190 -0.4428 -0.0120
   72MOL    H6021502   4.916   1.125   2.252 -1.0353  1.5324  1.4475
   72MOL    H6121503   5.030   0.998   2.303  1.6291 -0.4042  2.8429
   72MOL    C6221504   4.682   0.759   2.641  0.9833 -0.7460  0.3953
   72MOL    C6321505   4.547   0.688   2.668  0.5508  0.3214 -0.4368
   72MOL    C6421506   4.422   0.757   2.606  0.0339  0.0741 -0.4617
   72MOL    O6521507   4.350   0.695   2.527  0.1191 -0.1087  0.1757
   72MOL    O6621508   4.407   0.889   2.640 -0.3668  0.4218  0.1571
   72MOL    C6721509   4.304   0.963   2.586 -0.5129  0.4456 -0.3702
   72MOL    C6821510   4.373   1.100   2.555 -0.1269  0.0231 -0.2384
   72MOL    H6921511   4.768   0.727   2.699  1.3024 -1.0782 -0.2572
   72MOL    H7021512   4.667   0.865   2.662 -0.4861 -0.5894 -1.2964
   72MOL    H7121513   4.554   0.596   2.609 -1.1444 -1.1573  1.5541
   72MOL    H7221514   4.266   0.910   2.499 -1.0328 -0.6927  0.5425
   72MOL    H7321515   4.235   0.969   2.670  0.6555  3.0324  0.4775
   72MOL    H7421516   4.469   1.105   2.504 -0.1264  1.7154 -0.1121
   72MOL    H7521517   4.380   1.158   2.648 -1.5470 -1.8901  1.1125
   72MOL    H7621518   4.298   1.150   2.494  1.0121  2.0995  0.0220
   72MOL    C7721519   4.527   0.648   2.813  0.0396 -0.2064  0.2259
   72MOL    C7821520   4.449   0.522   2.843  0.8151 -0.7178  0.5162
   72MOL    C7921521   4.297   0.533   2.814 -0.2490 -0.5859  0.3284
   72MOL    O8021522   4.242   0.449   2.743 -0.2174  0.4745 -0.0034
   72MOL    O8121523   4.238   0.646   2.877 -0.0962  0.1050  0.2366
   72MOL    C8221524   4.109   0.685   2.847 -0.4617 -0.5198  0.2103
   72MOL    C8321525   4.036   0.699   2.978  0.8145 -0.1109 -0.1883
   72MOL    H8421526   4.627   0.633   2.853 -0.5264  0.5270  1.9382
   72MOL    H8521527   4.500   0.746   2.853 -2.2316 -0.1415 -1.3591
   72MOL    H8621528   4.488   0.443   2.778 -2.4543 -1.5204 -0.5739
   72MOL    H8721529   4.115   0.772   2.783 -1.3253 -0.1013  0.6945
   72MOL    H8821530   4.058   0.605   2.791 -3.0131  0.7095  0.7056
   72MOL    H8921531   4.063   0.614   3.040  0.4483 -1.0071 -1.2225
   72MOL    H9021532   3.927   0.701   2.966  0.6097  0.2618  1.6916
   72MOL    H9121533   4.057   0.793   3.028  1.8336 -1.3539  1.7657
   72MOL    C9221534   4.471   0.482   2.996  0.3691  0.2340 -1.0234
   72MOL    C9321535   4.440   0.336   3.037 -0.7520 -0.1956  0.5363
   72MOL    C9421536   4.289   0.304   3.048 -1.1628 -0.2081 -0.2489
   72MOL    O9521537   4.224   0.349   3.139 -0.4174  0.5448 -0.2208
   72MOL    O9621538   4.232   0.234   2.944 -0.3092 -0.3606  0.0123
   72MOL    C9721539   4.091   0.240   2.937  0.6920 -0.0494  0.7046
   72MOL    C9821540   4.023   0.164   2.825 -0.4440  0.2526 -0.1183
   72MOL    H9921541   4.572   0.509   3.027  0.4109  2.2152 -2.8013
   72MOL   H10021542   4.413   0.544   3.065  1.6731  3.0904 -2.3988
   72MOL   H10121543   4.485   0.270   2.963 -1.0515  1.4917 -1.1774
   72MOL   H10221544   4.058   0.195   3.031 -1.8182 -1.2660 -0.6817
   72MOL   H10321545   4.062   0.343   2.918  0.0472 -0.4117 -0.3064
   72MOL   H10421546   3.924   0.123   2.840 -0.4524  0.2466 -0.1865
   72MOL   H10521547   4.078   0.072   2.802  2.2783  0.5288  4.6968
   72MOL   H10621548   4.028   0.242   2.749 -0.1791  1.7213  1.3635
   72MOL   C10721549   4.513   0.300   3.167 -0.3246 -0.2645 -0.2470
   72MOL   C10821550   4.514   0.155   3.219 -0.0588  0.3959  0.5208
   72MOL   C10921551   4.551   0.164   3.369 -0.0862 -0.6934  0.6314
   72MOL   O11021552   4.468   0.161   3.458 -0.2895  0.0934 -0.6066
   72MOL   O11121553   4.693   0.165   3.385  0.6088 -0.1589  0.8449
   72MOL   C11221554   4.744   0.159   3.516  0.1897 -0.9027 -0.5386
   72MOL   C11321555   4.890   0.122   3.524 -0.1912 -0.3396  0.0604
   72MOL   H11421556   4.616   0.328   3.145 -1.0230  1.6300 -1.2575
   72MOL   H11521557   4.468   0.361   3.245  0.8393  1.3431 -0.7974
   72MOL   H11621558   4.408   0.130   3.228 -0.3132  2.3681  3.9443
   72MOL   H11721559   4.730   0.258   3.560  0.8437 -0.2392 -1.7918
   72MOL   H11821560   4.684   0.096   3.581 -0.6083  0.9424  0.5324
   72MOL   H11921561   4.950   0.183   3.457 -0.2136 -0.8454 -0.4269
   72MOL   H12021562   4.909   0.016   3.507  2.3021  0.0460  0.2942
   72MOL   H12121563   4.927   0.140   3.625  1.6546 -0.2607 -0.6167
   72MOL   C12221564   4.594   0.062   3.120 -0.5090  0.0247  0.0186
   72MOL   C12321565   4.495   7.876   3.034  0.0435  0.0340  1.2783
   72MOL   C12421566   4.499   7.737   3.079 -0.0342  0.4257  0.9256
   72MOL   O12521567   4.597   7.664   3.053 -0.2700  0.6509  0.6673
   72MOL   O12621568   4.384   7.695   3.130 -0.2369  0.0993 -0.3269
   72MOL   C12721569   4.377   7.556   3.176  0.3967 -0.0628 -0.1062
   72MOL   C12821570   4.293   7.553   3.310 -0.3482  0.0888  0.2873
   72MOL   H12921571   4.657   0.126   3.058  3.1125 -0.6585  2.8342
   72MOL   H13021572   4.667   0.004   3.176 -0.7667  0.3506  0.7029
   72MOL   H13121573   4.394   0.003   3.055 -0.2604 -1.1163  1.7913
   72MOL   H13221574   4.318   7.496   3.106  1.4313  0.3795 -1.3690
   72MOL   H13321575   4.474   7.509   3.189  1.3107  1.7744 -0.2044
   72MOL   H13421576   4.272   7.455   3.353  1.6935  1.2291  4.0955
   72MOL   H13521577   4.193   7.583   3.280 -0.2966  0.2194  0.2475
   72MOL   H13621578   4.335   7.625   3.379 -0.0217  1.3064 -1.1602
   72MOL   C13721579   4.522   7.888   2.883  0.2369  0.4351 -0.1246
   72MOL   C13821580   4.457   7.787   2.786  0.9979  0.2759 -0.6752
   72MOL   C13921581   4.502   7.809   2.636 -0.0767  0.5864 -0.4394
   72MOL   O14021582   4.427   7.853   2.553 -0.2213  0.3965 -0.2790
   72MOL   O14121583   4.631   7.771   2.618  0.2213  0.2620 -0.4824
   72MOL   C14221584   4.689   7.767   2.489 -0.4835 -0.0169 -0.7259
   72MOL   C14321585   4.672   7.636   2.419 -0.0617  0.0843 -0.1100
   72MOL   H14421586   4.492   0.079   2.850  3.1832  1.2919 -0.3856
   72MOL   H14521587   4.630   7.886   2.865  0.2093  0.7995 -0.3365
   72MOL   H14621588   4.498   7.688   2.803 -1.0576 -0.9230 -2.3852
   72MOL   H14721589   4.648   7.850   2.432  1.4524  0.9019 -0.8342
   72MOL   H14821590   4.795   7.785   2.510 -0.7843 -0.3485  1.1340
   72MOL   H14921591   4.565   7.620   2.413 -0.3653  1.9470  0.1060
   72MOL   H15021592   4.698   7.552   2.483  1.7198  1.2629  0.7565
   72MOL   H15121593   4.725   7.638   2.324 -1.2642 -1.9882 -0.8500
   72MOL   C15221594   4.300   7.779   2.792 -0.0553  0.2749 -0.2064
   72MOL   C15321595   4.230   7.641   2.729  0.2190 -1.3599 -0.6030
   72MOL   C15421596   4.083   7.664   2.696 -0.0493 -0.7586  0.1830
   72MOL   O15521597   4.042   7.664   2.582  0.2344 -0.5104  0.5274
   72MOL   O15621598   4.013   7.696   2.808  0.2575 -0.1221  0.2964
   72MOL   C15721599   3.872   7.703   2.809  0.4222 -0.4417  0.0460
   72MOL   C15821600   3.801   7.568   2.840  0.0783 -0.0229  0.1054
   72MOL   H15921601   4.252   7.785   2.889 -0.5416 -2.1250 -0.2806
   72MOL   H16021602   4.269   7.866   2.733  0.1032  0.0105 -0.6870
   72MOL   H16121603   4.283   7.626   2.635  0.8949  0.7351 -0.5995
   72MOL   H16221604   3.853   7.769   2.893 -0.8586  1.8103 -1.9503
   72MOL   H16321605   3.835   7.751   2.719 -0.9557 -1.6580 -0.0441
   72MOL   H16421606   3.867   7.482   2.837 -0.4816 -0.6238  3.5599
   72MOL   H16521607   3.720   7.561   2.767 -1.9709  1.8114  2.1101
   72MOL   H16621608   3.758   7.555   2.939  0.9388  0.8186  0.5854
   72MOL   C16721609   4.246   7.523   2.830  0.4388 -0.6496 -0.3455
   72MOL   C16821610   4.232   7.381   2.772  0.5973 -0.1778 -0.5900
   72MOL   C16921611   4.254   7.272   2.880  0.2464 -0.0820 -0.3673
   72MOL   O17021612   4.253   7.303   3.000 -0.1312  0.4546 -0.6932
   72MOL   O17121613   4.272   7.144   2.830 -0.3306  0.0622 -0.0890
   72MOL   C17221614   4.310   7.037   2.909 -0.1190 -0.7483  0.6259
   72MOL   C17321615   4.404   6.953   2.827 -0.1589 -0.5803  0.0711
   72MOL   H17421616   4.342   7.527   2.881  0.0627 -0.7614  0.3764
   72MOL   H17521617   4.180   7.544   2.914  0.8697 -1.2163  0.1375
   72MOL   H17621618   4.129   7.370   2.738  0.4339  0.4444 -0.2901
   72MOL   H17721619   4.354   7.066   3.004  0.3194  0.6160  0.0113
   72MOL   H17821620   4.222   6.977   2.932 -1.8077  1.0745 -0.8279
   72MOL   H17921621   4.427   6.863   2.882 -0.9161 -1.2473 -0.6893
   72MOL   H18021622   4.494   7.008   2.799 -0.1349  0.1500  1.5350
   72MOL   H18121623   4.368   6.928   2.727 -0.0924  3.4099 -1.0445
   72MOL   C18221624   4.329   7.360   2.651 -0.4483  0.0812  0.1704
   72MOL   C18321625   4.286   7.259   2.537 -0.5957  0.1875  0.7659
   72MOL   C18421626   4.409   7.235   2.449 -0.3642  0.0295 -0.5691
   72MOL   O18521627   4.430   7.307   2.357 -0.2289 -0.9528  0.0308
   72MOL   O18621628   4.491   7.137   2.500  0.1092 -0.0715  0.7330
   72MOL   C18721629   4.602   7.088   2.421  0.8768 -0.3591  0.3878
   72MOL   C18821630   4.723   7.194   2.425 -0.3368 -0.3990  0.0941
   72MOL   H18921631   4.350   7.454   2.599 -1.2042 -0.3290 -0.8966
   72MOL   H19021632   4.430   7.331   2.679  0.0395  0.8492 -0.7428
   72MOL   H19121633   4.254   7.164   2.578 -1.4109 -0.0789 -0.4571
   72MOL   H19221634   4.636   6.994   2.465 -1.3976 -0.8530  1.1968
   72MOL   H19321635   4.565   7.065   2.321 -0.2223 -2.3303  1.2013
   72MOL   H19421636   4.745   7.212   2.531  1.6600 -0.2727 -0.3238
   72MOL   H19521637   4.701   7.284   2.369 -0.6830 -0.3816  0.2597
   72MOL   H19621638   4.810   7.152   2.374  0.2732  0.5663  0.3348
   72MOL   C19721639   4.169   7.316   2.447 -0.7466  0.2509  0.0395
   72MOL   C19821640   4.023   7.323   2.508  0.0875 -0.6690  0.6459
   72MOL   C19921641   3.972   7.218   2.600  0.3204 -0.3423  0.0886
   72MOL   O20021642   3.929   7.252   2.705  0.5053 -0.2226  0.4954
   72MOL   O20121643   3.999   7.088   2.569  0.2694 -0.7206  0.0555
   72MOL   C20221644   3.967   6.983   2.657 -0.5046 -0.0116 -0.9899
   72MOL   C20321645   3.870   6.883   2.604  0.4364  0.2709  0.0251
   72MOL   H20421646   4.198   7.420   2.435 -2.2132  0.6119 -0.4931
   72MOL   H20521647   4.167   7.279   2.345 -0.2012 -0.5297  0.3025
   72MOL   H20621648   4.033   7.404   2.581 -1.0268 -1.5804  1.8135
   72MOL   H20721649   4.058   6.924   2.661 -0.1314  0.6015 -0.1609
   72MOL   H20821650   3.943   7.013   2.759 -0.8906  1.2817 -1.4392
   72MOL   H20921651   3.770   6.924   2.615  0.1749 -0.2469 -0.4018
   72MOL   H21021652   3.879   6.790   2.661  0.8678  0.4367  0.2342
   72MOL   H21121653   3.880   6.854   2.500 -1.1010  0.4154 -0.1666
   72MOL   C21221654   3.922   7.370   2.407 -0.3444 -0.0037 -1.0836
   72MOL   C21321655   3.890   7.269   2.291  0.0015 -0.3777  0.1396
   72MOL   C21421656   3.872   7.346   2.157 -0.0188  0.0530  1.1423
   72MOL   O21521657   3.953   7.332   2.064 -0.1134 -0.4180 -0.6448
   72MOL   O21621658   3.760   7.425   2.149 -0.2865  0.8022 -0.3162
   72MOL   C21721659   3.741   7.512   2.038  0.5551 -0.4829 -0.1581
   72MOL   C21821660   3.596   7.530   1.997 -0.0615  0.0819 -0.1950
   72MOL   H21921661   3.825   7.402   2.444 -0.2611  0.1837 -1.0243
   72MOL   H22021662   3.972   7.455   2.358  0.6685  0.2926  0.4374
   72MOL   H22121663   3.981   7.212   2.272  0.4437  0.1538  0.6263
   72MOL   H22221664   3.774   7.612   2.064  0.4117 -0.2935 -0.6925
   72MOL   H22321665   3.805   7.483   1.955 -1.6861 -2.2462 -1.3346
   72MOL   H22421666   3.587   7.597   1.912  0.0026 -0.5537 -0.7034
   72MOL   H22521667   3.529   7.566   2.075  0.0969 -0.3778  0.1534
   72MOL   H22621668   3.541   7.442   1.964 -0.1226 -0.4836  1.3633
   72MOL   C22721669   3.792   7.151   2.309  0.0913  0.1461 -0.7004
   72MOL   C22821670   3.638   7.182   2.316 -0.1176  0.3283  0.0453
   72MOL   C22921671   3.595   7.277   2.428 -0.2510  0.1432 -0.3297
   72MOL   O23021672   3.523   7.375   2.414  0.6573  0.0660 -0.1553
   72MOL   O23121673   3.633   7.239   2.551  0.0798 -0.4104  0.2957
   72MOL   C23221674   3.590   7.306   2.665 -0.4020 -0.1855 -0.3089
   72MOL   C23321675   3.447   7.273   2.714  0.9783  0.9670 -0.3483
   72MOL   H23421676   3.813   7.082   2.227  1.2000  0.1394 -0.4121
   72MOL   H23521677   3.827   7.098   2.397  1.5176  1.2602 -0.5894
   72MOL   H23621678   3.605   7.237   2.228  2.0755  2.3655  0.4411
   72MOL   H23721679   3.668   7.282   2.737  0.3109 -0.8073 -1.2836
   72MOL   H23821680   3.586   7.414   2.651 -2.9920  0.0693  1.8561
   72MOL   H23921681   3.428   7.309   2.815 -0.2052 -1.9503  0.5011
   72MOL   H24021682   3.418   7.169   2.724 -1.3672  1.8948  3.4446
   72MOL   H24121683   3.378   7.308   2.637  0.0112 -2.8600 -1.3098
   72MOL   C24221684   3.542   7.058   2.329 -0.1510  0.2933 -0.4515
   72MOL   C24321685   3.388   7.090   2.296 -0.6578  0.1841 -0.7366
   72MOL   C24421686   3.298   7.000   2.378 -0.1689 -0.3419 -0.2057
   72MOL   O24521687   3.208   7.051   2.440  0.2861  0.1975  0.2463
   72MOL   O24621688   3.318   6.865   2.365 -0.2150 -0.2683 -0.0440
   72MOL   C24721689   3.219   6.778   2.428  0.3826  0.3250  0.0430
   72MOL   C24821690   3.219   6.633   2.375  0.3387  0.1255 -0.1279
   72MOL   H24921691   3.581   6.976   2.269  0.5245 -0.0225  0.4031
   72MOL   H25021692   3.545   7.023   2.432  0.1167  0.0670 -0.5339
   72MOL   H25121693   3.370   7.192   2.329 -0.4529 -0.5639  1.7908
   72MOL   H25221694   3.245   6.769   2.534 -0.1785 -0.3851  0.1249
   72MOL   H25321695   3.120   6.823   2.432 -0.4831 -1.5545  0.2594
   72MOL   H25421696   3.317   6.587   2.359 -0.2221 -1.6141  1.2864
   72MOL   H25521697   3.171   6.624   2.278 -2.1563 -0.0351  1.0833
   72MOL   H25621698   3.176   6.563   2.446 -2.9860  1.4525 -0.7798
   72MOL   C25721699   3.349   7.081   2.144 -0.4538 -0.1402 -0.2947
   72MOL   C25821700   3.206   7.127   2.096 -0.2181 -0.8691  0.8188
   72MOL   C25921701   3.165   7.039   1.979 -0.4154 -0.3448  0.6371
   72MOL   O26021702   3.161   6.919   2.011  0.0348 -0.5496 -0.3747
   72MOL   O26121703   3.128   7.100   1.868 -0.0502  0.4323 -0.1026
   72MOL   C26221704   3.091   7.029   1.758 -0.3797  1.2105  0.3885
   72MOL   C26321705   3.186   7.062   1.639 -0.1015  0.8901 -0.6043
   72MOL   H26421706   3.421   7.139   2.085 -1.1625 -1.5216 -2.5863
   72MOL   H26521707   3.386   6.984   2.111 -0.1624  0.1095 -0.7151
   72MOL   H26621708   3.131   7.105   2.171  0.2948 -0.7094  1.3843
   72MOL   H26721709   3.088   6.921   1.777 -0.6446  0.2057 -4.7133
   72MOL   H26821710   2.986   7.045   1.735 -0.6080 -0.3478  0.2984
   72MOL   H26921711   3.145   7.037   1.541 -0.1209 -0.8364 -0.1652
   72MOL   H27021712   3.273   6.998   1.647 -0.4134  0.2500 -2.1521
   72MOL   H27121713   3.205   7.170   1.635 -2.0857  1.3352  0.9505
   72MOL   C27221714   3.202   7.275   2.054  0.3462 -0.1552 -0.4290
   72MOL   C27321715   3.227   7.392   2.157 -0.0890 -0.7228  0.4562
   72MOL   C27421716   3.132   7.373   2.275  0.4766 -0.3092 -0.1166
   72MOL   O27521717   3.020   7.321   2.261 -0.1030  0.0693  0.3458
   72MOL   O27621718   3.174   7.416   2.399  0.3376  0.1505  0.0671
   72MOL   C27721719   3.092   7.402   2.518 -0.8605  0.2144 -0.0648
   72MOL   C27821720   3.013   7.528   2.552  0.1627 -0.3066 -0.6003
   72MOL   H27921721   3.285   7.292   1.985 -0.1276  1.3459 -0.6623
   72MOL   H28021722   3.117   7.307   1.994  0.5225  1.5470  0.1874
   72MOL   H28121723   3.327   7.382   2.199  0.7128 -1.1397 -1.4709
   72MOL   H28221724   3.022   7.319   2.505  0.3654 -0.9559  0.7088
   72MOL   H28321725   3.149   7.377   2.607  0.0451 -1.6082 -1.1196
   72MOL   H28421726   3.084   7.610   2.562  0.5076 -0.6328 -0.4016
   72MOL   H28521727   2.960   7.513   2.646  1.4128  0.4807  0.2385
   72MOL   H28621728   2.951   7.569   2.472  0.3076  0.0232 -0.5457
   72MOL   C28721729   3.208   7.534   2.083  0.1886  0.7089 -0.1656
   72MOL   C28821730   3.206   7.652   2.190 -0.2007 -0.2387  0.0045
   72MOL   C28921731   3.248   7.787   2.129 -0.3661  0.2630 -0.2356
   72MOL   O29021732   3.169   7.878   2.104 -0.6171 -0.2496  0.1501
   72MOL   O29121733   3.386   7.798   2.130  0.1603 -0.2576 -0.3991
   72MOL   C29221734   3.454   7.905   2.066  0.5375  0.5570 -0.1564
   72MOL   C29321735   3.597   0.005   2.125  0.2309 -0.1006  0.2175
   72MOL   H29421736   3.271   7.559   1.997  0.8999 -2.7683 -0.7357
   72MOL   H29521737   3.111   7.546   2.034  1.0225 -0.0693 -2.0746
   72MOL   H29621738   3.109   7.657   2.239 -2.3616  0.4734 -4.1353
   72MOL   H29721739   3.458   7.877   1.960  0.7687 -0.9819  0.2400
   72MOL   H29821740   3.400   0.088   2.090 -2.0533 -0.4670 -1.8661
   72MOL   H29921741   3.653   0.070   2.058 -0.8236 -0.2380 -0.7977
   72MOL   H30021742   3.650   7.818   2.123 -2.5670 -1.8150  2.8318
   72MOL   H30121743   3.593   0.054   2.222  1.3463  1.4213 -0.4885
   72MOL   H30221744   3.271   7.628   2.275 -0.1994 -1.4665 -0.3344
   73MOL     C121745   1.521   5.802   4.283  1.0600 -0.2537 -0.2576
   73MOL     C221746   1.659   5.854   4.325 -0.1643 -0.1087  0.1250
   73MOL     C321747   1.710   5.966   4.232 -0.5372  0.0955 -0.2860
   73MOL     O421748   1.747   6.076   4.272 -0.0189  0.4398 -0.2565
   73MOL     O521749   1.708   5.933   4.101  0.3253 -0.1019 -0.0265
   73MOL     C621750   1.713   6.038   4.006  0.2130  0.2564 -0.4757
   73MOL     C721751   1.566   6.072   3.971  0.0709 -0.6452  0.5387
   73MOL     H821752   1.536   5.711   4.225 -1.5177  0.4962 -2.1923
   73MOL     H921753   1.472   5.868   4.212  0.9454 -0.1955 -0.1236
   73MOL    H1021754   1.633   5.915   4.412 -1.1932 -0.8622  0.3584
   73MOL    H1121755   1.766   6.129   4.034  1.8541 -0.6326 -0.6578
   73MOL    H1221756   1.769   6.016   3.916 -1.1176 -0.9258 -1.0426
   73MOL    H1321757   1.523   6.149   4.036  2.1146  0.2841  0.8593
   73MOL    H1421758   1.504   5.983   3.974 -1.6515  0.4375 -1.6870
   73MOL    H1521759   1.568   6.105   3.868 -0.5273 -0.2085  0.6689
   73MOL    H1621760   1.463   5.796   4.375  3.3223  0.1942  1.2192
   73MOL    C1721761   1.764   5.744   4.335 -0.3924 -0.2366  0.1877
   73MOL    C1821762   1.901   5.771   4.398 -0.2394 -0.6930  0.8175
   73MOL    C1921763   1.996   5.645   4.395 -0.1154 -0.3641 -0.4666
   73MOL    O2021764   2.093   5.636   4.316 -0.2486 -0.8193 -0.5602
   73MOL    O2121765   1.968   5.560   4.488  0.2019  0.5991 -0.6972
   73MOL    C2221766   2.047   5.453   4.516  0.7995 -0.8377 -0.1397
   73MOL    C2321767   2.104   5.464   4.658  0.4414 -0.3374  0.0990
   73MOL    H2421768   1.715   5.668   4.396  1.6224 -1.2974  0.5322
   73MOL    H2521769   1.778   5.680   4.247 -0.9290 -2.7485  1.8778
   73MOL    H2621770   1.951   5.836   4.327  0.1950 -1.9169 -0.0236
   73MOL    H2721771   1.977   5.370   4.526 -0.3179  0.3787  2.4429
   73MOL    H2821772   2.131   5.440   4.447  0.8302 -2.3451  0.1497
   73MOL    H2921773   2.029   5.484   4.735  1.8087  0.6491  1.1949
   73MOL    H3021774   2.169   5.552   4.654 -0.4450  0.2722 -1.3962
   73MOL    H3121775   2.156   5.372   4.683  0.0428 -0.7339 -0.5222
   73MOL    C3221776   1.891   5.839   4.541 -0.5408 -0.3148 -0.2972
   73MOL    C3321777   2.033   5.892   4.581 -0.3749 -0.5128  0.0905
   73MOL    C3421778   2.062   5.895   4.731  0.2661  0.1037  0.7034
   73MOL    O3521779   1.977   5.923   4.816 -0.0074  0.3227 -0.2027
   73MOL    O3621780   2.187   5.868   4.764  0.1107 -0.3042 -0.1023
   73MOL    C3721781   2.233   5.861   4.898 -0.4393  0.0731  0.0749
   73MOL    C3821782   2.367   5.798   4.880  0.3957 -0.0341  0.3573
   73MOL    H3921783   1.826   5.927   4.542 -2.1009 -1.4253  2.8444
   73MOL    H4021784   1.839   5.765   4.601 -1.4710 -1.4366 -2.4530
   73MOL    H4121785   2.104   5.824   4.535  0.1054  0.8401 -1.2165
   73MOL    H4221786   2.226   5.962   4.937 -0.9911  0.2774 -0.5358
   73MOL    H4321787   2.169   5.789   4.950 -0.2482 -0.4561 -0.4223
   73MOL    H4421788   2.426   5.809   4.971 -1.2282  1.9184  1.2279
   73MOL    H4521789   2.414   5.861   4.804  0.3154  0.2305  0.5261
   73MOL    H4621790   2.378   5.692   4.855 -0.1672  1.0942 -5.3162
   73MOL    C4721791   2.051   6.037   4.517  0.1331 -0.1553 -0.1546
   73MOL    C4821792   2.203   6.071   4.492  0.1039  0.0616 -0.6179
   73MOL    C4921793   2.239   6.183   4.588  0.4697  0.5367  0.3700
   73MOL    O5021794   2.267   6.163   4.707 -0.1814  0.4741 -1.0134
   73MOL    O5121795   2.227   6.307   4.529  0.2149  0.4858  0.5314
   73MOL    C5221796   2.272   6.426   4.592  0.3140 -0.1300  0.4084
   73MOL    C5321797   2.357   6.508   4.497 -0.1832 -0.6336  0.3522
   73MOL    H5421798   2.001   6.041   4.420 -2.1732 -1.8630  0.9310
   73MOL    H5521799   2.010   6.105   4.592 -1.6658  0.7128 -1.8758
   73MOL    H5621800   2.267   5.997   4.541  1.9072  0.8990 -1.6680
   73MOL    H5721801   2.185   6.482   4.628 -1.0394 -1.9121  0.0214
   73MOL    H5821802   2.325   6.401   4.684 -0.4215  0.5775  1.0303
   73MOL    H5921803   2.428   6.577   4.542  0.2870 -1.1398  0.3799
   73MOL    H6021804   2.296   6.567   4.428  1.9346  0.8361 -0.2840
   73MOL    H6121805   2.415   6.434   4.442  0.3279 -1.8152  2.4142
   73MOL    C6221806   2.241   6.091   4.349 -0.8487  0.3445  0.3503
   73MOL    C6321807   2.286   5.965   4.273 -0.0401 -0.3618 -0.7989
   73MOL    C6421808   2.418   5.906   4.328  0.5791 -0.1274  1.0836
   73MOL    O6521809   2.519   5.977   4.338 -0.4285  0.5199 -0.0441
   73MOL    O6621810   2.396   5.796   4.394 -0.1040 -0.1637 -0.1960
   73MOL    C6721811   2.493   5.760   4.491  0.4075  0.0228  0.1435
   73MOL    C6821812   2.445   5.640   4.575  0.1400  0.5058 -0.2389
   73MOL    H6921813   2.168   6.143   4.287  0.4322 -0.8793 -2.2520
   73MOL    H7021814   2.322   6.162   4.338 -1.7765  1.3889  0.1145
   73MOL    H7121815   2.213   5.886   4.290  0.2868 -0.4630  0.1911
   73MOL    H7221816   2.587   5.737   4.440  1.2976  2.4539  0.5852
   73MOL    H7321817   2.528   5.841   4.556  1.0216  0.7253 -1.0201
   73MOL    H7421818   2.381   5.659   4.660 -0.9636  0.5755 -1.0743
   73MOL    H7521819   2.536   5.606   4.625  1.2757  3.3256 -0.3030
   73MOL    H7621820   2.400   5.557   4.520  0.1874  1.0640 -1.1205
   73MOL    C7721821   2.295   5.990   4.123  0.7506  0.4316 -0.5634
   73MOL    C7821822   2.169   5.998   4.037 -0.0075 -0.0022 -0.0574
   73MOL    C7921823   2.086   5.869   4.028 -0.2246  0.4359  0.3706
   73MOL    O8021824   1.975   5.864   4.074  0.3913  0.6875 -0.1579
   73MOL    O8121825   2.159   5.769   3.969 -0.2777  0.6430 -0.1755
   73MOL    C8221826   2.107   5.633   3.980 -0.3780  0.2431 -0.1290
   73MOL    C8321827   2.214   5.549   3.922  0.0422  0.1849 -0.1073
   73MOL    H8421828   2.359   6.077   4.104  0.4890  1.3436  2.5118
   73MOL    H8521829   2.353   5.905   4.086 -0.0901 -0.6374  0.5446
   73MOL    H8621830   2.097   6.073   4.072 -0.3887 -0.2677 -0.2764
   73MOL    H8721831   2.087   5.611   4.085  2.5368 -1.8460  0.0225
   73MOL    H8821832   2.015   5.616   3.923 -0.3879  0.5573 -0.2129
   73MOL    H8921833   2.181   5.445   3.922  2.0795 -0.4895 -1.3801
   73MOL    H9021834   2.309   5.574   3.968 -0.4090  1.8230 -0.0623
   73MOL    H9121835   2.251   5.575   3.823 -0.6988  1.5533 -0.0236
   73MOL    C9221836   2.206   6.049   3.897  0.0853  0.9771  0.6625
   73MOL    C9321837   2.092   6.078   3.792 -0.6935  0.0812  0.1075
   73MOL    C9421838   2.038   5.950   3.729  0.0841 -0.8431  0.3962
   73MOL    O9521839   1.918   5.928   3.735 -0.3597 -0.0805  0.3030
   73MOL    O9621840   2.132   5.881   3.668  0.1880 -0.2439 -0.1804
   73MOL    C9721841   2.101   5.773   3.579 -0.0871  0.0234  0.2370
   73MOL    C9821842   2.166   5.813   3.448  0.3118  0.4688 -0.0498
   73MOL    H9921843   2.259   6.142   3.913  0.5156  0.5696  1.6445
   73MOL   H10021844   2.281   5.982   3.854 -0.7463  0.8820 -0.6772
   73MOL   H10121845   2.006   6.122   3.843  0.3512  1.0297  1.0873
   73MOL   H10221846   2.152   5.685   3.619 -1.5464  0.3486  2.9423
   73MOL   H10321847   1.994   5.749   3.584 -0.9343  3.3791 -0.5857
   73MOL   H10421848   2.092   5.864   3.387 -0.2024  1.0843  1.0852
   73MOL   H10521849   2.186   5.722   3.391  0.2411  0.0001  0.6767
   73MOL   H10621850   2.263   5.863   3.449  1.0593 -0.7692 -2.9721
   73MOL   C10721851   2.139   6.177   3.677  0.1236 -0.3952 -0.0515
   73MOL   C10821852   2.122   6.326   3.714  0.1261 -0.4396  0.0893
   73MOL   C10921853   1.974   6.371   3.687  1.0658 -0.7608  0.1006
   73MOL   O11021854   1.936   6.474   3.631 -0.0479 -0.1103 -0.2609
   73MOL   O11121855   1.880   6.279   3.728 -0.2177 -0.3315  0.2709
   73MOL   C11221856   1.740   6.305   3.705 -0.4319  0.1430  0.4530
   73MOL   C11321857   1.686   6.411   3.801  0.5684  0.6397  0.7223
   73MOL   H11421858   2.245   6.156   3.658  0.2962  1.0304 -0.6686
   73MOL   H11521859   2.095   6.150   3.581 -1.2121 -3.1822  1.2943
   73MOL   H11621860   2.142   6.342   3.820 -0.4712 -0.1416  0.1604
   73MOL   H11721861   1.703   6.320   3.604 -0.2324  1.5695  0.5859
   73MOL   H11821862   1.698   6.209   3.735  2.0676 -1.4089 -0.8905
   73MOL   H11921863   1.580   6.390   3.794  0.7940 -0.2558 -0.0576
   73MOL   H12021864   1.699   6.510   3.757  1.4379  0.5733  0.8193
   73MOL   H12121865   1.729   6.397   3.900  2.2616 -1.4397 -0.2631
   73MOL   C12221866   2.219   6.411   3.622 -0.3733 -0.9329 -0.2119
   73MOL   C12321867   2.370   6.392   3.648 -0.1259 -1.1497 -0.3055
   73MOL   C12421868   2.412   6.405   3.800  0.0441  0.0104  0.0828
   73MOL   O12521869   2.459   6.305   3.860 -0.4108  0.0489  0.1349
   73MOL   O12621870   2.391   6.524   3.859 -0.1499 -0.1386  0.1903
   73MOL   C12721871   2.449   6.550   3.991  0.4727  0.3215  0.2499
   73MOL   C12821872   2.599   6.559   3.975 -0.3997 -0.3503  0.2064
   73MOL   H12921873   2.195   6.369   3.524  1.7088 -2.3825 -0.1293
   73MOL   H13021874   2.192   6.515   3.602  0.1515 -0.9294 -0.9324
   73MOL   H13121875   2.408   6.294   3.617  2.0291 -0.3648 -0.2844
   73MOL   H13221876   2.410   6.646   4.027  1.7058  1.1725 -0.6678
   73MOL   H13321877   2.420   6.466   4.055 -1.4759  1.2290  0.6113
   73MOL   H13421878   2.643   6.619   4.055 -2.8140  5.1001 -2.2859
   73MOL   H13521879   2.624   6.633   3.899  0.4423 -1.7720 -0.9275
   73MOL   H13621880   2.657   6.472   3.946  0.0825  0.7069 -2.0923
   73MOL   C13721881   2.453   6.500   3.566  0.1800  0.2985 -0.3838
   73MOL   C13821882   2.608   6.482   3.571 -0.6844 -0.0410 -0.9111
   73MOL   C13921883   2.678   6.596   3.498 -1.0016 -0.4109  1.0715
   73MOL   O14021884   2.759   6.677   3.558 -0.1096  0.4460 -0.3574
   73MOL   O14121885   2.640   6.602   3.373 -0.4850  0.5002  0.7861
   73MOL   C14221886   2.695   6.704   3.291 -1.0638  0.0548  0.6760
   73MOL   C14321887   2.630   6.713   3.153 -0.4835  0.8730  0.1175
   73MOL   H14421888   2.411   6.513   3.466  1.6768  0.8734 -0.9538
   73MOL   H14521889   2.436   6.593   3.619  1.4447  0.4120 -0.1761
   73MOL   H14621890   2.648   6.496   3.671 -1.6036 -0.2449 -0.5121
   73MOL   H14721891   2.686   6.800   3.340 -0.2566 -0.9003  2.7532
   73MOL   H14821892   2.803   6.693   3.280 -1.3668 -2.0028 -0.5862
   73MOL   H14921893   2.523   6.729   3.164 -0.1433  3.0188  0.4824
   73MOL   H15021894   2.652   6.618   3.103  0.1111  1.2275 -0.2974
   73MOL   H15121895   2.672   6.797   3.097 -0.6190  1.5148  0.9660
   73MOL   C15221896   2.658   6.339   3.513 -0.0672 -0.5519 -0.3169
   73MOL   C15321897   2.760   6.263   3.616  0.9214 -0.3236 -0.0746
   73MOL   C15421898   2.887   6.348   3.638 -0.2143  0.0254 -0.3095
   73MOL   O15521899   2.937   6.367   3.747 -0.1639 -0.1562  0.5414
   73MOL   O15621900   2.930   6.391   3.518 -0.2080 -0.1340 -0.3154
   73MOL   C15721901   3.064   6.419   3.491  0.7070  0.7461 -0.1155
   73MOL   C15821902   3.070   6.571   3.484  0.1319  0.0044 -0.3151
   73MOL   H15921903   2.565   6.283   3.504 -0.9305  1.0209 -1.5131
   73MOL   H16021904   2.702   6.338   3.413  0.3867  0.7170 -0.1351
   73MOL   H16121905   2.717   6.254   3.715  1.3746 -3.9898 -0.1501
   73MOL   H16221906   3.125   6.372   3.568  1.1374  1.8312  0.2137
   73MOL   H16321907   3.092   6.381   3.393  3.8487 -3.4098  2.1953
   73MOL   H16421908   3.171   6.611   3.490 -0.0697  0.6810 -1.2684
   73MOL   H16521909   3.024   6.620   3.570 -0.0696  0.6538 -0.7831
   73MOL   H16621910   3.030   6.613   3.392  3.4577  1.8881 -0.9906
   73MOL   C16721911   2.804   6.131   3.553  0.0662  0.8583  0.1844
   73MOL   C16821912   2.692   6.026   3.522  0.6463  0.2988  0.9095
   73MOL   C16921913   2.607   5.991   3.646 -0.2126 -0.3973  0.0233
   73MOL   O17021914   2.483   5.989   3.635  0.0435  0.5080 -0.2105
   73MOL   O17121915   2.677   5.938   3.749  0.5241  0.1644 -0.7216
   73MOL   C17221916   2.601   5.895   3.866 -0.1828 -0.5065  0.7302
   73MOL   C17321917   2.680   5.816   3.972 -0.1019  0.1357 -0.1956
   73MOL   H17421918   2.851   6.152   3.457 -0.3448  2.1509  0.2548
   73MOL   H17521919   2.878   6.080   3.615 -2.5141 -1.3176  1.5813
   73MOL   H17621920   2.636   6.073   3.441  2.8990  0.1718 -0.7581
   73MOL   H17721921   2.565   5.982   3.921  0.7515  0.8101 -0.7047
   73MOL   H17821922   2.511   5.842   3.834 -0.3737 -0.8354  1.7818
   73MOL   H17921923   2.781   5.855   3.985  0.3601 -0.5619 -1.6003
   73MOL   H18021924   2.686   5.715   3.932  1.1154  0.0897  0.0893
   73MOL   H18121925   2.639   5.800   4.072 -0.5543 -0.9099 -0.5422
   73MOL   C18221926   2.759   5.897   3.457 -0.2474 -0.8451  0.3439
   73MOL   C18321927   2.661   5.801   3.375  0.1908  0.6053  1.0029
   73MOL   C18421928   2.595   5.878   3.257  0.4109 -0.2305 -0.0539
   73MOL   O18521929   2.479   5.908   3.260 -0.3804  0.3679 -0.1525
   73MOL   O18621930   2.676   5.891   3.147  0.2360  0.0103 -0.3344
   73MOL   C18721931   2.628   5.959   3.036 -0.0652 -0.2327 -0.1036
   73MOL   C18821932   2.524   5.896   2.943 -0.2233  0.4566 -0.4299
   73MOL   H18921933   2.845   5.923   3.395 -0.7209 -2.2192 -0.9060
   73MOL   H19021934   2.807   5.836   3.534  2.1104  0.1183 -0.3234
   73MOL   H19121935   2.728   5.727   3.331 -1.7852  0.3861 -1.7213
   73MOL   H19221936   2.580   6.047   3.079  0.6931 -1.2804  3.0250
   73MOL   H19321937   2.710   5.990   2.971 -0.1519  1.6788  0.6479
   73MOL   H19421938   2.504   5.951   2.851 -1.6020 -2.8214 -2.2045
   73MOL   H19521939   2.431   5.890   3.000 -1.1428  0.0514 -1.9335
   73MOL   H19621940   2.560   5.797   2.916  1.3298  0.6146  0.9633
   73MOL   C19721941   2.565   5.723   3.463 -0.1399  0.0364 -0.0261
   73MOL   C19821942   2.507   5.598   3.394  0.5027 -0.1466  0.0448
   73MOL   C19921943   2.402   5.533   3.487  0.2854 -0.5115 -0.2514
   73MOL   O20021944   2.398   5.541   3.612  0.4570  0.2285  0.2324
   73MOL   O20121945   2.316   5.464   3.414 -0.0247  0.0205  0.1797
   73MOL   C20221946   2.213   5.386   3.468 -0.3631 -0.2057 -0.0448
   73MOL   C20321947   2.093   5.370   3.372 -0.4973  0.0055  0.0820
   73MOL   H20421948   2.614   5.699   3.557 -1.2205  0.0445  0.5427
   73MOL   H20521949   2.481   5.787   3.489  0.3470  0.6533  0.0406
   73MOL   H20621950   2.452   5.622   3.303 -0.3725 -1.1668  0.2945
   73MOL   H20721951   2.256   5.290   3.496 -0.3164  0.1312  1.0791
   73MOL   H20821952   2.168   5.433   3.555  0.2268 -1.1884  0.8000
   73MOL   H20921953   2.002   5.331   3.417 -1.5831  0.1015 -1.9532
   73MOL   H21021954   2.124   5.313   3.284  0.6797 -0.8368  1.0243
   73MOL   H21121955   2.072   5.468   3.328  0.4606  0.6425  1.0337
   73MOL   C21221956   2.611   5.495   3.351 -0.9217 -0.5007 -0.4017
   73MOL   C21321957   2.714   5.435   3.454  0.1603  0.5908 -0.0388
   73MOL   C21421958   2.842   5.512   3.478 -0.3602  0.5846 -0.0667
   73MOL   O21521959   2.908   5.561   3.387  0.3726 -0.1429 -0.0538
   73MOL   O21621960   2.883   5.518   3.603 -0.4630  0.0100 -0.3943
   73MOL   C21721961   3.005   5.585   3.644 -0.3466  0.6315  0.2640
   73MOL   C21821962   3.064   5.505   3.754  0.0429  0.5905 -0.1193
   73MOL   H21921963   2.547   5.413   3.319 -0.4135 -1.0917  0.0935
   73MOL   H22021964   2.664   5.526   3.260 -0.5439 -0.8762 -0.3103
   73MOL   H22121965   2.655   5.425   3.545  0.8068  1.8703  0.5394
   73MOL   H22221966   3.073   5.587   3.559  1.0205  1.2777  1.3495
   73MOL   H22321967   2.985   5.688   3.676 -0.6101  0.2904  1.2261
   73MOL   H22421968   3.143   5.554   3.811 -0.5150 -0.4705  1.6244
   73MOL   H22521969   3.100   5.410   3.714  1.4763  0.1526  2.1081
   73MOL   H22621970   2.990   5.470   3.826  0.3157  0.9700  0.3413
   73MOL   C22721971   2.755   5.288   3.404  0.1949  0.1352 -0.6857
   73MOL   C22821972   2.751   5.183   3.519 -0.2593 -0.0720 -0.8808
   73MOL   C22921973   2.865   5.084   3.498 -0.2163  0.1478  0.2361
   73MOL   O23021974   2.851   4.987   3.421  0.0857  0.0532  0.6264
   73MOL   O23121975   2.979   5.117   3.546  0.0589 -0.3074 -0.2386
   73MOL   C23221976   3.099   5.046   3.513 -0.1136  0.3204 -0.6443
   73MOL   C23321977   3.206   5.149   3.466  0.4235 -0.3640  0.2780
   73MOL   H23421978   2.715   5.252   3.310 -3.1703 -0.4399  0.8730
   73MOL   H23521979   2.861   5.292   3.377  0.1980 -1.2802 -0.8947
   73MOL   H23621980   2.777   5.232   3.613 -1.5533  0.6667 -0.8957
   73MOL   H23721981   3.139   4.996   3.601  0.3432  0.3597 -0.8278
   73MOL   H23821982   3.083   4.980   3.428 -1.4995  1.4066 -1.2628
   73MOL   H23921983   3.165   5.222   3.396  3.1328  1.1582  0.2072
   73MOL   H24021984   3.295   5.113   3.414  0.5729  0.8462 -0.3108
   73MOL   H24121985   3.233   5.208   3.553 -1.1153 -1.0279  1.2224
   73MOL   C24221986   2.608   5.115   3.524  0.2586  0.1809  0.1077
   73MOL   C24321987   2.530   5.090   3.660 -0.6043 -0.2195  0.3047
   73MOL   C24421988   2.492   5.220   3.723 -0.1770  0.1856 -0.0690
   73MOL   O24521989   2.375   5.252   3.726 -0.1471  0.0571  0.3961
   73MOL   O24621990   2.597   5.296   3.759  0.3415  0.4179 -0.4100
   73MOL   C24721991   2.589   5.424   3.815 -0.0589 -0.5674  0.1848
   73MOL   C24821992   2.667   5.427   3.944  0.3406  0.7983 -0.0171
   73MOL   H24921993   2.532   5.179   3.479  0.7646  0.9203  0.2870
   73MOL   H25021994   2.607   5.025   3.462  0.4353  1.1977 -1.4113
   73MOL   H25121995   2.433   5.044   3.638 -0.3334  0.3004 -2.0711
   73MOL   H25221996   2.622   5.492   3.736 -1.1458 -2.5835 -2.0481
   73MOL   H25321997   2.486   5.449   3.839 -0.7331 -1.3747 -1.7956
   73MOL   H25421998   2.624   5.343   3.999 -1.7801  1.2211 -1.0175
   73MOL   H25521999   2.654   5.518   4.003 -1.8470  0.5644 -0.1104
   73MOL   H25622000   2.773   5.407   3.927  0.6502  0.2194  2.3246
   73MOL   C25722001   2.606   4.990   3.757 -0.3848 -0.4619 -0.4757
   73MOL   C25822002   2.528   4.968   3.888  0.3957 -0.1057 -0.0620
   73MOL   C25922003   2.620   4.894   3.989  0.7190 -0.1171  0.1471
   73MOL   O26022004   2.644   4.947   4.101 -0.6924 -0.0303  0.1111
   73MOL   O26122005   2.662   4.773   3.937 -0.3448 -0.1379 -0.5394
   73MOL   C26222006   2.739   4.687   4.018  0.3142  0.2513 -0.0995
   73MOL   C26322007   2.667   4.569   4.080 -0.5399  0.2798  0.1194
   73MOL   H26422008   2.615   4.897   3.703 -0.3811  0.2936 -1.7986
   73MOL   H26522009   2.706   5.029   3.778 -0.1385 -1.2722 -0.1407
   73MOL   H26622010   2.498   5.066   3.924  0.0653 -0.7749  1.5132
   73MOL   H26722011   2.816   4.641   3.956  0.4877  1.4717 -0.8127
   73MOL   H26822012   2.800   4.740   4.091  1.7127 -0.5221 -0.6953
   73MOL   H26922013   2.734   4.500   4.131  0.0437 -1.1982 -2.5474
   73MOL   H27022014   2.645   4.510   3.991  0.5214  0.3345 -0.1844
   73MOL   H27122015   2.590   4.592   4.154 -0.7682 -0.8937  0.2592
   73MOL   C27222016   2.410   4.889   3.868  0.1950 -0.0153 -0.0668
   73MOL   C27322017   2.333   4.854   3.994 -0.0382  0.0427  0.1678
   73MOL   C27422018   2.258   4.722   3.980  0.1271 -0.0354 -0.2259
   73MOL   O27522019   2.293   4.615   4.033 -0.1359 -0.5471  0.0772
   73MOL   O27622020   2.153   4.731   3.886  0.1222  0.3530 -0.0467
   73MOL   C27722021   2.078   4.611   3.865  0.1946 -0.4832 -0.1369
   73MOL   C27822022   1.984   4.640   3.748  0.3993  0.0464 -0.2310
   73MOL   H27922023   2.352   4.944   3.793 -1.6545 -3.1549 -1.0278
   73MOL   H28022024   2.434   4.800   3.809 -0.1120 -0.1548  0.0192
   73MOL   H28122025   2.404   4.848   4.076  1.4970 -1.3714 -1.2302
   73MOL   H28222026   2.143   4.524   3.855 -0.2335 -0.7183 -0.9530
   73MOL   H28322027   2.018   4.597   3.955 -1.9963 -0.8099 -1.6016
   73MOL   H28422028   2.035   4.699   3.672  2.8424 -1.6393  0.0393
   73MOL   H28522029   1.910   4.711   3.784 -0.5276 -1.1978  0.3888
   73MOL   H28622030   1.938   4.557   3.693 -0.8190 -0.2519  1.2112
   73MOL   C28722031   2.247   4.970   4.046 -0.3671 -0.4393 -0.2136
   73MOL   C28822032   2.194   4.957   4.193  0.1464  0.0393  0.5001
   73MOL   C28922033   2.120   5.076   4.246  0.1565  0.9991 -0.2801
   73MOL   O29022034   2.161   5.140   4.348  0.3510  0.2623  0.2611
   73MOL   O29122035   2.015   5.107   4.180  0.0015  0.2520 -0.3293
   73MOL   C29222036   1.924   5.201   4.222  0.8600  0.1974 -0.2934
   73MOL   C29322037   1.951   5.343   4.167  0.1041 -0.7894  0.0851
   73MOL   H29422038   2.301   5.062   4.024 -0.1587 -1.4104 -4.1527
   73MOL   H29522039   2.155   4.980   3.989 -0.6063 -2.8728 -0.3099
   73MOL   H29622040   2.130   4.869   4.193  2.1927 -1.4777  1.4553
   73MOL   H29722041   1.824   5.167   4.194  0.7818 -1.0091  1.3302
   73MOL   H29822042   1.922   5.183   4.330 -0.5616  0.4994 -0.2572
   73MOL   H29922043   1.937   5.350   4.059  0.1357  0.3763  0.1496
   73MOL   H30022044   2.054   5.372   4.188  1.0258 -1.8309 -2.7569
   73MOL   H30122045   1.889   5.421   4.212  0.4086 -1.9774  2.6905
   73MOL   H30222046   2.272   4.929   4.264 -0.6224 -0.5712  1.1097
   74MOL     C122047   7.670   4.103   3.232  0.6677 -0.3291  0.2360
   74MOL     C222048   7.739   4.185   3.125  0.0307 -0.7221  0.0388
   74MOL     C322049   7.698   4.143   2.983  0.0230  0.5304 -0.4144
   74MOL     O422050   7.666   4.028   2.945  0.2235 -0.7019  0.8462
   74MOL     O522051   7.700   4.243   2.903 -0.1416  0.0984 -0.0056
   74MOL     C622052   7.649   4.233   2.773  0.5038 -0.2016 -0.5394
   74MOL     C722053   7.743   4.221   2.660 -0.3281  0.4403 -0.5899
   74MOL     H822054   7.686   4.141   3.333  0.5415  0.1029  0.0980
   74MOL     H922055   7.705   4.000   3.222 -1.1557 -1.0302  0.9235
   74MOL    H1022056   7.704   4.288   3.137 -0.5315 -0.8578 -0.4056
   74MOL    H1122057   7.580   4.150   2.757 -0.0854  0.6001 -2.2693
   74MOL    H1222058   7.584   4.320   2.763  0.2866 -0.0725  1.7541
   74MOL    H1322059   7.808   4.134   2.668  0.1185  0.5489 -2.7133
   74MOL    H1422060   7.810   4.307   2.652 -0.7702  0.7838 -0.6492
   74MOL    H1522061   7.691   4.222   2.564  0.4240  0.8716 -0.9932
   74MOL    H1622062   7.564   4.100   3.207  0.8146 -0.4340 -0.3800
   74MOL    C1722063   7.895   4.172   3.140 -0.1453 -0.3430 -0.2384
   74MOL    C1822064   0.051   4.259   3.254 -0.5461 -0.8936  0.0786
   74MOL    C1922065   0.047   4.408   3.220 -0.1530  0.4144 -0.7224
   74MOL    O2022066   7.885   4.477   3.291  0.0268 -0.0909  0.2579
   74MOL    O2122067   0.123   4.451   3.117  0.3060  0.4422  0.5979
   74MOL    C2222068   0.113   4.579   3.059 -0.6094  0.0392 -0.0657
   74MOL    C2322069   0.219   4.593   2.959 -0.5171  0.2207  0.2252
   74MOL    H2422070   0.017   4.068   3.152  0.8167  0.0473  0.8479
   74MOL    H2522071   0.033   4.199   3.046  1.0730  1.5375  0.8797
   74MOL    H2622072   7.894   4.253   3.341 -0.2186  1.4862  0.5377
   74MOL    H2722073   0.013   4.595   3.019 -1.1709 -0.4752  1.0884
   74MOL    H2822074   0.133   4.652   3.138  1.2050 -1.5524  0.9866
   74MOL    H2922075   0.320   4.586   3.001  0.6955 -1.2178 -2.8453
   74MOL    H3022076   0.216   4.686   2.903 -0.7748  0.2501  0.2873
   74MOL    H3122077   0.208   4.500   2.903 -0.0181  0.7943 -0.8370
   74MOL    C3222078   0.196   4.207   3.276  0.1409  0.2622 -0.4565
   74MOL    C3322079   0.200   4.077   3.371 -0.4198 -0.5829 -0.9550
   74MOL    C3422080   0.203   4.119   3.521  0.3342 -0.1077 -0.2653
   74MOL    O3522081   0.232   4.231   3.557 -0.4813  0.1505  0.0842
   74MOL    O3622082   0.186   4.016   3.606  0.3761 -0.4651  0.1768
   74MOL    C3722083   0.186   4.044   3.751 -0.4474  0.4431  0.6922
   74MOL    C3822084   0.308   3.966   3.812 -0.6555 -0.0801 -0.5214
   74MOL    H3922085   0.246   4.175   3.185  0.1302  1.5882 -0.9256
   74MOL    H4022086   0.251   4.289   3.321 -0.1464 -1.2331  2.7636
   74MOL    H4122087   0.112   4.021   3.340 -1.6618  0.3854  0.7392
   74MOL    H4222088   0.192   4.152   3.768  0.7575  0.6331 -0.8436
   74MOL    H4322089   0.088   4.017   3.790 -2.1857  1.6668 -2.6861
   74MOL    H4422090   0.299   3.965   3.920 -0.5231  0.4439 -0.5045
   74MOL    H4522091   0.407   3.999   3.782  0.6591 -1.1454  2.5359
   74MOL    H4622092   0.308   3.860   3.788  1.4777 -0.1551 -0.2813
   74MOL    C4722093   0.315   3.980   3.340 -0.2936  0.2159 -0.7563
   74MOL    C4822094   0.299   3.892   3.219  0.2517  0.2339  0.0154
   74MOL    C4922095   0.175   3.799   3.225 -1.0575  0.4157  0.3751
   74MOL    O5022096   0.089   3.801   3.135 -0.0484  0.4913  0.2819
   74MOL    O5122097   0.158   3.740   3.337  0.1825  0.0936 -0.0879
   74MOL    C5222098   0.037   3.677   3.369  1.0385 -0.0794 -0.2502
   74MOL    C5322099   7.867   3.761   3.471 -0.2502 -0.2798  0.0713
   74MOL    H5422100   0.408   4.034   3.324  0.1668  0.6536  2.8198
   74MOL    H5522101   0.329   3.912   3.424 -1.9227 -0.1942 -0.7926
   74MOL    H5622102   0.285   3.970   3.145  3.1743  0.0984 -0.7349
   74MOL    H5722103   7.889   3.674   3.276 -2.3381  0.7868  1.6854
   74MOL    H5822104   0.055   3.574   3.403 -2.5615 -0.9099 -0.6879
   74MOL    H5922105   0.025   3.794   3.552 -1.3571 -0.4772  1.0760
   74MOL    H6022106   7.801   3.693   3.524  1.4509 -1.3889  0.8153
   74MOL    H6122107   7.812   3.840   3.421 -1.1752  0.3670  2.0446
   74MOL    C6222108   0.428   3.822   3.191  0.4383  0.0291 -0.4721
   74MOL    C6322109   0.525   3.891   3.095 -1.0427 -0.1653 -0.3528
   74MOL    C6422110   0.464   3.910   2.954 -0.5335  0.2320  0.3284
   74MOL    O6522111   0.447   4.027   2.912 -0.4783 -0.4164  0.0968
   74MOL    O6622112   0.439   3.793   2.896  0.3700 -0.0285  0.5030
   74MOL    C6722113   0.415   3.797   2.755 -0.3733 -0.0065  0.3472
   74MOL    C6822114   0.435   3.656   2.704 -0.1076  0.4115  0.5802
   74MOL    H6922115   0.485   3.800   3.282 -1.5834  0.9923  1.0720
   74MOL    H7022116   0.404   3.722   3.156  1.1259 -0.7750  1.2791
   74MOL    H7122117   0.538   3.990   3.140  0.3679 -1.5792  2.4868
   74MOL    H7222118   0.309   3.823   2.750 -0.3516  0.0224  0.0721
   74MOL    H7322119   0.479   3.865   2.699 -1.1584  0.5236  0.0780
   74MOL    H7422120   0.403   3.647   2.600  1.9616 -0.3910 -0.0038
   74MOL    H7522121   0.369   3.595   2.765  1.1499 -0.0073  1.5257
   74MOL    H7622122   0.536   3.616   2.711 -0.6213 -1.2173 -1.0916
   74MOL    C7722123   0.665   3.816   3.095 -0.2472  0.5359 -0.2321
   74MOL    C7822124   0.780   3.899   3.025 -0.9524  0.3227  0.0697
   74MOL    C7922125   0.843   3.811   2.925 -0.3535  0.2883  1.0704
   74MOL    O8022126   0.907   3.712   2.956 -0.1815  0.1574 -0.4903
   74MOL    O8122127   0.806   3.838   2.807 -0.0639  0.1557 -0.2873
   74MOL    C8222128   0.861   3.784   2.688 -0.5190  0.1492  0.2409
   74MOL    C8322129   0.848   3.892   2.575  0.2095  0.0280  0.3698
   74MOL    H8422130   0.696   3.789   3.196  1.7456  1.5883 -0.5255
   74MOL    H8522131   0.656   3.716   3.052 -0.9571  1.2002 -1.6679
   74MOL    H8622132   0.737   3.981   2.967 -0.2712  0.3026 -0.4793
   74MOL    H8722133   0.963   3.749   2.705 -0.6881 -1.1703 -1.3397
   74MOL    H8822134   0.804   3.696   2.658  0.1421 -0.0009 -0.5882
   74MOL    H8922135   0.745   3.926   2.562  1.1048  2.5907 -0.3068
   74MOL    H9022136   0.893   3.855   2.482  0.2493  1.1981 -0.0823
   74MOL    H9122137   0.909   3.976   2.609 -1.3720  1.3541  0.0125
   74MOL    C9222138   0.890   3.954   3.115  0.2052  0.1438  0.3963
   74MOL    C9322139   0.831   4.071   3.197 -0.3905 -0.2466 -0.2330
   74MOL    C9422140   0.843   4.193   3.104  0.4503  0.1146 -0.3060
   74MOL    O9522141   0.753   4.208   3.016 -0.1967  0.0121 -0.2014
   74MOL    O9622142   0.945   4.274   3.115 -0.4203 -0.3637 -0.2582
   74MOL    C9722143   0.956   4.390   3.034  0.4884 -0.3268  0.4720
   74MOL    C9822144   1.069   4.392   2.934 -0.5703 -0.2072  0.4204
   74MOL    H9922145   0.920   3.875   3.183 -0.3383 -0.2180  0.2224
   74MOL   H10022146   0.975   3.991   3.058  0.2920 -2.2806 -1.1242
   74MOL   H10122147   0.726   4.055   3.221 -0.5693 -1.9424 -2.0399
   74MOL   H10222148   0.864   4.403   2.977 -1.6500 -3.3001  3.0978
   74MOL   H10322149   0.960   4.472   3.106  0.4888 -0.0119  0.1186
   74MOL   H10422150   1.050   4.312   2.862 -0.8992 -0.2756  0.5839
   74MOL   H10522151   1.161   4.380   2.992  0.5380  1.3827 -0.9502
   74MOL   H10622152   1.075   4.490   2.887  2.5265  0.4219  2.0210
   74MOL   C10722153   0.907   4.089   3.331 -0.1197  0.7598  0.1941
   74MOL   C10822154   0.870   3.988   3.436 -0.1851 -0.6731 -1.0450
   74MOL   C10922155   0.725   4.004   3.485 -0.0474 -0.3099 -0.2035
   74MOL   O11022156   0.655   3.902   3.476  0.9303 -0.5666 -0.0651
   74MOL   O11122157   0.684   4.124   3.523 -0.5831  0.1176 -0.0475
   74MOL   C11222158   0.566   4.147   3.591  0.3527  0.4383 -0.4314
   74MOL   C11322159   0.591   4.238   3.707 -0.3171 -0.2100  0.3054
   74MOL   H11422160   1.015   4.091   3.314 -0.1458  2.4190  0.1775
   74MOL   H11522161   0.876   4.186   3.370 -0.1339 -0.8549  4.5631
   74MOL   H11622162   0.889   3.888   3.398 -0.0153 -0.9747 -0.1746
   74MOL   H11722163   0.493   4.195   3.526 -0.0415 -0.6616 -0.8273
   74MOL   H11822164   0.524   4.051   3.624 -1.7813  1.1177 -1.0962
   74MOL   H11922165   0.499   4.296   3.717 -0.1580  0.3701 -1.4867
   74MOL   H12022166   0.677   4.303   3.694 -0.2041  0.0482  2.2053
   74MOL   H12122167   0.592   4.181   3.800 -0.3324 -1.8328 -0.6576
   74MOL   C12222168   0.959   3.987   3.564  0.3041  0.4159 -0.0393
   74MOL   C12322169   1.097   3.933   3.541 -0.2429  0.4308 -0.2205
   74MOL   C12422170   1.105   3.784   3.521  0.2755 -0.0040 -0.0975
   74MOL   O12522171   1.091   3.704   3.612 -0.4210 -0.3730  0.0632
   74MOL   O12622172   1.140   3.758   3.397  0.2486 -0.3602  0.2645
   74MOL   C12722173   1.163   3.618   3.364 -0.6340  0.3929 -0.3078
   74MOL   C12822174   1.167   3.582   3.221 -0.7324 -0.4228 -0.0639
   74MOL   H12922175   0.950   4.088   3.605 -2.0118  0.8177 -1.4590
   74MOL   H13022176   0.910   3.925   3.640  1.1072 -1.6294 -1.1456
   74MOL   H13122177   1.134   3.981   3.451  0.6932  0.2085  0.0341
   74MOL   H13222178   1.263   3.596   3.401 -1.4021 -2.9680 -0.1010
   74MOL   H13322179   1.090   3.561   3.421  3.3185 -3.4729  1.0998
   74MOL   H13422180   1.074   3.573   3.165 -0.1799 -2.3022 -0.7294
   74MOL   H13522181   1.215   3.485   3.210  2.3454  1.2621 -2.5346
   74MOL   H13622182   1.244   3.645   3.176  0.1149 -1.7524 -0.5286
   74MOL   C13722183   1.198   3.976   3.647  0.1562 -0.4420 -0.0819
   74MOL   C13822184   1.219   4.125   3.675 -0.2449 -0.2146  0.8521
   74MOL   C13922185   1.272   4.201   3.556  0.2505 -0.2492  0.2088
   74MOL   O14022186   1.357   4.148   3.483 -0.0361  0.0716 -0.2010
   74MOL   O14122187   1.231   4.326   3.548  0.6125  0.0521  0.6727
   74MOL   C14222188   1.245   4.395   3.428  0.4811 -0.1535 -0.1405
   74MOL   C14322189   1.128   4.362   3.333 -0.5390  0.4006 -0.0905
   74MOL   H14422190   1.173   3.921   3.738 -2.3401  1.2236  0.2970
   74MOL   H14522191   1.292   3.930   3.615  0.2406  0.1516 -0.6999
   74MOL   H14622192   1.119   4.164   3.694 -0.1713 -0.1832  1.1780
   74MOL   H14722193   1.251   4.501   3.455  1.2265 -0.4102  0.7060
   74MOL   H14822194   1.336   4.358   3.381  0.6575 -2.8107  2.1723
   74MOL   H14922195   1.035   4.354   3.389 -0.4285 -1.7212 -0.1924
   74MOL   H15022196   1.156   4.270   3.282 -0.2730  0.2504  0.3218
   74MOL   H15122197   1.113   4.429   3.249  1.6815  0.0166 -0.8372
   74MOL   C15222198   1.312   4.129   3.801  0.3173 -0.0641  0.2555
   74MOL   C15322199   1.289   4.250   3.896  0.3007  0.4726  0.9730
   74MOL   C15422200   1.416   4.280   3.976 -0.3748 -0.7417 -0.2422
   74MOL   O15522201   1.521   4.218   3.969  0.1611  0.8123  0.2765
   74MOL   O15622202   1.398   4.373   4.067  0.1695 -0.1204 -0.4212
   74MOL   C15722203   1.490   4.402   4.162  0.1765  0.2956  0.4996
   74MOL   C15822204   1.557   4.531   4.143  0.0040 -0.1566  0.0247
   74MOL   H15922205   1.312   4.035   3.856  2.0562  0.4434  1.1795
   74MOL   H16022206   1.413   4.129   3.760  0.1775  0.5529 -0.0897
   74MOL   H16122207   1.300   4.342   3.839  0.9812  1.7443  3.1154
   74MOL   H16222208   1.446   4.413   4.261  1.1040 -0.7743  1.0485
   74MOL   H16322209   1.572   4.331   4.171  1.0136  1.1750 -0.0899
   74MOL   H16422210   1.610   4.552   4.236 -0.8563  0.0678  0.4711
   74MOL   H16522211   1.477   4.605   4.137  0.1605 -0.1074 -1.8821
   74MOL   H16622212   1.633   4.543   4.066  0.3914  0.6983  0.5373
   74MOL   C16722213   1.154   4.259   3.971  0.5896  0.0491  0.3378
   74MOL   C16822214   1.116   4.147   4.074 -0.8502  0.0020  0.1567
   74MOL   C16922215   1.085   4.012   4.012 -0.1123  0.4520 -0.4012
   74MOL   O17022216   1.008   4.005   3.918 -0.1199  0.6392 -0.0777
   74MOL   O17122217   1.159   3.909   4.065  0.7809 -0.0935  0.2220
   74MOL   C17222218   1.119   3.775   4.035 -0.7533 -0.4255  0.2683
   74MOL   C17322219   1.176   3.672   4.141 -0.4744  0.0858 -0.3193
   74MOL   H17422220   1.145   4.354   4.025  2.4289 -0.7108  2.0767
   74MOL   H17522221   1.084   4.265   3.888  2.7598  1.1092 -1.4734
   74MOL   H17622222   1.208   4.136   4.131  0.0055  0.6346 -1.0733
   74MOL   H17722223   1.011   3.760   4.035 -0.9660  0.9683 -1.3204
   74MOL   H17822224   1.163   3.744   3.940 -0.3395  0.6591  0.1035
   74MOL   H17922225   1.165   3.569   4.106  0.6514  0.3801 -1.5467
   74MOL   H18022226   1.123   3.681   4.236  0.9075 -3.4888  0.8821
   74MOL   H18122227   1.282   3.692   4.155 -0.5942  1.4373 -1.2638
   74MOL   C18222228   1.003   4.194   4.172  0.4751 -0.5761  0.1670
   74MOL   C18322229   1.001   4.117   4.304  0.2352 -0.2357  0.2254
   74MOL   C18422230   0.886   4.026   4.314  0.0771  0.0935 -0.0380
   74MOL   O18522231   0.895   3.909   4.361 -0.3479 -0.1511  0.0176
   74MOL   O18622232   0.765   4.076   4.278 -0.0828  0.4281  0.0799
   74MOL   C18722233   0.643   4.001   4.278  1.0296 -0.7053 -1.3141
   74MOL   C18822234   0.547   4.049   4.389 -0.6074  0.0300 -0.5292
   74MOL   H18922235   1.022   4.298   4.196  0.8388  0.2163 -3.3246
   74MOL   H19022236   0.908   4.198   4.119 -1.0984  1.3642  3.0206
   74MOL   H19122237   1.086   4.048   4.298  0.4422  0.1918 -2.9499
   74MOL   H19222238   0.590   4.022   4.185 -1.0989  0.5286  0.1499
   74MOL   H19322239   0.659   3.895   4.294 -3.0695 -1.6367 -2.9679
   74MOL   H19422240   0.470   3.976   4.416 -1.0255  0.4404 -0.6099
   74MOL   H19522241   0.485   4.135   4.363  0.3346  1.4270  1.7317
   74MOL   H19622242   0.599   4.078   4.480 -0.3094 -0.2824 -0.6000
   74MOL   C19722243   1.023   4.205   4.436  0.1198 -0.8464 -0.2746
   74MOL   C19822244   1.167   4.267   4.457 -0.3857 -0.0888  0.3543
   74MOL   C19922245   1.272   4.155   4.481  0.0774  0.7412 -0.0821
   74MOL   O20022246   1.260   4.073   4.572  0.3212  0.9830  0.2956
   74MOL   O20122247   1.371   4.152   4.381  0.4626 -0.3177 -0.4126
   74MOL   C20222248   1.470   4.052   4.373  0.5648 -0.2660 -0.4819
   74MOL   C20322249   1.427   3.959   4.252  0.7140  0.3797 -0.3963
   74MOL   H20422250   0.945   4.281   4.435  1.1638  0.3610  2.7874
   74MOL   H20522251   1.009   4.138   4.521 -1.4483 -0.8363 -0.5178
   74MOL   H20622252   1.194   4.318   4.365  1.6589 -1.5491  0.1164
   74MOL   H20722253   1.570   4.085   4.345 -0.1257 -0.5287 -3.4493
   74MOL   H20822254   1.488   3.985   4.457  0.9613  0.1905 -0.2007
   74MOL   H20922255   1.500   3.881   4.234  2.5794  1.1425  3.3470
   74MOL   H21022256   1.408   4.014   4.159 -1.3431 -3.0558 -2.1148
   74MOL   H21122257   1.333   3.911   4.281  0.8048  0.8828  0.7702
   74MOL   C21222258   1.169   4.357   4.576 -0.3302 -0.3953 -0.2512
   74MOL   C21322259   1.063   4.470   4.578 -0.2606  0.3052 -0.5273
   74MOL   C21422260   1.071   4.559   4.450  0.1652 -0.0018  0.2274
   74MOL   O21522261   0.974   4.573   4.373  0.6475 -0.1509  0.0557
   74MOL   O21622262   1.195   4.599   4.419 -0.0665  0.4391  0.2823
   74MOL   C21722263   1.209   4.696   4.316  0.7191  0.0248 -0.1778
   74MOL   C21822264   1.172   4.843   4.341 -0.3712  0.2103  0.0864
   74MOL   H21922265   1.167   4.306   4.672 -0.0253 -1.1716 -0.6480
   74MOL   H22022266   1.262   4.413   4.578 -0.1749 -0.6581 -0.0845
   74MOL   H22122267   0.964   4.425   4.586 -0.1486 -0.1475 -1.5063
   74MOL   H22222268   1.313   4.700   4.284  0.9349 -2.2534  0.1575
   74MOL   H22322269   1.149   4.661   4.232  0.5762  1.6228 -0.7717
   74MOL   H22422270   1.206   4.895   4.252  3.2560 -0.5333  0.9763
   74MOL   H22522271   1.219   4.903   4.418  0.2545  0.5964 -0.5955
   74MOL   H22622272   1.065   4.852   4.363 -1.3645 -3.0678 -2.8489
   74MOL   C22722273   1.095   4.556   4.699  0.6919 -0.3312 -0.0975
   74MOL   C22822274   1.015   4.686   4.717  0.2891 -0.5435 -0.5883
   74MOL   C22922275   1.076   4.768   4.834 -0.5703 -0.4200  0.2281
   74MOL   O23022276   1.158   4.715   4.913  0.6477 -0.5370 -0.9148
   74MOL   O23122277   1.020   4.892   4.855 -0.3288  0.5385 -0.2032
   74MOL   C23222278   1.068   4.985   4.952  0.0736  0.4607 -0.6020
   74MOL   C23322279   0.977   5.106   4.954 -0.3077  0.2371  0.1495
   74MOL   H23422280   1.093   4.507   4.796  1.0112  1.7578  1.0124
   74MOL   H23522281   1.198   4.587   4.678 -0.0441  3.4407  1.2675
   74MOL   H23622282   1.030   4.743   4.625  0.0055 -1.0877 -0.9743
   74MOL   H23722283   1.073   4.936   5.049  0.4772 -0.9740 -1.3354
   74MOL   H23822284   1.166   5.029   4.930 -0.2582  0.8334 -1.3805
   74MOL   H23922285   0.883   5.081   5.001 -1.2398  0.7366 -1.4018
   74MOL   H24022286   0.957   5.149   4.856 -1.2461  2.2076  1.1770
   74MOL   H24122287   1.025   5.191   5.003  1.2558 -0.3276 -0.3745
   74MOL   C24222288   0.865   4.669   4.722 -0.3863 -0.0547 -0.0179
   74MOL   C24322289   0.797   4.613   4.845  0.7620  0.8270  0.1567
   74MOL   C24422290   0.845   4.474   4.886  0.0771 -0.1053 -0.2646
   74MOL   O24522291   0.894   4.439   4.991 -0.3205  0.0341 -0.0062
   74MOL   O24622292   0.830   4.383   4.787 -0.2866 -0.6375 -0.0674
   74MOL   C24722293   0.858   4.250   4.806  0.5172 -0.0658 -0.8233
   74MOL   C24822294   0.735   4.174   4.850 -0.6282  0.1160 -0.9719
   74MOL   H24922295   0.825   4.771   4.720  0.3820  0.2307 -0.9599
   74MOL   H25022296   0.826   4.623   4.632 -1.3664  0.4555  0.1397
   74MOL   H25122297   0.816   4.677   4.931 -3.4222 -0.0123  1.8212
   74MOL   H25222298   0.887   4.215   4.707  0.7309  0.3073 -0.8929
   74MOL   H25322299   0.946   4.241   4.869  0.0108  0.7329  0.0005
   74MOL   H25422300   0.770   4.072   4.863  0.2794  0.6206  0.6844
   74MOL   H25522301   0.651   4.184   4.782 -0.4587  2.9519 -0.8212
   74MOL   H25622302   0.688   4.213   4.940 -3.4858  0.7413 -2.6697
   74MOL   C25722303   0.649   4.607   4.828 -0.2068 -0.8559 -0.1892
   74MOL   C25822304   0.564   4.557   4.941 -0.1460  0.2192  0.2233
   74MOL   C25922305   0.425   4.553   4.888 -0.5507  0.2924  0.5955
   74MOL   O26022306   0.347   4.647   4.900  0.8432  0.3632  0.0979
   74MOL   O26122307   0.396   4.435   4.832 -0.4247 -0.8971  0.4158
   74MOL   C26222308   0.268   4.410   4.776  1.3293  0.0650 -0.0340
   74MOL   C26322309   0.267   4.258   4.744  0.2335 -0.6582 -0.0886
   74MOL   H26422310   0.619   4.710   4.810  0.9474 -0.7802 -1.8021
   74MOL   H26522311   0.623   4.551   4.738 -2.4473  0.5524 -0.4660
   74MOL   H26622312   0.577   4.449   4.954 -0.5560  0.2108  0.5794
   74MOL   H26722313   0.179   4.429   4.836  0.7328 -2.6121 -0.0116
   74MOL   H26822314   0.257   4.471   4.687  1.2415  0.2517  0.1046
   74MOL   H26922315   0.271   4.192   4.831  0.5027 -0.0745  0.3527
   74MOL   H27022316   0.362   4.238   4.695 -0.2555  0.5482 -1.5529
   74MOL   H27122317   0.191   4.220   4.677  0.4775 -0.2018 -0.6241
   74MOL   C27222318   0.577   4.629   5.084  0.2941  0.4138  0.4790
   74MOL   C27322319   0.506   4.559   5.203  0.1782  0.4680 -0.1821
   74MOL   C27422320   0.503   4.640   5.333  0.2204  0.0149 -0.3389
   74MOL   O27522321   0.592   4.721   5.360 -0.1375  0.3658  0.3685
   74MOL   O27622322   0.398   4.604   5.405 -0.1552  0.5522  0.6169
   74MOL   C27722323   0.385   4.654   5.540  0.0039  0.4079 -0.4093
   74MOL   C27822324   0.396   4.533   5.632 -0.1389 -0.7976 -0.0288
   74MOL   H27922325   0.680   4.637   5.119  0.9069  3.6882 -1.8266
   74MOL   H28022326   0.545   4.733   5.076 -0.5189  0.1583  0.4144
   74MOL   H28122327   0.401   4.561   5.173 -0.5232 -0.3342  2.1443
   74MOL   H28222328   0.465   4.724   5.564  1.4397 -0.8433 -1.4524
   74MOL   H28322329   0.287   4.701   5.540 -0.3743 -0.3588  0.5685
   74MOL   H28422330   0.483   4.476   5.602  1.8734  2.7339 -1.2048
   74MOL   H28522331   0.311   4.465   5.619 -0.7605  0.1356 -0.9443
   74MOL   H28622332   0.405   4.581   5.730  1.0955  1.2832 -1.1376
   74MOL   C28722333   0.558   4.417   5.221 -0.4726 -0.3246 -0.5286
   74MOL   C28822334   0.456   4.309   5.174  0.3229  1.4661 -0.3701
   74MOL   C28922335   0.485   4.170   5.234  0.4890 -0.5933  0.5330
   74MOL   O29022336   0.410   4.126   5.321  0.4525  0.3431 -0.2120
   74MOL   O29122337   0.608   4.125   5.191 -0.3139 -0.8304 -0.7846
   74MOL   C29222338   0.639   3.991   5.194 -0.4176  0.8096  0.0995
   74MOL   C29322339   0.790   3.989   5.190  0.0422 -0.5300  0.3505
   74MOL   H29422340   0.649   4.403   5.162 -0.7996 -0.7144 -0.9444
   74MOL   H29522341   0.588   4.386   5.321  0.3238  1.3549 -0.2298
   74MOL   H29622342   0.355   4.344   5.199 -0.5426 -1.3660  0.3220
   74MOL   H29722343   0.614   3.964   5.297 -0.5028 -0.1518 -0.1718
   74MOL   H29822344   0.577   3.939   5.122 -1.5266  1.9080  0.2378
   74MOL   H29922345   0.829   4.041   5.102  0.0795 -0.4983  0.3860
   74MOL   H30022346   0.818   3.884   5.180 -0.0224 -0.6071  0.9508
   74MOL   H30122347   0.852   4.019   5.274  0.8748 -0.3829 -0.3105
   74MOL   H30222348   0.456   4.303   5.066 -0.2653 -1.6141 -0.2417
   75MOL     C122349   2.786   7.429   1.369 -0.0326  0.1644  0.6296
   75MOL     C222350   2.659   7.513   1.344  0.0684 -0.8290 -0.1036
   75MOL     C322351   2.689   7.610   1.226  0.5384  0.2284 -0.7720
   75MOL     O422352   2.777   7.693   1.232 -0.0929 -0.1740  0.1271
   75MOL     O522353   2.600   7.599   1.128  0.8673 -0.1187  0.4585
   75MOL     C622354   2.564   7.688   1.027  0.2792  0.2507 -0.5621
   75MOL     C722355   2.420   7.676   0.983  0.9957 -0.3117 -0.2454
   75MOL     H822356   2.861   7.500   1.405  0.0817  0.0660  0.5865
   75MOL     H922357   2.826   7.368   1.288  0.2131  0.6753  0.3666
   75MOL    H1022358   2.575   7.450   1.316 -2.4354  2.7407 -0.8540
   75MOL    H1122359   2.596   7.787   1.059  1.9258 -0.6634  0.6997
   75MOL    H1222360   2.637   7.669   0.948  0.9799 -0.9957  0.3817
   75MOL    H1322361   2.396   7.762   0.920 -0.9703 -1.0271 -0.5184
   75MOL    H1422362   2.356   7.675   1.071  2.7946  1.6794  1.1273
   75MOL    H1522363   2.398   7.578   0.940  0.6258 -0.2118 -0.2852
   75MOL    H1622364   2.758   7.350   1.439 -1.9470 -0.8007 -1.1620
   75MOL    C1722365   2.612   7.588   1.473 -0.3335  0.1888 -0.0347
   75MOL    C1822366   2.461   7.643   1.485 -0.0520 -0.1744  0.5971
   75MOL    C1922367   2.363   7.538   1.434 -0.2395 -0.7268  0.0788
   75MOL    O2022368   2.297   7.550   1.330  0.0699 -0.0966 -0.2324
   75MOL    O2122369   2.342   7.435   1.520  0.6187 -0.2957 -0.3384
   75MOL    C2222370   2.272   7.324   1.471 -0.5274  0.2406 -0.4637
   75MOL    C2322371   2.370   7.216   1.416 -0.6443 -0.4785  0.2722
   75MOL    H2422372   2.615   7.507   1.547 -0.3980  1.3703  1.2853
   75MOL    H2522373   2.680   7.670   1.496  0.5284 -0.3749 -0.5795
   75MOL    H2622374   2.430   7.658   1.588 -1.0897 -0.3903  0.3161
   75MOL    H2722375   2.219   7.279   1.555  0.9848 -0.2512  0.2600
   75MOL    H2822376   2.195   7.345   1.397 -0.8994  0.1135 -0.1132
   75MOL    H2922377   2.327   7.117   1.403 -1.4816 -0.1997  0.8911
   75MOL    H3022378   2.460   7.200   1.476 -0.1233  2.2228  0.2677
   75MOL    H3122379   2.416   7.255   1.324 -0.3133 -1.3092  0.0818
   75MOL    C3222380   2.429   7.777   1.409  0.2823  0.0269 -0.1975
   75MOL    C3322381   2.507   7.905   1.442 -0.2419  0.1616 -0.2983
   75MOL    C3422382   2.488   0.037   1.590  0.4169  0.0532 -0.1082
   75MOL    O3522383   2.386   0.009   1.649  0.1077  0.1497 -0.7842
   75MOL    O3622384   2.591   0.099   1.648  0.1337  0.3780  0.0963
   75MOL    C3722385   2.596   0.112   1.784 -0.3155 -0.3915 -0.6870
   75MOL    C3822386   2.598   0.263   1.798  0.4068  0.4511 -0.9786
   75MOL    H3922387   2.465   7.766   1.307  1.9989 -1.0127  0.4852
   75MOL    H4022388   2.321   7.792   1.407  0.4250  1.2468  0.8588
   75MOL    H4122389   2.611   7.873   1.437 -0.4519 -0.5548 -0.1950
   75MOL    H4222390   2.517   0.070   1.846  0.5585  0.5405  1.0898
   75MOL    H4322391   2.691   0.069   1.817  3.5320  6.0066 -2.5674
   75MOL    H4422392   2.685   0.315   1.757 -0.0787  0.5528 -1.8908
   75MOL    H4522393   2.592   0.281   1.905  2.4571  0.8179 -0.9054
   75MOL    H4622394   2.511   0.319   1.762 -0.0877  1.2593  1.3681
   75MOL    C4722395   2.494   0.119   1.353 -0.2796 -1.0638  0.2513
   75MOL    C4822396   2.357   0.183   1.340  0.6223 -0.3158 -0.3513
   75MOL    C4922397   2.273   0.100   1.238 -0.1402  0.3849 -0.4827
   75MOL    O5022398   2.323   0.066   1.128  0.6439 -0.2981  0.2973
   75MOL    O5122399   2.155   0.070   1.276 -0.1739 -0.3888 -0.0115
   75MOL    C5222400   2.063   7.905   1.195  0.3284  0.1753 -0.7183
   75MOL    C5322401   1.925   0.069   1.160  0.0187 -0.1684 -0.2440
   75MOL    H5422402   2.560   0.192   1.400 -0.8404 -0.3982  0.0035
   75MOL    H5522403   2.545   0.105   1.258  1.1310  0.9371  0.7008
   75MOL    H5622404   2.300   0.180   1.433 -0.3298  0.4216 -0.8990
   75MOL    H5722405   2.115   7.875   1.105  0.4092  0.6662 -0.8405
   75MOL    H5822406   2.030   7.810   1.235  1.6291 -0.0188 -0.0739
   75MOL    H5922407   1.948   0.169   1.122 -1.7267  0.0622 -0.7355
   75MOL    H6022408   1.865   0.078   1.250  2.8523 -2.3541  1.9422
   75MOL    H6122409   1.876   0.021   1.075  1.5796  0.5002 -1.5589
   75MOL    C6222410   2.359   0.337   1.306  0.0472  0.2580 -0.2235
   75MOL    C6322411   2.241   0.433   1.330 -0.7132 -0.0138 -0.8910
   75MOL    C6422412   2.205   0.456   1.477 -0.0529  0.2334 -0.2971
   75MOL    O6522413   2.262   0.390   1.567 -0.2552  0.0790  0.8408
   75MOL    O6622414   2.100   0.538   1.501  0.0166  0.0214  0.7010
   75MOL    C6722415   2.074   0.573   1.633 -0.0580  0.0155  0.9988
   75MOL    C6822416   1.927   0.604   1.634  0.0653 -0.0537  0.4640
   75MOL    H6922417   2.455   0.368   1.349 -0.3264 -0.8529  1.4376
   75MOL    H7022418   2.378   0.343   1.199  0.3048  0.9176 -0.1448
   75MOL    H7122419   2.275   0.532   1.301  0.4299 -0.7834 -2.3016
   75MOL    H7222420   2.084   0.492   1.706  1.1087  2.1657  3.3263
   75MOL    H7322421   2.130   0.660   1.667  0.3907 -1.0196  3.0269
   75MOL    H7422422   1.872   0.514   1.606  0.7051 -0.6426  1.0712
   75MOL    H7522423   1.915   0.680   1.557  0.7356  1.4669  1.8366
   75MOL    H7622424   1.899   0.639   1.733 -0.6526 -1.3276  0.7198
   75MOL    C7722425   2.124   0.396   1.234 -0.1902 -0.2031  0.0241
   75MOL    C7822426   2.035   0.512   1.191  0.9545  0.3264  0.0383
   75MOL    C7922427   1.891   0.497   1.238 -0.1553 -0.9020  0.4185
   75MOL    O8022428   1.834   0.581   1.314 -0.0088  0.4574  0.2679
   75MOL    O8122429   1.833   0.382   1.194  0.3734  0.5690 -0.3852
   75MOL    C8222430   1.703   0.347   1.237  0.0279  0.2364 -0.0079
   75MOL    C8322431   1.622   0.306   1.112  0.6028 -0.4575  0.4901
   75MOL    H8422432   2.169   0.342   1.150  1.5380 -0.3952  1.0309
   75MOL    H8522433   2.062   0.326   1.290 -0.9311  0.3444 -0.1135
   75MOL    H8622434   2.073   0.602   1.240 -0.3744  0.8428  0.1256
   75MOL    H8722435   1.694   0.265   1.307  0.7031  1.0643  1.0629
   75MOL    H8822436   1.651   0.432   1.280  0.8334 -0.4260  2.3416
   75MOL    H8922437   1.516   0.297   1.136  0.5085 -0.8190 -0.0720
   75MOL    H9022438   1.657   0.216   1.062  0.7412 -0.1868  0.0962
   75MOL    H9122439   1.623   0.391   1.043 -1.4082 -1.8939 -1.3396
   75MOL    C9222440   2.038   0.536   1.031  0.3070  0.9318  0.1335
   75MOL    C9322441   2.175   0.548   0.962  1.1336  0.0535 -0.0333
   75MOL    C9422442   2.237   0.690   0.976 -0.9771  0.3391 -1.1354
   75MOL    O9522443   2.318   0.706   1.068 -0.2094 -0.5820  0.5393
   75MOL    O9622444   2.200   0.772   0.879  0.5731  0.4241 -0.1633
   75MOL    C9722445   2.250   0.905   0.867  0.2221 -0.2200 -0.5921
   75MOL    C9822446   2.256   0.928   0.719 -0.1643 -1.0543  0.5032
   75MOL    H9922447   2.000   0.444   0.986  2.6511 -0.0093 -0.0082
   75MOL   H10022448   1.983   0.626   1.006 -0.3124  1.1587  2.1734
   75MOL   H10122449   2.261   0.494   1.003 -0.3103 -1.1291  1.5298
   75MOL   H10222450   2.178   0.973   0.913  1.8660  2.3870 -1.7917
   75MOL   H10322451   2.343   0.938   0.913  0.2610  1.5564 -1.8800
   75MOL   H10422452   2.292   1.030   0.703 -2.9291  0.1021  1.4411
   75MOL   H10522453   2.156   0.935   0.675 -0.2250  1.0372  0.8972
   75MOL   H10622454   2.319   0.862   0.659  2.5195  1.2661  0.6302
   75MOL   C10722455   2.181   0.501   0.816  0.7870  0.3071  0.1479
   75MOL   C10822456   2.199   0.357   0.769 -0.2296  0.0904  0.0832
   75MOL   C10922457   2.092   0.258   0.826  0.2116  0.3001 -0.4394
   75MOL   O11022458   2.117   0.176   0.913  0.2138 -0.0223  0.2069
   75MOL   O11122459   1.971   0.286   0.783 -0.7183  0.0891  0.4656
   75MOL   C11222460   1.860   0.207   0.814  0.2526  0.3146 -0.1756
   75MOL   C11322461   1.737   0.297   0.789  0.2464 -0.2706 -0.4579
   75MOL   H11422462   2.106   0.555   0.758  1.3944  0.4028 -0.5690
   75MOL   H11522463   2.260   0.557   0.765  1.0427 -0.7286 -0.6093
   75MOL   H11622464   2.193   0.355   0.660  0.7793 -0.4841  0.0325
   75MOL   H11722465   1.846   0.127   0.740  1.5217 -0.9388  0.9212
   75MOL   H11822466   1.865   0.161   0.912 -1.5246 -0.3106 -0.3624
   75MOL   H11922467   1.735   0.340   0.688 -0.1882  0.6936 -0.0430
   75MOL   H12022468   1.754   0.380   0.857  0.2002 -0.0381 -0.7306
   75MOL   H12122469   1.641   0.248   0.808 -0.2898  1.3825  1.2002
   75MOL   C12222470   2.340   0.308   0.806  0.1746 -0.1949  0.6039
   75MOL   C12322471   2.461   0.364   0.729  0.6021  0.1314  0.7440
   75MOL   C12422472   2.517   0.496   0.786 -0.6432 -0.5917  0.3319
   75MOL   O12522473   2.500   0.608   0.735 -0.1045  0.2786  0.2127
   75MOL   O12622474   2.584   0.465   0.896 -0.4009  0.7052 -0.2004
   75MOL   C12722475   2.645   0.566   0.969 -0.4383  0.2801  0.0200
   75MOL   C12822476   2.693   0.496   1.101  0.3739  0.2078 -0.0506
   75MOL   H12922477   2.366   0.305   0.912  0.9119 -2.1857  0.3917
   75MOL   H13022478   2.344   0.201   0.788 -1.0415  0.0513 -1.2564
   75MOL   H13122479   2.539   0.288   0.740 -0.2751 -0.8356  0.3659
   75MOL   H13222480   2.737   0.589   0.915  0.6605 -0.5188  1.4953
   75MOL   H13322481   2.585   0.653   0.995 -2.5329 -2.1180  3.8063
   75MOL   H13422482   2.760   0.416   1.070  0.2565  1.0796 -2.6659
   75MOL   H13522483   2.603   0.468   1.155  0.5950  2.6925  1.7091
   75MOL   H13622484   2.742   0.573   1.161  0.1087 -0.4766  1.0527
   75MOL   C13722485   2.451   0.356   0.571  0.2305 -0.5187 -0.0155
   75MOL   C13822486   2.583   0.330   0.491 -0.3918  0.7939 -0.4091
   75MOL   C13922487   2.677   0.451   0.494  0.4939  0.0282 -0.7020
   75MOL   O14022488   2.794   0.434   0.516  0.3032 -0.0916  0.1672
   75MOL   O14122489   2.613   0.573   0.464  0.4155  0.1813  0.0223
   75MOL   C14222490   2.694   0.694   0.466 -0.1678 -0.0996  0.3959
   75MOL   C14322491   2.613   0.811   0.408  0.4589 -0.0919 -0.5627
   75MOL   H14422492   2.395   0.264   0.557 -0.5681 -0.5476  2.9307
   75MOL   H14522493   2.403   0.444   0.529  0.6764  1.3472  3.2247
   75MOL   H14622494   2.630   0.252   0.551 -0.5481  1.9873  1.3292
   75MOL   H14722495   2.716   0.710   0.571 -0.7526  0.2731  0.4630
   75MOL   H14822496   2.787   0.680   0.411  0.2616  3.1358  0.1872
   75MOL   H14922497   2.672   0.897   0.376 -0.9408  0.7663 -0.8748
   75MOL   H15022498   2.540   0.847   0.480 -0.0704 -2.9357  0.4112
   75MOL   H15122499   2.557   0.775   0.321 -1.8219 -0.4986  1.0139
   75MOL   C15222500   2.549   0.287   0.347 -0.6589 -0.4831 -0.0219
   75MOL   C15322501   2.667   0.237   0.257 -0.2007 -0.2426 -0.5180
   75MOL   C15422502   2.627   0.247   0.117 -0.0106 -0.2413 -0.0341
   75MOL   O15522503   2.626   0.148   0.039 -0.3647  0.0548  0.1328
   75MOL   O15622504   2.598   0.368   0.086  0.0244  0.5983  0.1900
   75MOL   C15722505   2.551   0.397   7.861 -0.9204 -0.0956  0.3246
   75MOL   C15822506   2.455   0.514   7.871 -0.4580 -0.7084  0.0114
   75MOL   H15922507   2.479   0.204   0.351 -1.4485  0.2374  2.0499
   75MOL   H16022508   2.494   0.374   0.310  2.8550  2.2458  0.7772
   75MOL   H16122509   2.747   0.311   0.265 -0.4488  0.1551 -1.6804
   75MOL   H16222510   2.644   0.434   7.817 -0.9634 -0.5398 -0.1451
   75MOL   H16322511   2.507   0.319   7.799  1.8422 -0.9200 -0.6612
   75MOL   H16422512   2.369   0.496   0.027 -1.7874  2.2754 -0.8240
   75MOL   H16522513   2.415   0.533   7.771  1.5021  0.4386 -0.5818
   75MOL   H16622514   2.509   0.600   0.003  0.9974 -0.5075 -2.2727
   75MOL   C16722515   2.711   0.094   0.304  0.2649 -0.2437  0.4811
   75MOL   C16822516   2.822   0.086   0.410  0.3222  0.1253 -0.1381
   75MOL   C16922517   2.955   0.131   0.344  0.1086  0.5541  0.3228
   75MOL   O17022518   3.034   0.053   0.283  0.0553  0.1737 -0.6956
   75MOL   O17122519   2.983   0.260   0.388 -0.0689 -0.2803  0.6037
   75MOL   C17222520   3.103   0.327   0.339  0.7726  0.1875 -0.7107
   75MOL   C17322521   3.050   0.421   0.229 -0.2383  0.5030 -0.2588
   75MOL   H17422522   2.623   0.047   0.347  0.1560 -1.5596 -1.1331
   75MOL   H17522523   2.737   0.033   0.217 -1.2256  1.5754 -1.2625
   75MOL   H17622524   2.815   0.162   0.489 -3.4672 -0.6135  0.3184
   75MOL   H17722525   3.140   0.385   0.424 -0.2686  0.6577 -0.5704
   75MOL   H17822526   3.185   0.270   0.296  1.1793  0.9809 -1.0081
   75MOL   H17922527   2.993   0.374   0.148  1.6704  0.0442 -1.3660
   75MOL   H18022528   3.131   0.467   0.173  0.1679 -0.8863 -0.8471
   75MOL   H18122529   2.973   0.488   0.268 -1.3615 -2.0242  2.0417
   75MOL   C18222530   2.822   7.847   0.464 -0.0128  0.0887 -0.5242
   75MOL   C18322531   2.703   7.805   0.553 -0.4068  1.1080 -0.2112
   75MOL   C18422532   2.674   7.905   0.661  0.3352  0.6642 -0.6243
   75MOL   O18522533   2.558   0.034   0.681 -0.1799 -0.2801  0.1730
   75MOL   O18622534   2.773   0.035   0.740 -0.2543 -0.3559  0.3275
   75MOL   C18722535   2.738   0.090   0.865  0.1535 -0.1870 -0.1206
   75MOL   C18822536   2.860   0.113   0.960  0.9867 -0.3394 -0.4542
   75MOL   H18922537   2.838   7.776   0.383  0.1451 -0.8838  0.3523
   75MOL   H19022538   2.910   7.823   0.523  0.9102  0.9971 -1.4973
   75MOL   H19122539   2.612   7.801   0.494  1.2216 -1.3861 -2.7181
   75MOL   H19222540   2.671   0.175   0.860  0.7884  0.3163 -0.2534
   75MOL   H19322541   2.682   0.007   0.909  0.0342 -1.4531 -2.5556
   75MOL   H19422542   2.949   0.166   0.926  0.8324 -1.0154 -2.0046
   75MOL   H19522543   2.895   0.017   0.998  2.6589  0.8899  1.1810
   75MOL   H19622544   2.818   0.165   1.046 -1.1626 -1.3289 -0.8610
   75MOL   C19722545   2.725   7.657   0.611 -0.1039  0.2270  0.3576
   75MOL   C19822546   2.592   7.588   0.666  0.2101  0.2155  0.2821
   75MOL   C19922547   2.641   7.467   0.752 -0.6852 -0.3219 -0.4141
   75MOL   O20022548   2.755   7.421   0.743  0.2235  0.3181 -0.2954
   75MOL   O20122549   2.547   7.429   0.835  0.2961 -0.7039  0.0421
   75MOL   C20222550   2.572   7.317   0.927  0.4638 -0.0706 -0.0360
   75MOL   C20322551   2.455   7.285   1.028 -0.5138  0.9962 -0.0840
   75MOL   H20422552   2.768   7.604   0.526  2.4732  1.4177  0.8831
   75MOL   H20522553   2.800   7.679   0.686 -1.5940  0.5730  1.7874
   75MOL   H20622554   2.540   7.651   0.738 -2.0554  0.5561 -1.5763
   75MOL   H20722555   2.607   7.235   0.864  1.0448 -0.3904  0.7056
   75MOL   H20822556   2.660   7.334   0.988  0.0464  0.9569  0.2882
   75MOL   H20922557   2.389   7.223   0.968 -0.4654  0.1778  0.6906
   75MOL   H21022558   2.424   7.370   1.089 -1.7416  2.2137 -2.3699
   75MOL   H21122559   2.489   7.207   1.097 -0.9066  1.0743  0.2012
   75MOL   C21222560   2.504   7.533   0.553 -0.3572 -0.6359 -0.2537
   75MOL   C21322561   2.359   7.507   0.603  0.1065 -0.8175  0.3458
   75MOL   C21422562   2.314   7.363   0.601 -0.0714 -0.4369 -0.0639
   75MOL   O21522563   2.216   7.327   0.534 -0.1137 -0.3932  0.0404
   75MOL   O21622564   2.389   7.281   0.675 -0.1234  0.0919 -0.0047
   75MOL   C21722565   2.349   7.147   0.675 -0.4711 -0.7475  0.2957
   75MOL   C21822566   2.402   7.051   0.574 -0.9054  0.4411  0.0555
   75MOL   H21922567   2.516   7.608   0.475 -1.0134  1.1403  1.3218
   75MOL   H22022568   2.550   7.445   0.508  0.4735 -1.9261  2.9482
   75MOL   H22122569   2.357   7.521   0.711  0.8587 -2.2733  0.5634
   75MOL   H22222570   2.386   7.103   0.767  1.2329 -1.7750 -0.8488
   75MOL   H22322571   2.241   7.137   0.689 -0.7147 -0.0343 -0.9217
   75MOL   H22422572   2.352   6.955   0.588  3.5469 -1.6193  2.9785
   75MOL   H22522573   2.510   7.046   0.578 -0.7362  3.3615  0.1722
   75MOL   H22622574   2.372   7.075   0.472 -0.5006 -0.8356 -0.3678
   75MOL   C22722575   2.248   7.608   0.547  0.0863  0.5867  0.3647
   75MOL   C22822576   2.265   7.754   0.612  0.3494  0.1728  0.1545
   75MOL   C22922577   2.142   7.768   0.707  0.2910  0.8881  0.2085
   75MOL   O23022578   2.058   7.858   0.700  0.4702  0.2115  0.0551
   75MOL   O23122579   2.145   7.667   0.803 -0.0897 -0.4820  0.2248
   75MOL   C23222580   2.050   7.659   0.911  0.3290 -0.0334  0.3313
   75MOL   C23322581   2.105   7.574   1.024 -0.5880  0.0915 -0.3754
   75MOL   H23422582   2.252   7.613   0.438 -1.7318  0.0476  0.2607
   75MOL   H23522583   2.148   7.567   0.559 -0.2461  1.0957 -0.6218
   75MOL   H23622584   2.354   7.740   0.673 -0.6534 -1.7210  1.2223
   75MOL   H23722585   2.007   7.755   0.940  0.3348  0.4005 -1.0403
   75MOL   H23822586   1.958   7.608   0.883  0.1881  0.0865  0.5832
   75MOL   H23922587   2.016   7.526   1.067 -1.6449  1.2772 -1.1900
   75MOL   H24022588   2.148   7.639   1.100  0.2077  0.1319 -0.8642
   75MOL   H24122589   2.176   7.498   0.992 -1.3209  0.2707 -2.5255
   75MOL   C24222590   2.292   7.870   0.510 -0.0739  0.4513  1.2249
   75MOL   C24322591   2.180   0.006   0.417  0.1542  0.8847 -0.1137
   75MOL   C24422592   2.177   7.832   0.288 -0.8042 -0.8429  0.8332
   75MOL   O24522593   2.103   7.732   0.279  0.3825 -0.0344 -0.0912
   75MOL   O24622594   2.250   7.887   0.190 -0.1050  0.0712 -0.8573
   75MOL   C24722595   2.282   7.806   0.085 -0.4843 -0.8170  0.0304
   75MOL   C24822596   2.430   7.774   0.082  0.2432 -0.3504  0.6591
   75MOL   H24922597   2.320   0.045   0.575 -0.6397  1.7791 -0.2235
   75MOL   H25022598   2.384   7.855   0.453 -2.8321  1.6047 -3.7470
   75MOL   H25122599   2.085   7.897   0.469  1.0281 -1.1264  0.9039
   75MOL   H25222600   2.212   7.722   0.089 -3.1059  1.3283  0.1769
   75MOL   H25322601   2.245   7.855   7.904  0.3355 -1.1636 -0.5063
   75MOL   H25422602   2.429   7.703   7.908 -3.0428 -0.8412  1.0807
   75MOL   H25522603   2.470   7.741   0.177  0.3239  0.4540  0.9140
   75MOL   H25622604   2.505   7.851   0.059  0.5434 -0.7115  0.4213
   75MOL   C25722605   2.184   0.164   0.399  0.2152  0.0678  0.4058
   75MOL   C25822606   2.069   0.223   0.320  0.4884  0.0890  0.1860
   75MOL   C25922607   2.117   0.345   0.244 -0.9902 -0.0885 -0.0479
   75MOL   O26022608   2.096   0.362   0.122 -0.4491  0.0264 -0.3224
   75MOL   O26122609   2.169   0.442   0.322 -0.5272 -0.5964  0.1033
   75MOL   C26222610   2.191   0.574   0.262  0.0384  0.0197 -0.0992
   75MOL   C26322611   2.266   0.667   0.358  1.2687 -0.4768 -0.1767
   75MOL   H26422612   2.177   0.214   0.496  2.6666  1.0067  0.1298
   75MOL   H26522613   2.281   0.186   0.356 -0.6259  0.8078 -1.1779
   75MOL   H26622614   2.045   0.158   0.236  0.9071 -0.6795  0.6515
   75MOL   H26722615   2.245   0.578   0.167  0.9637 -0.3801  0.4084
   75MOL   H26822616   2.091   0.612   0.241  0.1897  2.0151  2.5562
   75MOL   H26922617   2.288   0.764   0.314  1.4787 -0.8971 -1.0035
   75MOL   H27022618   2.362   0.637   0.399  1.4859 -1.1324 -1.1618
   75MOL   H27122619   2.204   0.688   0.445  1.6645 -2.6024  0.6487
   75MOL   C27222620   1.935   0.242   0.402  0.2251 -0.4112 -0.1296
   75MOL   C27322621   1.817   0.296   0.321  1.0858 -0.2580 -0.0180
   75MOL   C27422622   1.778   0.440   0.356 -0.2015  0.0184 -0.2721
   75MOL   O27522623   1.668   0.470   0.401 -0.7105 -0.5292 -0.0832
   75MOL   O27622624   1.877   0.523   0.348 -0.7060 -0.3117 -0.2545
   75MOL   C27722625   1.874   0.639   0.430  0.1481  0.5389 -0.8237
   75MOL   C27822626   1.937   0.592   0.563 -0.3722  0.0859 -0.0549
   75MOL   H27922627   1.907   0.154   0.459 -0.0547 -0.5350 -0.4586
   75MOL   H28022628   1.966   0.307   0.485  1.0857 -2.5687  1.2928
   75MOL   H28122629   1.844   0.302   0.215  1.1538 -0.7563 -0.0299
   75MOL   H28222630   1.946   0.711   0.390 -0.2395  0.8220 -1.0190
   75MOL   H28322631   1.776   0.685   0.447  0.9377  1.7724  0.5644
   75MOL   H28422632   1.968   0.671   0.632 -1.9114  1.1367 -0.5458
   75MOL   H28522633   2.023   0.531   0.535  0.7145  1.8624 -0.6975
   75MOL   H28622634   1.857   0.537   0.611 -0.2031  1.0694  1.3713
   75MOL   C28722635   1.693   0.201   0.326 -0.0323 -0.2931  0.0417
   75MOL   C28822636   1.577   0.242   0.223 -0.3671 -0.0680  0.4938
   75MOL   C28922637   1.611   0.183   0.084  0.1192  0.4519 -0.4209
   75MOL   O29022638   1.561   0.082   0.044  0.7695  0.1782 -0.1757
   75MOL   O29122639   1.713   0.249   0.021 -0.2750 -0.2164 -0.4643
   75MOL   C29222640   1.774   0.200   7.812  0.2775 -0.4028 -0.2390
   75MOL   C29322641   1.913   0.146   7.826  0.4480  0.0652 -0.5941
   75MOL   H29422642   1.727   0.097   0.324  0.2962 -0.2064  0.7899
   75MOL   H29522643   1.654   0.212   0.427 -1.4251  1.5479 -0.6653
   75MOL   H29622644   1.484   0.196   0.255 -1.7126  2.0127 -0.3216
   75MOL   H29722645   1.715   0.119   7.769 -0.2951 -0.6015  0.9230
   75MOL   H29822646   1.749   0.272   7.734 -0.4597 -0.0105  0.3493
   75MOL   H29922647   1.920   0.050   7.876  0.3114  1.1061  1.4601
   75MOL   H30022648   1.972   0.213   7.888 -0.5229  1.8448 -1.5464
   75MOL   H30122649   1.966   0.138   7.731  0.4894  0.8467 -0.6412
   75MOL   H30222650   1.557   0.348   0.205  0.9114  0.2453  0.8951
   76MOL     C122651   0.926   1.701   3.776 -0.0821 -0.2042  0.2782
   76MOL     C222652   0.795   1.636   3.732  0.3015  0.2765  0.5976
   76MOL     C322653   0.670   1.701   3.791  0.9421  0.1370 -0.0106
   76MOL     O422654   0.669   1.795   3.870  0.2841  0.1180  0.6262
   76MOL     O522655   0.563   1.640   3.742 -0.1258 -0.4730 -0.6701
   76MOL     C622656   0.430   1.696   3.764 -0.4518 -0.1372 -0.2976
   76MOL     C722657   0.334   1.595   3.696  0.0371 -0.0099 -0.1454
   76MOL     H822658   0.923   1.808   3.755  0.2125 -0.6880 -2.3579
   76MOL     H922659   1.007   1.665   3.713  1.6686  1.3237  1.5663
   76MOL    H1022660   0.769   1.661   3.629  1.7602  0.2760  0.2153
   76MOL    H1122661   0.417   1.715   3.870  0.3612  2.3747 -0.6043
   76MOL    H1222662   0.421   1.793   3.716  0.7676  1.4171  2.5011
   76MOL    H1322663   0.230   1.626   3.706 -0.1595 -1.0408  1.0927
   76MOL    H1422664   0.342   1.492   3.731  0.1269  0.7734  2.2077
   76MOL    H1522665   0.358   1.585   3.590  0.5624  0.8033 -0.1054
   76MOL    H1622666   0.943   1.689   3.883 -0.3831 -1.9259  0.1469
   76MOL    C1722667   0.799   1.485   3.739  0.1691  0.5979  0.7356
   76MOL    C1822668   0.835   1.433   3.600  0.2640 -0.0311 -0.3441
   76MOL    C1922669   0.705   1.389   3.526  0.7453 -0.5080  0.5785
   76MOL    O2022670   0.658   1.451   3.424 -0.1440  0.1212 -0.0229
   76MOL    O2122671   0.649   1.277   3.579  0.1577 -1.0947  0.2948
   76MOL    C2222672   0.540   1.205   3.513  0.4361 -0.5443 -0.2541
   76MOL    C2322673   0.589   1.118   3.402 -0.4519 -0.2168  0.9023
   76MOL    H2422674   0.860   1.446   3.820 -0.6378 -3.0240 -0.2754
   76MOL    H2522675   0.705   1.439   3.768  1.4292 -2.3643  0.3416
   76MOL    H2622676   0.870   1.524   3.551  1.6038  0.0747  0.8106
   76MOL    H2722677   0.486   1.152   3.591  0.5830 -2.1484 -1.2278
   76MOL    H2822678   0.465   1.275   3.475  0.4874  0.9225  2.2191
   76MOL    H2922679   0.650   1.176   3.332 -0.8373  1.4635  1.9409
   76MOL    H3022680   0.502   1.076   3.351 -0.7442  0.5960  0.7075
   76MOL    H3122681   0.658   1.043   3.438  1.2976 -0.2819 -2.3505
   76MOL    C3222682   0.942   1.317   3.604 -0.5688 -0.1753 -0.1465
   76MOL    C3322683   1.011   1.270   3.474  0.0796 -0.0834  0.8675
   76MOL    C3422684   1.036   1.385   3.377 -0.1102 -0.3221  0.4373
   76MOL    O3522685   0.976   1.384   3.265 -0.8317  0.4858 -0.1582
   76MOL    O3622686   1.124   1.473   3.429  0.6906 -0.0754  0.1767
   76MOL    C3722687   1.149   1.582   3.343  0.4876 -0.3942 -0.3305
   76MOL    C3822688   1.035   1.686   3.351 -0.2633 -0.1296  0.5599
   76MOL    H3922689   1.022   1.358   3.666  0.5057 -3.6233  0.8557
   76MOL    H4022690   0.902   1.229   3.655  1.6482 -1.2860 -0.2355
   76MOL    H4122691   1.110   1.238   3.508  0.8433  1.3647  0.0300
   76MOL    H4222692   1.241   1.632   3.373  0.1788 -1.3006  2.2241
   76MOL    H4322693   1.152   1.569   3.235 -0.9550  1.2083 -0.5932
   76MOL    H4422694   0.939   1.634   3.345  0.5246 -1.7471  1.6648
   76MOL    H4522695   1.042   1.745   3.260  1.8934  0.5557  1.1393
   76MOL    H4622696   1.031   1.739   3.447 -1.2314  1.3329 -0.2675
   76MOL    C4722697   0.943   1.146   3.417 -0.4501 -0.7511 -0.5309
   76MOL    C4822698   1.027   1.058   3.328 -0.3548  0.3408 -0.2851
   76MOL    C4922699   0.958   0.988   3.211  0.4435 -0.3337  0.6806
   76MOL    O5022700   0.843   1.019   3.186 -0.5903 -0.1126 -0.1396
   76MOL    O5122701   1.032   0.914   3.123  0.6467 -0.2389 -0.2549
   76MOL    C5222702   0.969   0.857   3.008  0.1311 -0.1878  0.4080
   76MOL    C5322703   0.956   0.958   2.888 -0.3362 -0.0099 -0.0493
   76MOL    H5422704   0.905   1.079   3.494  1.0968 -1.7420 -0.5858
   76MOL    H5522705   0.858   1.198   3.374 -0.4763  1.0016  1.5883
   76MOL    H5622706   1.098   1.120   3.273  0.4277  1.3703  1.8353
   76MOL    H5722707   1.028   0.771   2.977  0.5464  1.2291 -2.9707
   76MOL    H5822708   0.869   0.822   3.034 -0.2859  0.7477  0.1232
   76MOL    H5922709   0.900   1.047   2.918  2.9831  2.2547 -0.2252
   76MOL    H6022710   0.906   0.922   2.798 -2.2712  0.6388  0.7381
   76MOL    H6122711   1.052   1.003   2.861 -0.5403  0.4705  0.0183
   76MOL    C6222712   1.107   0.946   3.408  0.0021 -0.5212 -0.0894
   76MOL    C6322713   1.197   0.974   3.530 -0.4513 -0.5870  0.0272
   76MOL    C6422714   1.326   1.038   3.477  0.0174 -0.7584 -0.1598
   76MOL    O6522715   1.426   0.965   3.459 -0.4385 -0.4389  0.1657
   76MOL    O6622716   1.323   1.172   3.455  0.1493  0.2425  0.9513
   76MOL    C6722717   1.429   1.229   3.385  0.5181 -0.2116  1.8349
   76MOL    C6822718   1.404   1.377   3.346 -0.2423  0.6415  0.5215
   76MOL    H6922719   1.041   0.866   3.442  0.1631 -1.5374 -2.0659
   76MOL    H7022720   1.174   0.893   3.341 -1.5165  0.7158 -2.6803
   76MOL    H7122721   1.151   1.037   3.606  0.3105 -1.7907  1.5270
   76MOL    H7222722   1.525   1.232   3.438  2.4886 -0.5735 -1.5974
   76MOL    H7322723   1.449   1.166   3.299 -0.8047 -0.7032  1.8912
   76MOL    H7422724   1.489   1.413   3.288 -0.4158  0.4439  0.1396
   76MOL    H7522725   1.374   1.449   3.422 -0.2125  1.9805 -0.7052
   76MOL    H7622726   1.333   1.385   3.263 -1.4969 -1.3590  1.3585
   76MOL    C7722727   1.225   0.841   3.602  0.0866 -0.5922 -0.0716
   76MOL    C7822728   1.297   0.850   3.734  0.4967 -0.2014 -0.6581
   76MOL    C7922729   1.383   0.727   3.767 -0.0502  0.1031  0.5597
   76MOL    O8022730   1.501   0.744   3.801 -0.1766 -0.1200  0.2442
   76MOL    O8122731   1.323   0.602   3.743  0.7109  0.4293 -0.2107
   76MOL    C8222732   1.400   0.484   3.707  0.3140 -0.2292  0.2889
   76MOL    C8322733   1.305   0.376   3.652 -0.6653  0.1819 -0.2078
   76MOL    H8422734   1.131   0.792   3.629  1.0169 -2.4009 -0.0726
   76MOL    H8522735   1.273   0.767   3.538 -1.0485 -1.5735  0.1970
   76MOL    H8622736   1.368   0.932   3.732 -1.0819  1.3198  1.8105
   76MOL    H8722737   1.474   0.511   3.632  0.7238 -2.1841 -0.0276
   76MOL    H8822738   1.454   0.443   3.793 -0.6864 -0.9081  0.6043
   76MOL    H8922739   1.236   0.319   3.715 -2.3187  1.2848 -1.0196
   76MOL    H9022740   1.373   0.299   3.616  0.9470  1.0486  0.8859
   76MOL    H9122741   1.268   0.417   3.559 -0.2187 -0.6232 -0.7470
   76MOL    C9222742   1.196   0.873   3.854 -0.0485  0.1315 -0.0756
   76MOL    C9322743   1.139   1.017   3.873 -0.9273  0.3457  0.5681
   76MOL    C9422744   1.261   1.113   3.878  0.4612 -0.3654 -0.4973
   76MOL    O9522745   1.274   1.200   3.788  0.4141  0.0933  0.1226
   76MOL    O9622746   1.358   1.090   3.973  0.6795 -0.0132 -0.2648
   76MOL    C9722747   1.479   1.165   3.985  0.5463  0.1096  0.1096
   76MOL    C9822748   1.599   1.073   3.996 -0.1681  0.5852 -0.4197
   76MOL    H9922749   1.108   0.809   3.849  2.7473 -3.8400 -0.8299
   76MOL   H10022750   1.252   0.853   3.945  0.7132 -1.1388 -0.8132
   76MOL   H10122751   1.075   1.027   3.786  0.9561 -2.4804 -1.2067
   76MOL   H10222752   1.485   1.226   3.895 -0.6936  1.4859  0.9368
   76MOL   H10322753   1.473   1.224   4.077 -1.0924 -2.3295  1.6173
   76MOL   H10422754   1.694   1.125   3.996 -0.1339  0.5257 -0.5536
   76MOL   H10522755   1.609   1.003   3.912  1.3145 -0.3060  0.4810
   76MOL   H10622756   1.585   1.011   4.084  1.0950 -0.9075 -1.2274
   76MOL   C10722757   1.060   1.022   4.005 -0.0780 -1.3919  0.7285
   76MOL   C10822758   0.940   0.927   4.037  0.4730 -0.1055  0.4171
   76MOL   C10922759   0.825   0.952   3.943 -0.2849 -0.2576 -0.5536
   76MOL   O11022760   0.808   0.877   3.851 -0.1570  0.3232 -0.3500
   76MOL   O11122761   0.751   1.061   3.967  0.2742  0.3841 -0.5208
   76MOL   C11222762   0.648   1.104   3.871  0.0549  0.5505 -0.1542
   76MOL   C11322763   0.502   1.087   3.914 -0.0870  0.1234  0.2533
   76MOL   H11422764   1.123   1.023   4.094  0.7011  0.1142  0.1771
   76MOL   H11522765   1.020   1.123   4.011 -1.3331 -1.8987  1.0928
   76MOL   H11622766   0.981   0.828   4.017  4.0239  1.7055 -1.7524
   76MOL   H11722767   0.661   1.211   3.854  1.6027  0.1634 -1.5624
   76MOL   H11822768   0.669   1.048   3.780  0.0696 -0.5858  0.5360
   76MOL   H11922769   0.432   1.124   3.840  1.3436  1.7780 -0.2868
   76MOL   H12022770   0.488   1.158   3.996  1.5390 -1.0943  1.6212
   76MOL   H12122771   0.469   0.989   3.951  0.9690 -0.6768 -0.9115
   76MOL   C12222772   0.889   0.919   4.186  0.1925 -0.4042  0.5488
   76MOL   C12322773   0.850   0.774   4.222 -0.2688 -0.5698  0.1490
   76MOL   C12422774   0.730   0.784   4.316 -0.4935  0.6427  0.5887
   76MOL   O12522775   0.736   0.831   4.431  0.2125 -0.3186 -0.0387
   76MOL   O12622776   0.621   0.728   4.263  0.0430 -0.3084 -1.0016
   76MOL   C12722777   0.490   0.740   4.326  1.0671  0.0509 -0.7419
   76MOL   C12822778   0.474   0.645   4.449  0.0863  0.1364  0.0410
   76MOL   H12922779   0.958   0.957   4.262  0.6187  2.2565 -1.0990
   76MOL   H13022780   0.808   0.991   4.201  0.5598  0.2882 -0.7073
   76MOL   H13122781   0.817   0.733   4.127  0.6790  0.4058 -0.6130
   76MOL   H13222782   0.470   0.843   4.356 -1.5218 -0.8943  0.9500
   76MOL   H13322783   0.422   0.708   4.247  1.8753 -0.6875 -1.1489
   76MOL   H13422784   0.540   0.672   4.532  0.3575  0.0597 -0.1485
   76MOL   H13522785   0.490   0.540   4.423  0.8716  0.0374  0.8789
   76MOL   H13622786   0.377   0.646   4.499 -0.0841 -1.4296 -0.2241
   76MOL   C13722787   0.961   0.683   4.287  0.7637  0.6494 -0.4721
   76MOL   C13822788   1.093   0.671   4.209  0.1446 -0.4482  0.2271
   76MOL   C13922789   1.082   0.572   4.097  0.1336 -0.6472 -0.1530
   76MOL   O14022790   1.095   0.612   3.980  0.0073 -0.4490  0.0295
   76MOL   O14122791   1.077   0.435   4.132  0.4077  0.1062 -0.5363
   76MOL   C14222792   1.093   0.335   4.036  0.7664  0.7854  0.2301
   76MOL   C14322793   1.202   0.236   4.078  0.2577 -0.0251  0.0006
   76MOL   H14422794   0.986   0.717   4.388  0.7777 -2.5206  0.6279
   76MOL   H14522795   0.928   0.581   4.306  2.5635 -0.2758 -2.1458
   76MOL   H14622796   1.112   0.768   4.164  1.9788 -1.1665 -0.5789
   76MOL   H14722797   0.998   0.281   4.043  2.0113 -1.4553  0.4799
   76MOL   H14822798   1.109   0.381   3.938 -0.0940  1.6987  0.5161
   76MOL   H14922799   1.297   0.286   4.057 -0.3033  0.6762 -0.8796
   76MOL   H15022800   1.198   0.147   4.015 -1.7159  1.3262 -1.8204
   76MOL   H15122801   1.190   0.221   4.186 -1.2825  2.4736  0.2199
   76MOL   C15222802   1.215   0.650   4.298 -0.0174  0.4948 -0.0096
   76MOL   C15322803   1.333   0.715   4.221  0.2829  0.0010 -0.2086
   76MOL   C15422804   1.428   0.617   4.158 -0.2797 -0.3105  0.1145
   76MOL   O15522805   1.398   0.502   4.133 -0.3129  0.6575 -0.9014
   76MOL   O15622806   1.548   0.670   4.124  0.6694  0.4009 -0.6565
   76MOL   C15722807   1.647   0.593   4.051 -0.6661 -0.0448  0.2653
   76MOL   C15822808   1.756   0.683   3.999  0.2658 -0.5578 -0.4632
   76MOL   H15922809   1.206   0.696   4.397  1.4825 -0.9195  0.8038
   76MOL   H16022810   1.229   0.546   4.327 -1.3133  0.4034  0.3193
   76MOL   H16122811   1.307   0.779   4.137 -1.7400 -0.3387  0.1423
   76MOL   H16222812   1.686   0.523   4.125 -0.8348 -2.8024 -2.2015
   76MOL   H16322813   1.598   0.533   3.974  0.0707 -0.3950  0.0709
   76MOL   H16422814   1.826   0.623   3.941  0.0248  0.2748 -1.6370
   76MOL   H16522815   1.799   0.725   4.090 -0.4994 -1.6094  0.4002
   76MOL   H16622816   1.724   0.767   3.937 -2.2934 -1.6983 -0.7431
   76MOL   C16722817   1.399   0.824   4.311 -0.4229 -0.7255  0.2134
   76MOL   C16822818   1.497   0.778   4.420 -0.6682 -0.4651  0.0169
   76MOL   C16922819   1.437   0.759   4.557 -0.2361  0.4767 -0.8199
   76MOL   O17022820   1.445   0.848   4.644  0.1615  1.0044  0.2116
   76MOL   O17122821   1.383   0.632   4.572  0.2235 -0.1285 -0.1665
   76MOL   C17222822   1.330   0.597   4.697  0.4649  0.8901  0.3707
   76MOL   C17322823   1.249   0.470   4.679  0.4008 -0.7331  0.5068
   76MOL   H17422824   1.452   0.894   4.247 -0.5981 -1.7073 -1.0304
   76MOL   H17522825   1.317   0.889   4.342 -0.0331  1.2244 -2.6091
   76MOL   H17622826   1.545   0.685   4.391  1.1537  0.8858 -1.5010
   76MOL   H17722827   1.419   0.592   4.760  0.8167 -2.4387 -0.3101
   76MOL   H17822828   1.266   0.677   4.735 -1.3148 -0.8105  1.0643
   76MOL   H17922829   1.152   0.509   4.650  0.6496 -0.6833 -0.2671
   76MOL   H18022830   1.236   0.412   4.770 -0.5348 -1.2303  0.0579
   76MOL   H18122831   1.294   0.408   4.601  0.2131  0.3625 -0.4856
   76MOL   C18222832   1.620   0.864   4.434  0.4566  0.1586  0.4247
   76MOL   C18322833   1.737   0.820   4.535 -0.4586  0.8804  0.7028
   76MOL   C18422834   1.838   0.932   4.540  0.1097 -0.0045  0.4526
   76MOL   O18522835   1.857   0.999   4.640  0.4482  0.5147 -0.3239
   76MOL   O18622836   1.914   0.947   4.421 -0.5484 -0.3108 -0.5041
   76MOL   C18722837   2.000   1.056   4.405 -0.6515 -0.2452  0.2571
   76MOL   C18822838   2.093   1.031   4.287 -0.2889  0.6147 -0.4797
   76MOL   H18922839   1.659   0.862   4.333 -0.4998 -3.1893  0.0624
   76MOL   H19022840   1.585   0.966   4.444 -1.0980 -0.2512 -0.6623
   76MOL   H19122841   1.706   0.808   4.639 -1.1209  1.6463  0.5974
   76MOL   H19222842   1.938   1.144   4.387  0.5528  1.0546  2.2395
   76MOL   H19322843   2.063   1.068   4.493  0.6211  2.7181 -0.9625
   76MOL   H19422844   2.029   1.026   4.199  0.5237  0.4259 -1.0619
   76MOL   H19522845   2.155   0.942   4.284 -1.5129 -0.2722  0.1946
   76MOL   H19622846   2.150   1.123   4.272  0.4476  0.8487  3.1857
   76MOL   C19722847   1.806   0.684   4.504  0.2939 -0.0758  0.1360
   76MOL   C19822848   1.738   0.563   4.569  0.2041  0.9725 -0.7475
   76MOL   C19922849   1.738   0.566   4.719  0.1398 -0.2270  0.5527
   76MOL   O20022850   1.821   0.633   4.776 -0.2305 -0.4849 -0.1350
   76MOL   O20122851   1.636   0.498   4.765  0.6144 -0.3893 -0.0792
   76MOL   C20222852   1.621   0.493   4.904 -0.4708  0.4244 -0.2379
   76MOL   C20322853   1.564   0.359   4.934 -0.2260  0.3186 -0.4334
   76MOL   H20422854   1.796   0.676   4.396 -0.3308 -1.2655  0.2716
   76MOL   H20522855   1.913   0.689   4.526  0.2273  1.2119  0.2050
   76MOL   H20622856   1.635   0.568   4.535 -1.1687 -1.3887  2.7592
   76MOL   H20722857   1.712   0.508   4.961  0.1870  0.7981 -1.3588
   76MOL   H20822858   1.553   0.570   4.940 -1.0597 -0.2198  0.0673
   76MOL   H20922859   1.631   0.276   4.915 -1.1545 -0.4008 -0.6287
   76MOL   H21022860   1.478   0.346   4.868 -0.8195  2.7027 -0.1822
   76MOL   H21122861   1.537   0.339   5.038 -0.2274 -0.4198 -0.5682
   76MOL   C21222862   1.810   0.439   4.524 -0.0828 -0.3996 -0.3408
   76MOL   C21322863   1.744   0.297   4.537 -0.0037 -0.5023 -0.3472
   76MOL   C21422864   1.836   0.184   4.590  0.0346  0.1389 -0.3376
   76MOL   O21522865   1.900   0.114   4.511  0.0196 -0.6699 -0.3347
   76MOL   O21622866   1.815   0.155   4.719  0.0404  0.4836 -0.2207
   76MOL   C21722867   1.872   0.039   4.783 -0.0861 -0.0426 -0.0220
   76MOL   C21822868   1.784   7.827   4.752 -0.2793  0.3184  0.0507
   76MOL   H21922869   1.842   0.449   4.420 -0.4482 -0.0057 -0.4142
   76MOL   H22022870   1.903   0.431   4.582 -0.4784  1.3287  0.5527
   76MOL   H22122871   1.660   0.305   4.606  0.6457  1.5483  0.2385
   76MOL   H22222872   1.973   0.015   4.752 -0.3429  1.5205 -2.1815
   76MOL   H22322873   1.879   0.065   4.889 -0.1990  1.2710 -0.3250
   76MOL   H22422874   1.833   7.746   4.806 -1.3593 -0.7421 -0.5475
   76MOL   H22522875   1.763   7.804   4.647  0.1310  3.3004 -0.7313
   76MOL   H22622876   1.689   7.849   4.802  0.3727 -1.6906  2.2249
   76MOL   C22722877   1.671   0.267   4.397  0.9399  0.2157  0.0996
   76MOL   C22822878   1.559   0.158   4.403 -0.2322 -0.2402  0.1609
   76MOL   C22922879   1.529   0.094   4.273 -0.4350  0.3862  0.2128
   76MOL   O23022880   1.477   7.892   4.269 -1.2979  0.0726  0.3990
   76MOL   O23122881   1.554   0.161   4.167  0.3245  0.2210  0.1669
   76MOL   C23222882   1.533   0.112   4.034 -0.3806  0.3637  0.1799
   76MOL   C23322883   1.568   0.225   3.933  0.3788  0.1181  0.5223
   76MOL   H23422884   1.635   0.354   4.341  2.6682  1.1969  0.4671
   76MOL   H23522885   1.750   0.231   4.331  0.2382  0.7409 -1.0379
   76MOL   H23622886   1.605   0.075   4.458 -2.1599 -2.3708 -1.3461
   76MOL   H23722887   1.588   0.021   4.011  0.5501  1.0926 -0.5456
   76MOL   H23822888   1.427   0.092   4.022 -0.7378  0.8515  2.2295
   76MOL   H23922889   1.670   0.259   3.914 -0.7313  2.6186 -1.2668
   76MOL   H24022890   1.512   0.314   3.962  0.1014 -0.0554  0.5160
   76MOL   H24122891   1.523   0.210   3.835  1.6316 -1.6322  0.1888
   76MOL   C24222892   1.435   0.215   4.472 -0.0064  0.8262 -0.0368
   76MOL   C24322893   1.353   0.099   4.533 -0.6849  0.0083 -0.2466
   76MOL   C24422894   1.199   0.115   4.518 -0.2206 -0.4970  0.1553
   76MOL   O24522895   1.138   0.187   4.592 -0.2339  0.0956 -0.1420
   76MOL   O24622896   1.144   0.039   4.425 -0.0589 -0.0739 -0.0834
   76MOL   C24722897   1.008   0.050   4.391 -1.0017 -0.6085  0.1826
   76MOL   C24822898   0.964   7.829   4.319 -0.1935  0.9171  0.1055
   76MOL   H24922899   1.463   0.299   4.535 -1.5653  1.3028  0.0302
   76MOL   H25022900   1.377   0.270   4.398  0.1781  0.3090 -0.5739
   76MOL   H25122901   1.372   0.005   4.483 -2.7734 -1.2761  1.2845
   76MOL   H25222902   0.940   0.069   4.474 -0.0515  0.5954  0.7024
   76MOL   H25322903   1.023   0.133   4.321  3.8967 -0.8727  0.7399
   76MOL   H25422904   0.856   7.830   4.306 -0.1730 -1.0357 -0.3271
   76MOL   H25522905   0.986   7.738   4.375 -0.4007 -0.9247 -2.6936
   76MOL   H25622906   1.018   7.823   4.224 -0.5304 -0.3914 -0.0042
   76MOL   C25722907   1.396   0.074   4.687  0.0303 -0.1375  0.4722
   76MOL   C25822908   1.321   7.872   4.776  0.3220 -0.4303  0.4228
   76MOL   C25922909   1.376   7.880   4.922  0.0867 -0.8952  1.0568
   76MOL   O26022910   1.481   0.027   4.945 -0.4639 -0.5610  0.2418
   76MOL   O26122911   1.294   7.802   5.004  0.4633 -0.5625 -0.1256
   76MOL   C26222912   1.325   7.784   5.138  0.7154 -0.1900  0.2463
   76MOL   C26322913   1.279   0.001   5.214 -0.2270 -1.0366 -0.2389
   76MOL   H26422914   1.504   0.055   4.689  0.3113  1.0153 -2.0803
   76MOL   H26522915   1.370   0.172   4.726  0.6033  1.0622 -2.0496
   76MOL   H26622916   1.216   7.902   4.781  0.3959  0.2236 -1.6327
   76MOL   H26722917   1.259   7.706   5.176 -1.1449  0.3235 -1.8227
   76MOL   H26822918   1.427   7.750   5.156 -0.3304 -3.3528  0.4933
   76MOL   H26922919   1.304   0.003   5.320 -0.9629 -1.5213 -0.0480
   76MOL   H27022920   1.173   0.026   5.210 -0.2751 -1.0949  0.5163
   76MOL   H27122921   1.337   0.090   5.189 -0.5330 -0.4231  1.1552
   76MOL   C27222922   1.339   7.726   4.728 -0.0841  0.1518 -0.4634
   76MOL   C27322923   1.225   7.632   4.772  0.3990 -0.3614 -0.5073
   76MOL   C27422924   1.266   7.511   4.858 -0.2807  0.0448  0.2279
   76MOL   O27522925   1.207   7.492   4.961 -0.8690 -0.0363 -0.4653
   76MOL   O27622926   1.364   7.433   4.805  0.2237  0.1063 -0.4291
   76MOL   C27722927   1.440   7.350   4.891 -0.6163  0.5478  0.5862
   76MOL   C27822928   1.585   7.348   4.828 -0.0163 -0.0414 -0.3469
   76MOL   H27922929   1.340   7.729   4.619  0.0321  2.9649 -0.4040
   76MOL   H28022930   1.429   7.677   4.766 -0.2954 -0.8667 -1.2428
   76MOL   H28122931   1.164   7.699   4.832  0.6315  0.3897 -1.0941
   76MOL   H28222932   1.453   7.376   4.996 -0.1209  1.7798  0.2298
   76MOL   H28322933   1.397   7.250   4.885 -0.4220  0.3665  2.1974
   76MOL   H28422934   1.622   7.450   4.838 -1.9357  1.0952 -3.7339
   76MOL   H28522935   1.605   7.333   4.721  2.2543  0.4908 -0.0225
   76MOL   H28622936   1.633   7.267   4.882 -0.3390 -0.5120 -0.7580
   76MOL   C28722937   1.140   7.592   4.646  0.8341 -1.0188  0.2508
   76MOL   C28822938   0.994   7.549   4.667 -0.1498 -0.1376  0.0472
   76MOL   C28922939   0.899   7.667   4.702 -0.0317  0.1732 -0.2924
   76MOL   O29022940   0.854   7.738   4.614 -0.2452 -0.2796  0.0693
   76MOL   O29122941   0.884   7.689   4.838  0.2009  0.5686  0.0837
   76MOL   C29222942   0.837   7.811   4.878 -0.3287 -0.3883  0.0009
   76MOL   C29322943   0.846   7.826   5.035 -0.2021  0.3678 -0.6318
   76MOL   H29422944   1.140   7.670   4.570  1.2685 -0.2539  1.0253
   76MOL   H29522945   1.188   7.508   4.596 -0.0630 -1.0459 -0.5912
   76MOL   H29622946   0.953   7.498   4.580  0.2977 -0.3863 -0.0200
   76MOL   H29722947   0.892   7.889   4.826  0.9481 -2.1618 -1.3924
   76MOL   H29822948   0.732   7.817   4.847 -0.3376  1.3148  0.3173
   76MOL   H29922949   0.781   7.757   5.089 -0.8824 -0.1192 -2.0462
   76MOL   H30022950   0.810   0.015   5.068 -2.1256 -0.3593 -0.5161
   76MOL   H30122951   0.945   7.803   5.073 -1.7547 -0.5709  3.0221
   76MOL   H30222952   0.992   7.478   4.749 -0.0946  0.7983  0.8676
   77MOL     C122953   1.427   4.514   6.178  0.1789  0.1934 -0.3022
   77MOL     C222954   1.492   4.605   6.286 -0.1521 -0.0063 -0.6835
   77MOL     C322955   1.556   4.535   6.402 -0.1191  0.9985  0.1003
   77MOL     O422956   1.669   4.569   6.439  0.1992  1.3316  0.2189
   77MOL     O522957   1.468   4.445   6.467  0.2878  0.6536  0.2147
   77MOL     C622958   1.496   4.381   6.588  0.3276  0.4124  0.4065
   77MOL     C722959   1.366   4.360   6.669 -0.3643  0.2235 -0.3964
   77MOL     H822960   1.515   4.470   6.130  0.3666 -0.6556  0.8301
   77MOL     H922961   1.371   4.568   6.101  0.9076  0.9849 -0.2976
   77MOL    H1022962   1.574   4.659   6.239  2.0871  1.2737  4.3856
   77MOL    H1122963   1.539   4.281   6.580 -0.3346 -0.1414  3.3167
   77MOL    H1222964   1.573   4.428   6.649 -0.8394  2.1725  0.5417
   77MOL    H1322965   1.382   4.320   6.769  0.3775  0.1075 -0.5601
   77MOL    H1422966   1.302   4.287   6.621 -1.0944  0.5178  0.1199
   77MOL    H1522967   1.305   4.451   6.673  0.5924  0.8806 -0.5691
   77MOL    H1622968   1.373   4.433   6.225  0.9968 -0.4990 -0.5338
   77MOL    C1722969   1.391   4.720   6.325 -0.2623  0.2184 -0.7133
   77MOL    C1822970   1.274   4.693   6.423 -0.3046 -0.1942  0.1646
   77MOL    C1922971   1.173   4.587   6.364 -0.2480  0.1892  0.3512
   77MOL    O2022972   1.178   4.470   6.395  0.4766 -0.2370 -0.1502
   77MOL    O2122973   1.096   4.641   6.266  0.6135 -0.7706  0.2771
   77MOL    C2222974   0.982   4.575   6.210 -0.4997 -0.4522 -0.2699
   77MOL    C2322975   0.957   4.611   6.069  0.1149  0.0146  0.2985
   77MOL    H2422976   1.453   4.787   6.383  0.4294 -2.0195  1.2220
   77MOL    H2522977   1.352   4.779   6.242 -1.1173  0.5816 -0.0713
   77MOL    H2622978   1.316   4.659   6.518  1.4787 -1.2999 -0.9881
   77MOL    H2722979   0.999   4.467   6.220 -1.5689 -0.4924  1.4810
   77MOL    H2822980   0.896   4.598   6.273 -0.6717 -0.6111 -0.4476
   77MOL    H2922981   0.967   4.718   6.048  0.9232 -0.1794 -0.3188
   77MOL    H3022982   0.859   4.573   6.040  0.9355 -0.4337 -1.9833
   77MOL    H3122983   1.027   4.547   6.015  0.1066 -1.9667  2.5666
   77MOL    C3222984   1.202   4.820   6.457 -0.1981 -0.1082  0.4749
   77MOL    C3322985   1.073   4.817   6.552 -0.1309 -0.4074 -0.4391
   77MOL    C3422986   0.969   4.928   6.516  0.3735 -0.6028  0.8605
   77MOL    O3522987   0.862   4.903   6.461  0.4668  0.2960  0.0069
   77MOL    O3622988   1.012   5.051   6.555 -0.2671  0.4639 -0.2895
   77MOL    C3722989   0.938   5.169   6.551  0.3746  0.2920  0.1282
   77MOL    C3822990   1.030   5.298   6.549 -0.2725 -0.7861 -0.0477
   77MOL    H3922991   1.278   4.878   6.510  0.3672 -0.9550  0.5935
   77MOL    H4022992   1.185   4.870   6.362  0.1513 -1.6342 -0.3994
   77MOL    H4122993   1.018   4.726   6.527 -1.1985 -0.5097  2.1057
   77MOL    H4222994   0.879   5.158   6.460  0.3934 -2.2190  0.3810
   77MOL    H4322995   0.867   5.158   6.633 -1.0683  1.6821 -0.8987
   77MOL    H4422996   1.102   5.293   6.631  0.4195 -1.5948 -0.6909
   77MOL    H4522997   0.961   5.381   6.564 -3.1542 -2.9353 -1.0139
   77MOL    H4622998   1.087   5.307   6.456 -0.9645  1.7538 -0.2648
   77MOL    C4722999   1.096   4.798   6.702 -0.0268 -0.5404  0.8182
   77MOL    C4823000   0.978   4.766   6.787 -0.5593  0.2056  0.2406
   77MOL    C4923001   0.908   4.893   6.826  0.0553 -0.7036 -0.2162
   77MOL    O5023002   0.962   4.969   6.908  0.0039 -0.3948  0.1364
   77MOL    O5123003   0.785   4.909   6.775 -0.2805  0.2695 -0.1723
   77MOL    C5223004   0.691   5.010   6.816 -0.1507 -0.1285  0.6430
   77MOL    C5323005   0.555   4.958   6.790  0.2572 -0.9121  0.4645
   77MOL    H5423006   1.162   4.712   6.714 -0.2358 -0.8777 -0.3181
   77MOL    H5523007   1.151   4.884   6.739  1.2513 -0.8479 -0.3212
   77MOL    H5623008   0.917   4.699   6.727  1.4735  0.3624 -2.0723
   77MOL    H5723009   0.697   5.037   6.922  2.3696  2.6804 -0.1680
   77MOL    H5823010   0.719   5.110   6.783 -1.3695  0.4237  1.2372
   77MOL    H5923011   0.541   4.869   6.852  1.0123 -0.9397  0.5996
   77MOL    H6023012   0.538   4.938   6.684 -0.0955 -0.5960  0.4630
   77MOL    H6123013   0.477   5.025   6.827 -0.5264  0.3625 -3.3071
   77MOL    C6223014   1.017   4.678   6.912 -0.0113  0.0779 -0.7703
   77MOL    C6323015   0.898   4.629   6.999  0.5299 -0.4536  0.8480
   77MOL    C6423016   0.951   4.562   7.121 -0.0889  1.2325 -0.2682
   77MOL    O6523017   1.052   4.492   7.123  0.8335 -0.1357 -0.5575
   77MOL    O6623018   0.875   4.570   7.229  0.6153  0.8360 -0.0842
   77MOL    C6723019   0.922   4.516   7.352 -1.3836 -0.4479 -0.3412
   77MOL    C6823020   0.835   4.546   7.467  0.6359  0.1289 -0.3110
   77MOL    H6923021   1.082   4.592   6.896  1.6391  1.1598  0.0262
   77MOL    H7023022   1.075   4.737   6.983 -0.6502  0.1284 -0.2938
   77MOL    H7123023   0.848   4.719   7.036 -2.0460 -2.4080  2.2421
   77MOL    H7223024   0.932   4.408   7.347  2.8722 -0.0422 -2.2518
   77MOL    H7323025   1.025   4.537   7.378 -2.0100  0.5376  1.5080
   77MOL    H7423026   0.883   4.491   7.548  1.5858  1.7457  0.2475
   77MOL    H7523027   0.729   4.524   7.452  0.5169  1.1164 -0.9944
   77MOL    H7623028   0.838   4.653   7.490  0.7427  0.3562 -1.3617
   77MOL    C7723029   0.777   4.549   6.933  0.5648  0.3324  0.1597
   77MOL    C7823030   0.820   4.420   6.869 -0.2307  0.5546 -0.1065
   77MOL    C7923031   0.872   4.433   6.724  0.8278  0.0380  0.1077
   77MOL    O8023032   0.990   4.414   6.702  0.6325  0.2109  0.2201
   77MOL    O8123033   0.780   4.477   6.644  0.7182 -0.3590  0.2476
   77MOL    C8223034   0.803   4.493   6.508  0.5493  0.1159 -0.4556
   77MOL    C8323035   0.665   4.496   6.450 -0.0748  0.3952  0.2901
   77MOL    H8423036   0.706   4.520   7.010 -0.0568 -0.2249 -0.6285
   77MOL    H8523037   0.729   4.614   6.860  0.2956  0.9115  0.8485
   77MOL    H8623038   0.904   4.376   6.924 -0.0965 -0.5829 -1.2142
   77MOL    H8723039   0.868   4.580   6.497  2.6449 -1.3833 -0.3067
   77MOL    H8823040   0.871   4.418   6.466 -0.1145 -1.3457  1.0368
   77MOL    H8923041   0.627   4.394   6.449  0.1587  0.2619  3.1466
   77MOL    H9023042   0.667   4.513   6.342  1.2747 -0.4315  0.1638
   77MOL    H9123043   0.595   4.565   6.496 -0.8927 -1.7946  2.4145
   77MOL    C9223044   0.719   4.304   6.879 -0.4869  0.4627 -0.3118
   77MOL    C9323045   0.786   4.162   6.847  0.0840 -0.0436 -0.2432
   77MOL    C9423046   0.749   4.112   6.707  0.0087 -0.2883  0.0910
   77MOL    O9523047   0.636   4.126   6.658  0.7301  0.3825  0.2980
   77MOL    O9623048   0.852   4.060   6.646  0.8351 -0.2027  0.5232
   77MOL    C9723049   0.839   4.014   6.511  0.0771  0.3484 -0.2432
   77MOL    C9823050   0.859   4.133   6.417 -0.1777  0.4066 -0.0325
   77MOL    H9923051   0.674   4.303   6.978 -1.0071  2.0703 -0.5272
   77MOL   H10023052   0.630   4.319   6.819  0.1968 -0.4794 -1.5865
   77MOL   H10123053   0.894   4.159   6.839  0.2066  0.6689  1.1182
   77MOL   H10223054   0.910   3.936   6.486  1.3621  1.3172  0.3306
   77MOL   H10323055   0.744   3.964   6.495  1.0292 -1.2863 -0.8125
   77MOL   H10423056   0.864   4.097   6.314  2.0974  3.8533 -1.2176
   77MOL   H10523057   0.953   4.183   6.440  1.6151 -2.6745 -0.3065
   77MOL   H10623058   0.772   4.198   6.419 -1.5759 -1.3455 -1.9470
   77MOL   C10723059   0.762   4.047   6.945  0.3563 -0.3613  0.3485
   77MOL   C10823060   0.797   4.075   7.090 -0.4932  0.4089  0.0568
   77MOL   C10923061   0.936   4.033   7.123 -0.0230  0.4535 -0.1267
   77MOL   O11023062   0.964   3.930   7.184 -0.2363 -0.1037  0.7395
   77MOL   O11123063   1.028   4.113   7.069 -0.3289 -0.3411  0.4352
   77MOL   C11223064   1.166   4.081   7.083 -0.0506  0.6830 -0.7661
   77MOL   C11323065   1.248   4.177   7.002 -0.5083  0.1171  0.0826
   77MOL   H11423066   0.667   4.001   6.920  1.7129 -2.0219 -2.0333
   77MOL   H11523067   0.834   3.971   6.913  0.5441  0.2533 -0.7000
   77MOL   H11623068   0.801   4.183   7.105  0.4181  0.3690  0.1289
   77MOL   H11723069   1.202   4.069   7.186  1.5393  3.4809 -0.9627
   77MOL   H11823070   1.182   3.984   7.036 -0.0078  1.1727 -1.7520
   77MOL   H11923071   1.252   4.281   7.034  1.1296  0.6308 -1.6313
   77MOL   H12023072   1.202   4.180   6.903 -0.7503 -1.7139  0.1188
   77MOL   H12123073   1.351   4.142   6.990 -0.7221 -0.5822  0.2778
   77MOL   C12223074   0.690   4.023   7.184  0.5512  0.1196 -0.3394
   77MOL   C12323075   0.563   4.109   7.186 -0.9393  0.0606  0.9544
   77MOL   C12423076   0.590   4.244   7.253  0.1329  0.2821 -0.1112
   77MOL   O12523077   0.685   4.272   7.328 -0.1244  0.1724  0.1397
   77MOL   O12623078   0.505   4.334   7.213  0.1677 -0.2374  0.0668
   77MOL   C12723079   0.507   4.473   7.252 -0.1435  0.5562  1.0187
   77MOL   C12823080   0.355   4.525   7.281 -0.0066  0.3535  0.6534
   77MOL   H12923081   0.661   3.925   7.148  2.2161 -0.1979 -0.8825
   77MOL   H13023082   0.725   4.012   7.287 -2.2891  1.7688  0.8514
   77MOL   H13123083   0.534   4.134   7.083  2.2843 -0.4527 -0.1258
   77MOL   H13223084   0.576   4.496   7.333  0.6357  3.7014 -0.4501
   77MOL   H13323085   0.538   4.527   7.163 -1.1538 -0.7013 -0.1289
   77MOL   H13423086   0.306   4.512   7.184  0.3150  0.0316  0.5302
   77MOL   H13523087   0.336   4.626   7.316  0.1489  0.5599  0.1469
   77MOL   H13623088   0.307   4.455   7.349 -1.6833  0.7212 -0.1365
   77MOL   C13723089   0.441   4.036   7.253  0.1244  0.1222  0.1063
   77MOL   C13823090   0.379   3.921   7.172 -0.1232  0.2139 -0.1915
   77MOL   C13923091   0.357   3.934   7.018  0.2096  0.5541 -0.5386
   77MOL   O14023092   0.412   3.856   6.939 -0.5147  0.2575 -0.2959
   77MOL   O14123093   0.293   4.046   6.986  0.0565 -0.0705 -0.2456
   77MOL   C14223094   0.307   4.093   6.855  0.6525 -0.2282  0.0601
   77MOL   C14323095   0.326   4.241   6.865 -0.2038 -0.0248  0.1642
   77MOL   H14423096   0.471   4.003   7.352 -1.0323  2.2255  1.1829
   77MOL   H14523097   0.374   4.122   7.264  1.4810  0.9957  1.7926
   77MOL   H14623098   0.454   3.843   7.175  1.7566  2.0124  1.5019
   77MOL   H14723099   0.391   4.050   6.799  1.4863 -1.1822  1.9898
   77MOL   H14823100   0.228   4.062   6.786 -0.5008  2.4165  0.1301
   77MOL   H14923101   0.301   4.297   6.775 -0.9813  0.6262  0.7747
   77MOL   H15023102   0.422   4.277   6.902 -0.4745  0.9362 -0.0619
   77MOL   H15123103   0.266   4.286   6.944  0.5455 -0.3469  0.9259
   77MOL   C15223104   0.254   3.871   7.239 -0.3963  0.5824  0.2014
   77MOL   C15323105   0.186   3.744   7.190  0.4436  0.7285  0.8529
   77MOL   C15423106   0.076   3.690   7.277  0.0795  0.3213  0.1345
   77MOL   O15523107   7.868   3.680   7.247 -0.0808 -0.0901  0.0571
   77MOL   O15623108   0.124   3.643   7.395 -0.2153  0.0428 -0.0316
   77MOL   C15723109   0.053   3.570   7.487 -0.3324 -0.3007 -0.6647
   77MOL   C15823110   0.127   3.584   7.616  0.5798  0.2079 -0.3438
   77MOL   H15923111   0.263   3.867   7.347 -0.2328 -0.2933  0.1611
   77MOL   H16023112   0.172   3.940   7.218 -1.0901 -0.1651  0.3773
   77MOL   H16123113   0.137   3.761   7.095 -0.6121 -2.1770  0.8588
   77MOL   H16223114   7.857   3.599   7.502  0.2980  2.2494 -1.0964
   77MOL   H16323115   0.055   3.470   7.443 -0.3060 -1.1978  1.3339
   77MOL   H16423116   0.073   3.535   7.697  1.6201 -0.9432 -0.3307
   77MOL   H16523117   0.146   3.688   7.642  0.2581  0.1368  0.1932
   77MOL   H16623118   0.224   3.535   7.619  0.4845  0.0854  1.1160
   77MOL   C16723119   0.287   3.635   7.156 -1.0455  0.4852 -0.2282
   77MOL   C16823120   0.212   3.508   7.097  0.2903 -0.5329 -0.2771
   77MOL   C16923121   0.221   3.390   7.200  0.1347 -0.3083 -0.3225
   77MOL   O17023122   0.131   3.307   7.219 -0.0991 -0.1220 -0.4193
   77MOL   O17123123   0.347   3.362   7.242 -0.0060  0.3479 -0.3634
   77MOL   C17223124   0.360   3.250   7.330 -0.4163  0.5170 -0.0659
   77MOL   C17323125   0.496   3.193   7.295 -0.2127  0.6590 -0.1736
   77MOL   H17423126   0.349   3.675   7.076 -1.0152 -0.1106 -0.5035
   77MOL   H17523127   0.361   3.609   7.231  0.1085  2.2253 -0.7208
   77MOL   H17623128   0.105   3.524   7.083  0.0300 -1.2270  0.8439
   77MOL   H17723129   0.351   3.285   7.433 -1.1649 -0.0479  0.0628
   77MOL   H17823130   0.286   3.171   7.320  0.6981 -0.9919  2.9204
   77MOL   H17923131   0.504   3.168   7.189  0.1922  0.2368 -0.0419
   77MOL   H18023132   0.505   3.098   7.347 -0.6768 -0.2146 -1.6689
   77MOL   H18123133   0.570   3.268   7.323 -0.6603  0.2522  2.2222
   77MOL   C18223134   0.277   3.459   6.966  0.3623  0.1138 -0.4423
   77MOL   C18323135   0.263   3.562   6.842 -0.1161  0.1837 -0.0904
   77MOL   C18423136   0.126   3.612   6.825 -1.0774 -0.0627  0.1703
   77MOL   O18523137   0.110   3.734   6.836  0.0073 -0.3814 -0.5842
   77MOL   O18623138   0.038   3.515   6.799 -0.0908  0.8338  0.0778
   77MOL   C18723139   7.813   3.550   6.782  0.0719 -0.3866 -0.7445
   77MOL   C18823140   7.771   3.590   6.640  0.0271 -0.8253 -0.7926
   77MOL   H18923141   0.381   3.442   6.994  0.2919 -0.7050 -0.6618
   77MOL   H19023142   0.238   3.361   6.938 -1.1610  0.1736  1.3167
   77MOL   H19123143   0.325   3.648   6.865  0.1942 -0.4606  1.5483
   77MOL   H19223144   7.752   3.470   6.822 -1.2943  1.6424  1.3241
   77MOL   H19323145   7.788   3.638   6.841 -2.0817 -1.9384  0.7411
   77MOL   H19423146   7.827   3.678   6.609 -1.1446  0.1179 -0.2821
   77MOL   H19523147   7.665   3.614   6.633 -0.4313 -2.4309  0.4319
   77MOL   H19623148   7.783   3.507   6.570  2.1526 -0.2435 -1.1373
   77MOL   C19723149   0.321   3.507   6.711 -0.3341  0.2959  0.0417
   77MOL   C19823150   0.339   3.600   6.590  0.4853  0.8117  0.3059
   77MOL   C19923151   0.426   3.725   6.620  0.1110 -0.5929  0.1212
   77MOL   O20023152   0.398   3.840   6.607 -0.3472 -0.3074  0.0071
   77MOL   O20123153   0.557   3.679   6.656 -0.4471 -0.1814  0.0090
   77MOL   C20223154   0.648   3.775   6.705  0.3398 -0.0766  0.0919
   77MOL   C20323155   0.794   3.738   6.714 -0.0676 -0.4512  0.8245
   77MOL   H20423156   0.416   3.458   6.729  0.1018  0.1454 -2.4166
   77MOL   H20523157   0.255   3.426   6.679 -1.3005  0.8979  0.4839
   77MOL   H20623158   0.392   3.538   6.519  1.0442  0.1287  1.3130
   77MOL   H20723159   0.645   3.864   6.641 -1.5606 -0.2460 -0.0948
   77MOL   H20823160   0.614   3.805   6.804  1.5286  0.2933  0.4032
   77MOL   H20923161   0.802   3.641   6.765  0.3155  0.1953  2.0154
   77MOL   H21023162   0.852   3.807   6.775  1.0152  0.8718 -1.6543
   77MOL   H21123163   0.838   3.735   6.615  0.9703  0.6822  1.2431
   77MOL   C21223164   0.203   3.640   6.526 -0.5407 -0.1564  0.0214
   77MOL   C21323165   0.207   3.680   6.377  0.1101 -0.1554 -0.0526
   77MOL   C21423166   0.081   3.766   6.344 -0.5827  0.4843  0.6192
   77MOL   O21523167   0.101   3.882   6.307  0.4530  0.1166 -0.4341
   77MOL   O21623168   7.879   3.711   6.351  0.2510  0.3145 -0.2650
   77MOL   C21723169   7.758   3.783   6.342 -0.0487 -0.4903 -0.3370
   77MOL   C21823170   7.644   3.683   6.305 -0.0775  0.2080 -0.1261
   77MOL   H21923171   0.132   3.559   6.545  1.9870 -2.5708 -0.5006
   77MOL   H22023172   0.153   3.720   6.580  1.5170  0.3034  1.2905
   77MOL   H22123173   0.291   3.749   6.372 -1.4134  1.5753 -2.5099
   77MOL   H22223174   7.731   3.837   6.433  0.4306  1.5427 -1.3543
   77MOL   H22323175   7.764   3.857   6.262 -0.4396  0.4637  0.4921
   77MOL   H22423176   7.644   3.612   6.389 -4.6539  1.7416  1.3367
   77MOL   H22523177   7.659   3.625   6.214  3.4296  1.1201 -0.1812
   77MOL   H22623178   7.546   3.730   6.299 -1.2489 -2.3233 -1.5704
   77MOL   C22723179   0.238   3.571   6.265 -0.0052  0.5729 -0.8123
   77MOL   C22823180   0.142   3.451   6.255 -0.0634  0.1234  0.1718
   77MOL   C22923181   0.168   3.345   6.375  0.0175 -0.1733  0.8217
   77MOL   O23023182   0.084   3.322   6.461  0.3509 -0.4375  0.0837
   77MOL   O23123183   0.294   3.286   6.363 -0.4185  0.1387 -0.2714
   77MOL   C23223184   0.347   3.198   6.466 -0.5310 -0.0065  0.0508
   77MOL   C23323185   0.365   3.049   6.422 -0.2200  0.4924  0.3181
   77MOL   H23423186   0.240   3.621   6.168  0.2394  1.0048 -0.5826
   77MOL   H23523187   0.341   3.536   6.277 -0.5038 -0.6179  0.1257
   77MOL   H23623188   0.040   3.484   6.271 -0.2352 -0.4739  0.3397
   77MOL   H23723189   0.445   3.239   6.487 -0.7454  3.3369 -4.6722
   77MOL   H23823190   0.297   3.210   6.562 -0.1022 -1.2731  0.4411
   77MOL   H23923191   0.458   3.047   6.365  0.7500 -0.3292  1.8684
   77MOL   H24023192   0.283   3.001   6.370  1.4663 -0.8328 -1.1945
   77MOL   H24123193   0.388   2.990   6.511 -0.4387 -0.5493 -0.2996
   77MOL   C24223194   0.165   3.377   6.115 -0.2606  0.0454  0.6435
   77MOL   C24323195   0.073   3.264   6.085 -0.2467 -0.9001  0.1074
   77MOL   C24423196   0.146   3.156   6.000  0.4715 -0.0910  0.7587
   77MOL   O24523197   0.154   3.171   5.879  0.0591 -0.7296 -1.0455
   77MOL   O24623198   0.201   3.054   6.072  0.2198  0.1266  0.1048
   77MOL   C24723199   0.296   2.966   6.015 -1.0820 -0.2226  0.5601
   77MOL   C24823200   0.433   3.028   6.007  0.0672 -0.1021  0.3785
   77MOL   H24923201   0.159   3.448   6.032  0.6128  0.8195  1.2341
   77MOL   H25023202   0.270   3.348   6.119  0.0844  0.8180 -2.0592
   77MOL   H25123203   0.035   3.218   6.176 -1.4699 -0.5727 -0.2216
   77MOL   H25223204   0.310   2.883   6.084 -0.2643 -0.8415 -0.3377
   77MOL   H25323205   0.268   2.924   5.919  2.5899 -0.7453 -0.3667
   77MOL   H25423206   0.514   2.962   5.972  1.0303  0.5871  1.2762
   77MOL   H25523207   0.463   3.050   6.109  2.5734 -0.6793 -0.1710
   77MOL   H25623208   0.446   3.111   5.938 -0.9229 -0.5569 -0.3644
   77MOL   C25723209   7.847   3.321   6.012  0.0456  0.4441 -0.5248
   77MOL   C25823210   7.753   3.217   5.958  0.0214  0.3009 -0.2748
   77MOL   C25923211   7.661   3.282   5.849  0.1008  0.3714 -0.1579
   77MOL   O26023212   7.707   3.334   5.749 -0.7299  0.2285  0.4669
   77MOL   O26123213   7.524   3.292   5.877  0.0136 -0.1820 -0.6547
   77MOL   C26223214   7.433   3.361   5.792 -0.0609 -0.3780  0.2088
   77MOL   C26323215   7.297   3.343   5.845  0.0252 -0.2613 -0.2569
   77MOL   H26423216   7.805   3.398   6.076  0.7350 -0.7091  1.3922
   77MOL   H26523217   7.878   3.373   5.921  0.6910 -2.2466 -1.8930
   77MOL   H26623218   7.795   3.126   5.915 -1.1109  0.2015 -1.1863
   77MOL   H26723219   7.465   3.465   5.786 -1.0295 -0.2030 -2.8295
   77MOL   H26823220   7.448   3.329   5.689  0.6529  1.4235 -0.2635
   77MOL   H26923221   7.236   3.400   5.775 -0.0102 -2.1235 -1.8020
   77MOL   H27023222   7.279   3.391   5.941 -0.5089  0.8960 -0.9197
   77MOL   H27123223   7.273   3.237   5.852 -1.1598  0.0656  0.6646
   77MOL   C27223224   7.672   3.151   6.075  0.1475  0.5149 -0.1277
   77MOL   C27323225   7.580   3.241   6.167  0.3396  0.0412  0.2082
   77MOL   C27423226   7.653   3.260   6.300  0.1936  0.0523 -0.0730
   77MOL   O27523227   7.726   3.353   6.325  0.1508  0.2389  0.4700
   77MOL   O27623228   7.634   3.145   6.384 -0.6420  0.1108  0.2275
   77MOL   C27723229   7.716   3.110   6.489 -0.8107  0.1305 -0.4078
   77MOL   C27823230   7.767   2.969   6.458  0.2470 -0.1875  0.7471
   77MOL   H27923231   7.601   3.083   6.027  2.4647 -1.8887 -0.2673
   77MOL   H28023232   7.737   3.076   6.121 -0.6925 -0.4370 -0.4756
   77MOL   H28123233   7.579   3.342   6.125 -0.5359  0.0757  0.3046
   77MOL   H28223234   7.794   3.185   6.504  2.2100 -2.6552 -1.6810
   77MOL   H28323235   7.653   3.118   6.578 -2.0977 -4.3449 -0.8241
   77MOL   H28423236   7.680   2.910   6.431  0.4046 -0.2828  0.4471
   77MOL   H28523237   7.819   2.924   6.543  0.8237  0.9004  0.9818
   77MOL   H28623238   7.834   2.962   6.372  0.4062 -1.0130  0.9275
   77MOL   C28723239   7.436   3.187   6.174 -0.7330  0.3396 -0.0774
   77MOL   C28823240   7.339   3.271   6.256 -0.6589 -0.2944  0.3863
   77MOL   C28923241   7.195   3.243   6.227 -0.0566  0.4275  0.3771
   77MOL   O29023242   7.134   3.149   6.271  0.4924 -0.5348 -0.5572
   77MOL   O29123243   7.139   3.341   6.158  0.1232  0.5205 -0.0643
   77MOL   C29223244   6.998   3.340   6.127  0.2690  0.3794  0.4316
   77MOL   C29323245   6.967   3.267   5.994  0.6886 -0.2646  0.4174
   77MOL   H29423246   7.400   3.187   6.072  0.3902 -0.6888 -0.4878
   77MOL   H29523247   7.427   3.085   6.210 -1.4527  1.0347  1.8059
   77MOL   H29623248   7.355   3.250   6.362 -0.8094 -2.8465 -0.0738
   77MOL   H29723249   6.933   3.302   6.206 -1.7435  2.1109 -0.3730
   77MOL   H29823250   6.967   3.443   6.111 -0.6434  0.1615  0.8120
   77MOL   H29923251   6.966   3.161   6.017 -0.5346 -0.4477 -0.4284
   77MOL   H30023252   7.045   3.294   5.923  1.6530  0.6482  1.7909
   77MOL   H30123253   6.871   3.300   5.955  1.1542 -0.1115 -0.6372
   77MOL   H30223254   7.359   3.377   6.244 -0.3386 -0.5215 -1.1832
   78MOL     C123255   5.352   0.605   4.838  0.0203  0.7548 -0.1486
   78MOL     C223256   5.480   0.610   4.750  0.5790 -0.0558  0.1628
   78MOL     C323257   5.534   0.471   4.739  0.0123  0.7432  0.1199
   78MOL     O423258   5.653   0.445   4.734 -0.3647  0.9754 -0.1093
   78MOL     O523259   5.446   0.374   4.732 -0.2187  0.9635 -0.0559
   78MOL     C623260   5.496   0.241   4.727 -0.7847  0.0256 -0.2008
   78MOL     C723261   5.395   0.152   4.668  0.2116 -0.0360 -0.7641
   78MOL     H823262   5.267   0.548   4.800  0.2398 -0.0910  0.6136
   78MOL     H923263   5.309   0.703   4.862 -1.1201 -0.1673  1.6266
   78MOL    H1023264   5.433   0.640   4.656  1.4643  1.3254  0.1407
   78MOL    H1123265   5.592   0.238   4.674 -0.7503 -2.0574 -0.0579
   78MOL    H1223266   5.524   0.214   4.829 -1.2441 -0.6117 -0.2384
   78MOL    H1323267   5.374   0.194   4.571  1.4618 -0.8102 -1.3899
   78MOL    H1423268   5.309   0.142   4.734  1.3421 -1.0763  0.6049
   78MOL    H1523269   5.431   0.050   4.648 -0.4403 -0.4289  0.0330
   78MOL    H1623270   5.384   0.562   4.933  0.4057  1.1219 -0.1102
   78MOL    C1723271   5.576   0.723   4.784  0.1813  0.3923 -0.2353
   78MOL    C1823272   5.666   0.767   4.667  0.9254 -0.6230 -0.1322
   78MOL    C1923273   5.815   0.799   4.710  1.0510 -0.3454 -0.1285
   78MOL    O2023274   5.909   0.732   4.665 -0.2163  0.5812 -0.2294
   78MOL    O2123275   5.819   0.912   4.792  0.2854  0.0402  0.3479
   78MOL    C2223276   5.941   0.956   4.839  0.7033 -0.9580  0.5097
   78MOL    C2323277   5.944   1.110   4.838  0.1444 -0.8582 -0.2942
   78MOL    H2423278   5.530   0.811   4.830  1.7223  1.1757 -0.1718
   78MOL    H2523279   5.638   0.685   4.865 -0.6988  0.5072  0.5084
   78MOL    H2623280   5.689   0.679   4.606  3.1300 -1.3097  1.6274
   78MOL    H2723281   5.959   0.900   4.931  0.8248 -0.0318  1.0611
   78MOL    H2823282   6.022   0.924   4.774 -0.6412 -1.3753 -0.9788
   78MOL    H2923283   5.865   1.153   4.899  0.4318  1.5739 -1.6112
   78MOL    H3023284   5.921   1.148   4.739  0.8473  1.3454  0.3585
   78MOL    H3123285   6.043   1.141   4.870 -0.2760 -1.4775  1.6889
   78MOL    C3223286   5.618   0.875   4.565  0.2281  0.1377  0.3478
   78MOL    C3323287   5.507   0.829   4.471  0.1830 -0.0553 -0.6735
   78MOL    C3423288   5.556   0.728   4.371  0.0904 -0.1018 -0.4522
   78MOL    O3523289   5.502   0.616   4.381  0.1240  0.0617  0.3800
   78MOL    O3623290   5.644   0.771   4.283  0.0882  0.0673  0.0045
   78MOL    C3723291   5.683   0.682   4.180  0.2499  0.6636 -0.1612
   78MOL    C3823292   5.698   0.760   4.052  0.2832  0.3252 -0.1304
   78MOL    H3923293   5.568   0.951   4.626  0.1933  0.3247  0.0842
   78MOL    H4023294   5.704   0.920   4.518  0.3338 -0.0899  0.3230
   78MOL    H4123295   5.430   0.786   4.535  0.5144 -0.3791 -0.4964
   78MOL    H4223296   5.774   0.633   4.214 -1.0189 -1.5632  0.1198
   78MOL    H4323297   5.611   0.603   4.158  0.4468  0.6109 -0.6278
   78MOL    H4423298   5.760   0.849   4.057  0.8419 -0.1596  1.8021
   78MOL    H4523299   5.597   0.794   4.029  0.4917 -0.4900 -2.4050
   78MOL    H4623300   5.730   0.687   3.977 -1.8137 -0.7967  0.0382
   78MOL    C4723301   5.447   0.952   4.402 -0.7542 -0.1757 -0.7182
   78MOL    C4823302   5.323   0.924   4.314  0.1372  0.5927  0.3403
   78MOL    C4923303   5.339   1.000   4.183  0.1733 -0.3386 -0.6950
   78MOL    O5023304   5.372   0.942   4.082 -0.0374  0.2156 -0.3986
   78MOL    O5123305   5.320   1.136   4.190  0.3218  0.4833  0.0675
   78MOL    C5223306   5.347   1.215   4.074 -0.2872 -0.2849 -0.3124
   78MOL    C5323307   5.476   1.289   4.088 -0.4741  0.6776  0.0657
   78MOL    H5423308   5.423   1.024   4.480  1.2334  0.9453 -1.1119
   78MOL    H5523309   5.522   1.002   4.341 -0.5758  1.0410  0.4895
   78MOL    H5623310   5.323   0.823   4.274  1.4529  1.5829 -2.3157
   78MOL    H5723311   5.341   1.150   3.987 -1.7051  1.3640 -1.4770
   78MOL    H5823312   5.266   1.287   4.063 -1.7581 -1.9578 -0.6274
   78MOL    H5923313   5.482   1.340   4.184 -0.0091 -1.1044  1.0046
   78MOL    H6023314   5.485   1.362   4.008 -1.3402  1.6373  0.8451
   78MOL    H6123315   5.557   1.216   4.088  0.3605  1.5855  0.4620
   78MOL    C6223316   5.191   0.956   4.378  0.3047 -0.2842 -0.0384
   78MOL    C6323317   5.140   0.860   4.487  0.1834  0.0436  0.1328
   78MOL    C6423318   5.119   0.719   4.436 -0.0086  0.8371  0.1080
   78MOL    O6523319   5.063   0.700   4.329  0.3929  0.2992  0.1996
   78MOL    O6623320   5.196   0.635   4.505  0.3740 -0.1052  0.0188
   78MOL    C6723321   5.216   0.506   4.455 -0.1288  0.1739  0.0081
   78MOL    C6823322   5.128   0.404   4.529  0.3512 -0.2445 -0.8543
   78MOL    H6923323   5.203   1.058   4.416  0.4855  0.2629 -1.5084
   78MOL    H7023324   5.123   0.970   4.294  1.4371  2.5543 -0.5482
   78MOL    H7123325   5.216   0.863   4.565  0.1340  0.1592  0.1763
   78MOL    H7223326   5.218   0.497   4.346 -1.8825  3.9851 -0.4325
   78MOL    H7323327   5.319   0.478   4.478  0.0749 -0.7366 -1.8701
   78MOL    H7423328   5.129   0.299   4.498 -0.2255 -0.5678  0.2112
   78MOL    H7523329   5.026   0.435   4.510 -0.0687 -1.8351 -1.3142
   78MOL    H7623330   5.148   0.396   4.636 -0.0123 -0.9333 -0.8387
   78MOL    C7723331   5.010   0.911   4.560  0.1549  0.1033 -0.2002
   78MOL    C7823332   4.982   0.865   4.703 -0.1490  0.2498 -0.1424
   78MOL    C7923333   5.083   0.934   4.800 -0.5617  0.3236  0.2119
   78MOL    O8023334   5.148   1.040   4.770 -0.4080  0.6031  0.2798
   78MOL    O8123335   5.075   0.878   4.916  0.5217  0.8921  0.0318
   78MOL    C8223336   5.137   0.938   5.029  0.3026 -0.4697  0.0570
   78MOL    C8323337   5.114   0.845   5.159 -0.0226 -0.6798 -0.5408
   78MOL    H8423338   5.000   1.019   4.562 -1.3999 -0.0158 -0.5175
   78MOL    H8523339   4.924   0.880   4.500  1.4441 -1.5019 -1.2691
   78MOL    H8623340   4.886   0.914   4.720  0.4133  1.0233  0.8677
   78MOL    H8723341   5.241   0.962   5.009 -0.6474  2.3465 -1.8603
   78MOL    H8823342   5.089   1.033   5.053 -1.1586 -1.1954  0.0926
   78MOL    H8923343   5.010   0.820   5.177 -0.1052  1.3055  1.9953
   78MOL    H9023344   5.145   0.898   5.249 -2.0364  0.5563 -0.5640
   78MOL    H9123345   5.158   0.745   5.155  0.9733 -0.2847  0.2405
   78MOL    C9223346   4.958   0.712   4.724 -0.4473 -0.4546 -0.3522
   78MOL    C9323347   4.875   0.681   4.850  0.1944 -0.4051 -0.6719
   78MOL    C9423348   4.876   0.536   4.887  0.0407  0.7601 -0.0090
   78MOL    O9523349   4.785   0.461   4.861 -0.1237  0.0501 -0.1669
   78MOL    O9623350   5.002   0.500   4.933 -0.7259  0.2324  0.1901
   78MOL    C9723351   5.026   0.369   4.977 -0.1453 -0.1972 -0.3964
   78MOL    C9823352   5.134   0.374   5.089  0.5680 -0.1269 -0.2211
   78MOL    H9923353   4.924   0.675   4.627 -1.3037  1.2632 -0.7216
   78MOL   H10023354   5.050   0.652   4.727  0.1363  0.1840 -3.4299
   78MOL   H10123355   4.920   0.718   4.941 -2.6700 -1.0872  1.0797
   78MOL   H10223356   4.936   0.317   5.009 -0.0779  0.1860  0.4060
   78MOL   H10323357   5.070   0.318   4.892  0.8211 -1.7521  1.0268
   78MOL   H10423358   5.217   0.429   5.046  0.0984  1.5274  0.9734
   78MOL   H10523359   5.164   0.272   5.113 -1.1032 -0.0734  2.2932
   78MOL   H10623360   5.111   0.432   5.178 -0.3214 -1.7521  0.6297
   78MOL   C10723361   4.727   0.736   4.845 -0.0680  0.0060  0.2339
   78MOL   C10823362   4.658   0.790   4.979 -0.0429 -0.9898 -0.0509
   78MOL   C10923363   4.737   0.906   5.039  0.0245  0.1005 -0.1881
   78MOL   O11023364   4.769   0.997   4.964  0.3323  0.0776  0.5367
   78MOL   O11123365   4.772   0.912   5.171  0.2164 -0.2938 -0.0772
   78MOL   C11223366   4.827   1.031   5.232  0.6164 -0.7747 -0.0446
   78MOL   C11323367   4.737   1.081   5.341 -0.3202 -0.2182  0.0878
   78MOL   H11423368   4.708   0.813   4.770 -0.5300 -0.4104 -0.0792
   78MOL   H11523369   4.658   0.661   4.806  0.9871 -0.5593 -0.5618
   78MOL   H11623370   4.566   0.843   4.955 -0.0377 -0.6292  0.7182
   78MOL   H11723371   4.925   1.009   5.275  0.8180  1.5133  0.7461
   78MOL   H11823372   4.849   1.109   5.159  0.0706  0.2946  0.9125
   78MOL   H11923373   4.752   1.186   5.370  0.8940 -0.2272 -0.4946
   78MOL   H12023374   4.747   1.016   5.428  0.3398 -0.9404 -0.5273
   78MOL   H12123375   4.633   1.075   5.309 -1.1092  1.3763  2.1801
   78MOL   C12223376   4.630   0.679   5.075 -0.5407  0.5569 -0.4357
   78MOL   C12323377   4.549   0.704   5.198  0.4031  0.5334 -0.3181
   78MOL   C12423378   4.556   0.580   5.290 -0.8373  0.0938 -0.2710
   78MOL   O12523379   4.467   0.501   5.302  0.1880 -0.1821 -0.1450
   78MOL   O12623380   4.673   0.564   5.342 -0.3896  0.6046  0.0593
   78MOL   C12723381   4.724   0.436   5.377  0.0025  0.3463  0.5497
   78MOL   C12823382   4.875   0.455   5.383  0.0800  0.0724  0.1901
   78MOL   H12923383   4.573   0.596   5.034 -0.9388  0.1963  0.8163
   78MOL   H13023384   4.723   0.636   5.110  0.7831  2.0559 -2.0181
   78MOL   H13123385   4.584   0.795   5.246  2.0949 -0.8042  1.0575
   78MOL   H13223386   4.684   0.410   5.475  1.9667  2.0167  1.8394
   78MOL   H13323387   4.683   0.361   5.309 -2.6131  0.7639  1.5864
   78MOL   H13423388   4.928   0.363   5.409 -0.9550 -0.5141  0.2627
   78MOL   H13523389   4.888   0.540   5.451  0.3711  0.3620 -0.2270
   78MOL   H13623390   4.918   0.490   5.289 -1.5776  1.6145 -0.0241
   78MOL   C13723391   4.400   0.744   5.166 -0.7501  0.8888  0.6301
   78MOL   C13823392   4.318   0.789   5.289 -0.1611 -0.5084 -0.1100
   78MOL   C13923393   4.164   0.777   5.248 -0.0431  0.0092 -0.1741
   78MOL   O14023394   4.110   0.741   5.142 -0.4561  0.4613  0.5769
   78MOL   O14123395   4.094   0.809   5.358  0.0677  0.0467 -0.1817
   78MOL   C14223396   3.955   0.841   5.339 -0.9930  0.2444 -0.0977
   78MOL   C14323397   3.938   0.995   5.304  0.3286  0.4293  0.2907
   78MOL   H14423398   4.378   0.808   5.081 -2.8879 -0.9797 -0.2972
   78MOL   H14523399   4.358   0.655   5.118  2.3733 -0.2968 -0.0232
   78MOL   H14623400   4.326   0.708   5.362  0.5593 -1.6069 -1.3826
   78MOL   H14723401   3.894   0.777   5.275  0.9963 -1.4390 -0.3315
   78MOL   H14823402   3.906   0.836   5.437  0.1895  1.1278  0.5465
   78MOL   H14923403   3.987   1.018   5.209  2.8792 -0.1307  1.4462
   78MOL   H15023404   3.978   1.052   5.387  0.3487 -2.1199  2.0754
   78MOL   H15123405   3.835   1.018   5.275  0.0631 -0.3859  0.5759
   78MOL   C15223406   4.356   0.927   5.350 -0.1855  0.7694 -0.5378
   78MOL   C15323407   4.365   0.931   5.510 -0.5465 -0.4348  0.1816
   78MOL   C15423408   4.320   1.069   5.570  0.8077  0.2608 -0.2047
   78MOL   O15523409   4.213   1.079   5.637 -0.0629  0.1735  0.1266
   78MOL   O15623410   4.403   1.170   5.546  0.2314 -0.0611 -0.3157
   78MOL   C15723411   4.369   1.299   5.595 -0.2533  0.1995  0.4110
   78MOL   C15823412   4.309   1.369   5.471 -0.1514  0.5147 -0.3012
   78MOL   H15923413   4.456   0.943   5.311  0.5218 -0.8296  0.5956
   78MOL   H16023414   4.290   1.010   5.325  1.9352  2.8321  0.4957
   78MOL   H16123415   4.292   0.860   5.550 -1.0628  0.0819  0.1628
   78MOL   H16223416   4.293   1.303   5.673 -0.4964 -1.8838  0.3183
   78MOL   H16323417   4.460   1.347   5.632  1.5280 -0.4838 -2.9286
   78MOL   H16423418   4.378   1.367   5.387 -0.9229  1.1338 -0.9609
   78MOL   H16523419   4.297   1.477   5.487  0.1621  0.4821  0.1623
   78MOL   H16623420   4.214   1.325   5.440 -0.2291  0.0707  0.5702
   78MOL   C16723421   4.508   0.888   5.558 -1.0937  0.0074  0.5575
   78MOL   C16823422   4.520   0.794   5.684  0.2026  0.2899  0.0722
   78MOL   C16923423   4.653   0.808   5.745 -0.2739  0.0448 -0.4420
   78MOL   O17023424   4.672   0.827   5.865  0.1890  0.1113 -0.0489
   78MOL   O17123425   4.753   0.795   5.656 -0.2311  0.1810  0.4459
   78MOL   C17223426   4.891   0.818   5.689  0.4470  0.2266 -0.4506
   78MOL   C17323427   4.966   0.924   5.603 -0.0508  0.4156 -0.2388
   78MOL   H17423428   4.557   0.833   5.479 -1.9708  0.4721 -0.3232
   78MOL   H17523429   4.575   0.973   5.571 -2.0740  0.8466  0.3120
   78MOL   H17623430   4.455   0.831   5.764  0.6289 -1.9401  1.5016
   78MOL   H17723431   4.914   0.852   5.790  1.8677  1.1191 -1.0667
   78MOL   H17823432   4.931   0.717   5.680 -1.9482 -0.8812  0.6838
   78MOL   H17923433   5.065   0.955   5.636 -1.2207  2.3363  1.6185
   78MOL   H18023434   4.912   1.019   5.595  0.4856  0.7200 -0.2368
   78MOL   H18123435   4.968   0.877   5.505  0.0838  1.1444 -0.5917
   78MOL   C18223436   4.483   0.647   5.653 -0.4248 -0.3748 -0.1416
   78MOL   C18323437   4.505   0.537   5.753 -0.2429 -0.4110 -0.1223
   78MOL   C18423438   4.496   0.395   5.692  0.2593  0.0151  0.3701
   78MOL   O18523439   4.593   0.324   5.685  0.3566  0.5210  0.2110
   78MOL   O18623440   4.366   0.355   5.662 -0.2411  0.5277  0.5217
   78MOL   C18723441   4.323   0.240   5.593  0.0529 -0.1033 -0.0797
   78MOL   C18823442   4.170   0.234   5.616  0.0564  0.3891 -0.7499
   78MOL   H18923443   4.380   0.641   5.617 -0.8998  1.2174  0.9007
   78MOL   H19023444   4.553   0.621   5.574  1.6399 -0.0327  1.5292
   78MOL   H19123445   4.605   0.556   5.792 -0.9394  0.0634  1.5174
   78MOL   H19223446   4.341   0.241   5.485  1.8848  1.9710  0.2112
   78MOL   H19323447   4.376   0.159   5.643  0.5121  0.1477 -0.1579
   78MOL   H19423448   4.147   0.212   5.721  0.1042  1.5368 -0.4887
   78MOL   H19523449   4.121   0.164   5.549  1.9362  0.2371 -2.0092
   78MOL   H19623450   4.126   0.331   5.594  1.3144  0.7054 -1.9697
   78MOL   C19723451   4.421   0.560   5.878 -0.7516 -0.1601 -0.1354
   78MOL   C19823452   4.462   0.480   6.009 -0.1085 -0.7736 -0.0391
   78MOL   C19923453   4.588   0.540   6.078  0.0011  0.5688 -0.4491
   78MOL   O20023454   4.582   0.598   6.181  0.0083 -0.1095 -0.2260
   78MOL   O20123455   4.704   0.515   6.015 -0.2383  0.2521 -0.4368
   78MOL   C20223456   4.832   0.542   6.069 -0.2648  0.4557 -0.2805
   78MOL   C20323457   4.934   0.533   5.959 -0.1629 -0.5117  0.4396
   78MOL   H20423458   4.422   0.665   5.905 -0.0960 -0.1515 -0.1915
   78MOL   H20523459   4.317   0.545   5.848 -0.2722  2.2359 -3.1720
   78MOL   H20623460   4.379   0.505   6.075 -2.0863 -0.7644 -2.4721
   78MOL   H20723461   4.826   0.643   6.110  0.0925 -0.2204  1.4646
   78MOL   H20823462   4.854   0.467   6.145 -1.2814 -1.0582 -1.4479
   78MOL   H20923463   4.911   0.607   5.882 -0.7843 -0.3287  0.8014
   78MOL   H21023464   4.934   0.439   5.903  0.5658 -0.0248 -0.3921
   78MOL   H21123465   5.038   0.548   5.989 -0.6332 -1.0970  2.4555
   78MOL   C21223466   4.453   0.327   6.016  0.8479  0.0815  0.3755
   78MOL   C21323467   4.467   0.253   6.152  0.1663 -0.1297  0.0255
   78MOL   C21423468   4.499   0.102   6.118  0.2273 -0.3025  0.2622
   78MOL   O21523469   4.448   0.005   6.176 -0.1891 -0.7429  0.0655
   78MOL   O21623470   4.596   0.084   6.031  1.1787 -0.7191  0.2511
   78MOL   C21723471   4.643   7.859   6.000  0.1945 -0.3435  0.5850
   78MOL   C21823472   4.778   7.823   6.070  0.4069  0.0406  0.3978
   78MOL   H21923473   4.366   0.292   5.962 -1.7681  1.2889  3.6322
   78MOL   H22023474   4.527   0.286   5.948 -1.3034 -0.5589 -1.6316
   78MOL   H22123475   4.556   0.292   6.200 -0.7343  0.1201  1.5204
   78MOL   H22223476   4.574   7.777   6.021 -2.9397  2.6876  2.4846
   78MOL   H22323477   4.648   7.856   5.891 -0.0504 -1.9861  0.6057
   78MOL   H22423478   4.849   7.903   6.048  0.8004 -0.4172 -0.0200
   78MOL   H22523479   4.836   7.741   6.028  1.4287  0.8612  0.1719
   78MOL   H22623480   4.769   7.806   6.177  0.2126 -0.3400  0.3240
   78MOL   C22723481   4.332   0.264   6.229 -0.2163  0.1279  0.3630
   78MOL   C22823482   4.339   0.295   6.384 -0.2189 -0.4229 -0.8932
   78MOL   C22923483   4.350   0.168   6.462  0.0913 -0.1229  0.5732
   78MOL   O23023484   4.456   0.140   6.523  0.7202  0.0118 -0.0439
   78MOL   O23123485   4.239   0.099   6.461  0.5138 -0.5868  0.1087
   78MOL   C23223486   4.237   7.883   6.522 -0.0991  0.7209  0.0608
   78MOL   C23323487   4.269   7.770   6.426 -0.1369  0.3411  0.2671
   78MOL   H23423488   4.282   0.353   6.192  0.8895  0.9998  0.9340
   78MOL   H23523489   4.265   0.179   6.214  1.3613 -1.3098  1.2640
   78MOL   H23623490   4.434   0.347   6.391  0.3216 -1.3883 -1.0512
   78MOL   H23723491   4.298   7.886   6.612  1.7214 -1.1572 -1.0723
   78MOL   H23823492   4.137   7.872   6.564 -0.0866  1.6685  0.3497
   78MOL   H23923493   4.203   7.770   6.339  1.3084  2.4735 -0.8983
   78MOL   H24023494   4.270   7.673   6.475 -1.5854  0.1050 -0.1378
   78MOL   H24123495   4.371   7.781   6.388 -0.1025  0.6712  0.4560
   78MOL   C24223496   4.224   0.385   6.436  0.5325 -0.2590 -0.4965
   78MOL   C24323497   4.260   0.538   6.438 -0.5109  0.1228 -0.1031
   78MOL   C24423498   4.369   0.559   6.542 -0.0296 -0.1270  0.4882
   78MOL   O24523499   4.345   0.536   6.659 -0.0405  0.1970  0.0337
   78MOL   O24623500   4.476   0.622   6.498  0.3786 -0.2482 -0.3103
   78MOL   C24723501   4.588   0.649   6.584  0.0298 -0.2439 -0.4309
   78MOL   C24823502   4.702   0.571   6.540 -0.1173 -0.2060  0.4166
   78MOL   H24923503   4.141   0.383   6.365  0.2382  0.0053 -0.1656
   78MOL   H25023504   4.182   0.354   6.532  2.2013  0.6785  0.5702
   78MOL   H25123505   4.312   0.555   6.343  0.3908 -0.2987  0.3081
   78MOL   H25223506   4.597   0.758   6.580  1.3334 -0.3129  0.3526
   78MOL   H25323507   4.558   0.624   6.685  0.3094  1.4413  0.0753
   78MOL   H25423508   4.698   0.464   6.564  1.7147 -0.1822  0.8891
   78MOL   H25523509   4.795   0.602   6.586 -0.2647  0.0748  0.5247
   78MOL   H25623510   4.724   0.589   6.435 -1.8724  3.3955  0.5883
   78MOL   C25723511   4.142   0.640   6.447  0.1917  0.1075  0.4742
   78MOL   C25823512   4.168   0.775   6.372 -0.1437 -0.3320  0.1352
   78MOL   C25923513   4.175   0.768   6.216 -0.3012  0.4594  0.4605
   78MOL   O26023514   4.177   0.657   6.165  0.5902  0.3271  0.1302
   78MOL   O26123515   4.174   0.876   6.138 -0.0566 -0.8748 -0.2236
   78MOL   C26223516   4.188   0.873   5.997 -0.7790  0.3825  0.2121
   78MOL   C26323517   4.315   0.950   5.946  0.1291 -0.3275  0.1959
   78MOL   H26423518   4.055   0.597   6.397  0.2465  1.6468 -1.0292
   78MOL   H26523519   4.122   0.659   6.552  0.5486 -0.4498  0.6417
   78MOL   H26623520   4.073   0.826   6.385 -0.5852 -1.1710  0.2501
   78MOL   H26723521   4.195   0.774   5.951 -0.8929  0.0235  0.9723
   78MOL   H26823522   4.095   0.923   5.970 -1.1863  0.5566  1.9035
   78MOL   H26923523   4.316   1.055   5.976  1.5493 -0.7067  1.5091
   78MOL   H27023524   4.319   0.952   5.837  3.8263 -2.3061  0.2102
   78MOL   H27123525   4.408   0.901   5.975  0.8729  1.3242  0.6676
   78MOL   C27223526   4.273   0.868   6.424 -0.1218 -1.0448 -0.2526
   78MOL   C27323527   4.275   0.912   6.573 -0.3815  0.1675  0.5422
   78MOL   C27423528   4.147   0.983   6.616 -0.2459  0.0344 -0.3924
   78MOL   O27523529   4.075   0.939   6.703 -0.1426 -0.2792 -0.5660
   78MOL   O27623530   4.134   1.106   6.549 -0.1301  0.4700 -0.1010
   78MOL   C27723531   4.018   1.184   6.559  0.3912  0.3547  0.7690
   78MOL   C27823532   3.960   1.204   6.409  0.1441 -0.0024  0.3371
   78MOL   H27923533   4.371   0.829   6.397 -0.3185 -0.9062 -1.1751
   78MOL   H28023534   4.283   0.955   6.360  1.7797  0.5087  2.0607
   78MOL   H28123535   4.279   0.817   6.627 -0.7261 -0.0067  0.2668
   78MOL   H28223536   3.948   1.128   6.621  0.5147  2.2232  2.6309
   78MOL   H28323537   4.043   1.279   6.605  0.2207  0.6720  0.2038
   78MOL   H28423538   3.950   1.120   6.340 -1.5245  0.3801  0.0793
   78MOL   H28523539   4.028   1.278   6.367 -0.0911  0.7111  1.2008
   78MOL   H28623540   3.859   1.245   6.411 -0.4870 -1.5196  0.2150
   78MOL   C28723541   4.404   0.987   6.594 -0.4716  0.5154  0.0693
   78MOL   C28823542   4.425   1.045   6.737  0.2491 -0.1312  0.8706
   78MOL   C28923543   4.452   0.937   6.840  0.3461 -0.4476 -1.5993
   78MOL   O29023544   4.467   0.818   6.816  0.1315  0.2386  0.7165
   78MOL   O29123545   4.461   0.990   6.957 -0.1105 -0.5316 -0.0343
   78MOL   C29223546   4.509   0.922   7.063 -0.2213 -0.4599 -0.0627
   78MOL   C29323547   4.509   1.002   7.189 -0.4090  0.3300  0.0428
   78MOL   H29423548   4.486   0.921   6.568  0.1016  1.3922 -0.3775
   78MOL   H29523549   4.396   1.073   6.527 -2.0321 -0.0320 -0.4630
   78MOL   H29623550   4.518   1.101   6.727  0.2097 -0.4486 -1.7334
   78MOL   H29723551   4.453   0.828   7.070  0.4027 -0.8306 -0.0695
   78MOL   H29823552   4.607   0.879   7.043 -2.1248 -3.5202 -3.3323
   78MOL   H29923553   4.509   0.946   7.283  0.6887 -2.0807 -1.3453
   78MOL   H30023554   4.416   1.058   7.195  0.3063  2.0877 -3.7100
   78MOL   H30123555   4.591   1.074   7.195  1.2840 -1.6888  2.6915
   78MOL   H30223556   4.349   1.119   6.762 -0.7544 -0.4977 -1.0000
   79MOL     C123557   0.100   6.087   5.679 -0.8427 -0.2099 -1.1665
   79MOL     C223558   0.059   6.164   5.809 -0.1057  0.1553 -0.8426
   79MOL     C323559   0.070   6.319   5.794  0.7026  0.3750 -0.1724
   79MOL     O423560   0.002   6.389   5.712  0.3079  0.0048  0.3786
   79MOL     O523561   0.170   6.367   5.864 -0.3178  0.0766 -0.3211
   79MOL     C623562   0.202   6.497   5.853 -0.2387 -0.3615 -0.4304
   79MOL     C723563   0.315   6.517   5.742  0.2254 -0.0200  0.7225
   79MOL     H823564   0.052   6.121   5.586 -0.1955  2.5981 -0.5357
   79MOL     H923565   0.073   5.982   5.678 -1.6753 -0.0163  0.0292
   79MOL    H1023566   7.860   6.145   5.817 -0.6162  2.3937 -2.0985
   79MOL    H1123567   0.109   6.551   5.833 -1.0760 -2.3410 -2.1801
   79MOL    H1223568   0.234   6.537   5.949 -0.1738 -1.9992  0.2410
   79MOL    H1323569   0.342   6.622   5.740 -0.6348  0.2053  0.8769
   79MOL    H1423570   0.272   6.479   5.649 -0.4456  1.3714  0.4573
   79MOL    H1523571   0.401   6.458   5.774  1.5413 -0.0315 -2.6749
   79MOL    H1623572   0.204   6.098   5.650 -0.3920  1.2591  0.9271
   79MOL    C1723573   0.128   6.096   5.936  0.4959  0.4881  0.8749
   79MOL    C1823574   0.059   6.123   6.077  0.0960  1.2458  0.4280
   79MOL    C1923575   0.120   6.245   6.146 -1.2710  0.7438 -0.3388
   79MOL    O2023576   0.049   6.336   6.189 -0.4607 -0.2201  0.2611
   79MOL    O2123577   0.259   6.234   6.168  0.3044  0.5558  0.5825
   79MOL    C2223578   0.335   6.334   6.236  0.4818  0.2261  0.1251
   79MOL    C2323579   0.480   6.304   6.188  0.3095  0.1589 -0.4306
   79MOL    H2423580   0.127   5.988   5.929 -2.2587  0.5292  0.0078
   79MOL    H2523581   0.234   6.123   5.933  1.2840 -2.5348  0.3518
   79MOL    H2623582   7.869   6.160   6.048 -0.0656  1.5094  1.3040
   79MOL    H2723583   0.308   6.438   6.218  2.4793  0.1721 -3.7581
   79MOL    H2823584   0.335   6.314   6.343 -0.6255  0.0346  0.0884
   79MOL    H2923585   0.509   6.202   6.209 -0.7560  0.1765  1.2380
   79MOL    H3023586   0.554   6.362   6.244  0.5227  0.0545 -0.6024
   79MOL    H3123587   0.484   6.319   6.080 -1.3693 -0.3629 -0.5732
   79MOL    C3223588   0.048   5.994   6.172 -0.1337 -0.1128  0.6511
   79MOL    C3323589   7.831   5.995   6.266  0.3030 -0.0756 -0.4484
   79MOL    C3423590   7.865   5.976   6.415 -0.4356  0.3229 -0.7821
   79MOL    O3523591   7.834   6.055   6.500  0.1236  0.4034  0.1048
   79MOL    O3623592   0.032   5.866   6.447 -0.1342 -0.2058 -0.0449
   79MOL    C3723593   0.076   5.856   6.580 -0.4052  0.2629  0.0684
   79MOL    C3823594   0.215   5.789   6.573 -0.2611  0.2311  0.1438
   79MOL    H3923595   0.057   5.909   6.104  1.2183  0.5280  0.0167
   79MOL    H4023596   0.139   5.987   6.231  1.5397  0.2210 -1.8478
   79MOL    H4123597   7.780   6.091   6.261  0.9052  0.3510  1.3013
   79MOL    H4223598   0.095   5.954   6.624  0.8030 -0.3355  0.9141
   79MOL    H4323599   0.006   5.798   6.641 -1.0599  2.0281  1.0227
   79MOL    H4423600   0.216   5.684   6.544  1.3983  0.1777  0.3388
   79MOL    H4523601   0.264   5.802   6.669  1.7560 -0.6489 -0.7352
   79MOL    H4623602   0.274   5.838   6.495  1.0909  0.7359  1.4674
   79MOL    C4723603   7.725   5.887   6.232 -0.5424 -0.2265  0.1845
   79MOL    C4823604   7.675   5.881   6.083  0.4594 -0.0735  0.5920
   79MOL    C4923605   7.606   6.016   6.049 -0.4087 -0.1581 -0.6199
   79MOL    O5023606   7.649   6.083   5.956  0.0097  0.4142  0.1203
   79MOL    O5123607   7.499   6.044   6.117  0.6349 -0.0701  0.3734
   79MOL    C5223608   7.427   6.164   6.088 -0.3583 -0.0944  0.3922
   79MOL    C5323609   7.276   6.145   6.095  0.4976  0.0082 -0.0272
   79MOL    H5423610   7.778   5.793   6.246  0.1696  0.1508  0.0599
   79MOL    H5523611   7.637   5.896   6.296 -0.2754 -2.8030  0.9475
   79MOL    H5623612   7.764   5.864   6.021 -0.4312 -0.1648 -0.6793
   79MOL    H5723613   7.463   6.247   6.149  1.4969 -0.4356 -0.2155
   79MOL    H5823614   7.447   6.187   5.983  0.9935 -1.9480  0.2217
   79MOL    H5923615   7.242   6.108   6.192  0.9477  2.5395  1.1405
   79MOL    H6023616   7.227   6.098   6.009 -1.1593  0.8627  0.4195
   79MOL    H6123617   7.238   6.244   6.071 -1.5289 -0.9414 -0.8806
   79MOL    C6223618   7.586   5.768   6.065 -1.1086 -0.2230  0.1015
   79MOL    C6323619   7.537   5.743   5.920  0.4501  0.9513 -0.3145
   79MOL    C6423620   7.385   5.768   5.892 -0.5827  0.2403  0.5244
   79MOL    O6523621   7.297   5.724   5.965  0.1738  0.5647 -0.0759
   79MOL    O6623622   7.372   5.820   5.780  0.2685  0.1348  0.5811
   79MOL    C6723623   7.241   5.864   5.735  0.0257 -0.3120 -0.5276
   79MOL    C6823624   7.139   5.762   5.678  0.2386  0.2946  0.7075
   79MOL    H6923625   7.650   5.687   6.100 -0.1719  0.7983  0.7775
   79MOL    H7023626   7.503   5.768   6.136 -0.5074 -1.1122  0.8114
   79MOL    H7123627   7.581   5.808   5.844  2.1849  1.3652  1.0343
   79MOL    H7223628   7.193   5.918   5.817  0.1806  0.3924 -0.9038
   79MOL    H7323629   7.269   5.942   5.665  0.8581  0.6006  0.7969
   79MOL    H7423630   7.040   5.805   5.661  0.1173 -0.7328 -1.3305
   79MOL    H7523631   7.124   5.672   5.738 -0.7066 -1.2552 -1.7693
   79MOL    H7623632   7.158   5.734   5.575  0.5908  0.2497  0.7851
   79MOL    C7723633   7.554   5.588   5.891  0.3103 -0.0464 -0.1072
   79MOL    C7823634   7.696   5.544   5.872  0.0001 -0.2823  0.1276
   79MOL    C7923635   7.777   5.609   5.750 -0.0962 -0.2793 -0.9313
   79MOL    O8023636   7.719   5.655   5.650  0.2147  0.0028  0.7021
   79MOL    O8123637   7.906   5.623   5.778  0.1513  0.8894 -0.1381
   79MOL    C8223638   0.082   5.681   5.683 -0.4695 -0.3804 -0.8540
   79MOL    C8323639   0.207   5.723   5.756 -0.2447 -0.5675 -0.2692
   79MOL    H8423640   7.515   5.529   5.974  0.1420  1.3990  0.8638
   79MOL    H8523641   7.489   5.557   5.809  0.0714 -0.4677  0.2373
   79MOL    H8623642   7.753   5.582   5.957  0.4744 -0.2344 -0.2054
   79MOL    H8723643   0.113   5.611   5.606 -1.1096 -0.9680 -0.5750
   79MOL    H8823644   0.038   5.772   5.643  1.2800  0.3190 -1.2538
   79MOL    H8923645   0.276   5.765   5.684 -0.3022 -0.3890 -0.2213
   79MOL    H9023646   0.247   5.631   5.798  2.5193  0.9814  0.6336
   79MOL    H9123647   0.194   5.799   5.834 -2.2843 -0.6625 -0.4727
   79MOL    C9223648   7.709   5.387   5.869  0.1238  0.0873 -0.2450
   79MOL    C9323649   7.701   5.318   6.011  0.1105 -0.1625 -0.0811
   79MOL    C9423650   7.820   5.346   6.113  0.1237 -0.3032  0.4208
   79MOL    O9523651   0.003   5.266   6.131  0.5936  0.6601 -0.2442
   79MOL    O9623652   7.817   5.469   6.154 -0.4839 -0.5778 -0.4194
   79MOL    C9723653   0.009   5.522   6.235 -0.2492  1.1021  0.0307
   79MOL    C9823654   7.878   5.541   6.381  0.2715  0.5030 -0.2491
   79MOL    H9923655   7.641   5.337   5.800  0.6642 -2.3909  0.9738
   79MOL   H10023656   7.802   5.350   5.825  1.0153  1.5011  0.4120
   79MOL   H10123657   7.621   5.369   6.064  0.5577  2.1125 -1.5048
   79MOL   H10223658   0.093   5.452   6.237 -0.0592  1.2930 -1.1661
   79MOL   H10323659   0.043   5.618   6.195 -0.8878  2.2868  2.2641
   79MOL   H10423660   7.796   5.612   6.391 -0.1832 -0.1411  0.6873
   79MOL   H10523661   0.061   5.563   6.436 -0.5817  2.0261  0.6007
   79MOL   H10623662   7.834   5.451   6.423 -0.6089  1.2553  0.4629
   79MOL   C10723663   7.662   5.168   6.000 -0.1488 -0.7153  0.1817
   79MOL   C10823664   7.591   5.103   6.120 -0.0323 -0.3527  0.3871
   79MOL   C10923665   7.617   4.952   6.152  0.3283 -0.0776  0.3452
   79MOL   O11023666   7.542   4.857   6.118  0.5760 -0.0894 -0.0653
   79MOL   O11123667   7.742   4.938   6.219  0.6365 -0.2890  0.3946
   79MOL   C11223668   7.794   4.803   6.240  0.0400 -0.5190 -0.7271
   79MOL   C11323669   7.751   4.739   6.373 -0.2829 -0.4505  0.3967
   79MOL   H11423670   7.589   5.165   5.920 -1.1000 -0.3615  1.0156
   79MOL   H11523671   7.752   5.109   5.980 -0.0773 -1.0174  1.3186
   79MOL   H11623672   7.646   5.138   6.207 -1.8782 -1.1733  1.9306
   79MOL   H11723673   7.761   4.732   6.164  2.2537 -2.7168  0.2950
   79MOL   H11823674   7.902   4.815   6.234 -0.0723 -0.1260 -2.2964
   79MOL   H11923675   7.647   4.707   6.379 -1.0571  1.7968 -0.4948
   79MOL   H12023676   7.771   4.796   6.463 -1.0867 -1.1651  1.0303
   79MOL   H12123677   7.802   4.644   6.390  3.0555  1.4813  1.7748
   79MOL   C12223678   7.436   5.141   6.141 -0.8369  0.8619 -0.5633
   79MOL   C12323679   7.395   5.188   6.280  0.2755  0.5796  0.0530
   79MOL   C12423680   7.457   5.315   6.333  0.2791  0.7073  0.5351
   79MOL   O12523681   7.555   5.313   6.413 -0.1783 -0.4809  0.1694
   79MOL   O12623682   7.407   5.421   6.273  0.2050  0.0850  0.0351
   79MOL   C12723683   7.437   5.547   6.329 -0.4879  0.2526  0.2207
   79MOL   C12823684   7.317   5.636   6.303 -0.2275 -0.1091 -0.5165
   79MOL   H12923685   7.423   5.226   6.073 -0.9707  0.3710 -1.1472
   79MOL   H13023686   7.367   5.066   6.102  1.3193  0.0299 -2.9297
   79MOL   H13123687   7.291   5.217   6.267  0.0964 -0.4779 -0.9366
   79MOL   H13223688   7.454   5.529   6.436 -0.3060  2.5534  0.5948
   79MOL   H13323689   7.531   5.586   6.291 -0.1630  1.7474  2.4484
   79MOL   H13423690   7.273   5.608   6.207 -1.5220 -0.5265  0.1971
   79MOL   H13523691   7.338   5.742   6.291 -0.5620  0.4408  3.3227
   79MOL   H13623692   7.243   5.622   6.381  0.3819  2.0543  0.4727
   79MOL   C13723693   7.383   5.069   6.381 -0.0455  0.1193  0.0532
   79MOL   C13823694   7.330   5.109   6.518  0.3784 -0.3249 -0.0579
   79MOL   C13923695   7.359   4.992   6.611  0.1035  0.1167 -0.3367
   79MOL   O14023696   7.419   5.003   6.716  0.4287  0.1340 -0.3731
   79MOL   O14123697   7.304   4.874   6.568 -0.0457 -0.2692 -0.0371
   79MOL   C14223698   7.317   4.762   6.649 -0.4936 -0.1480 -0.8205
   79MOL   C14323699   7.281   4.632   6.576  0.1390  0.1282  0.2417
   79MOL   H14423700   7.323   4.986   6.342  1.9359 -0.7597 -1.2320
   79MOL   H14523701   7.482   5.029   6.402 -0.2510  0.9825  2.8167
   79MOL   H14623702   7.386   5.186   6.570  0.0444 -1.7531  2.5328
   79MOL   H14723703   7.418   4.752   6.691 -0.5055  1.8035 -0.2379
   79MOL   H14823704   7.248   4.763   6.733  2.0978  0.9036  1.3954
   79MOL   H14923705   7.357   4.599   6.506 -0.4122 -0.6615  0.0095
   79MOL   H15023706   7.185   4.640   6.523  0.2385 -2.7093 -0.4404
   79MOL   H15123707   7.269   4.558   6.655 -0.2870  1.0177  1.0159
   79MOL   C15223708   7.172   5.137   6.519  0.4669 -0.1375 -0.6901
   79MOL   C15323709   7.128   5.288   6.485  0.2877  0.2932 -0.6406
   79MOL   C15423710   7.154   5.386   6.605  0.2574  0.5263 -0.1895
   79MOL   O15523711   7.209   5.349   6.712 -0.2752  0.3757 -0.1556
   79MOL   O15623712   7.105   5.509   6.583 -0.1589  0.3350 -0.8894
   79MOL   C15723713   7.098   5.598   6.690  0.2571  0.6372  0.1754
   79MOL   C15823714   7.018   5.719   6.633 -0.5500  0.2410  0.2879
   79MOL   H15923715   7.125   5.079   6.439 -1.5463  1.0589 -0.4073
   79MOL   H16023716   7.132   5.106   6.615 -0.3434 -0.1911 -1.0469
   79MOL   H16123717   7.186   5.318   6.398  0.8638 -2.0624 -1.1082
   79MOL   H16223718   7.045   5.546   6.771 -1.3859 -0.7407 -1.7416
   79MOL   H16323719   7.197   5.635   6.717 -0.1876  1.0130  1.3555
   79MOL   H16423720   6.915   5.688   6.618  0.1998 -2.5422  0.5334
   79MOL   H16523721   7.057   5.756   6.538 -0.0171 -2.4090 -0.5884
   79MOL   H16623722   7.003   5.797   6.707 -0.9182  0.8595 -0.4301
   79MOL   C16723723   6.976   5.293   6.457  0.5234  0.1249 -0.7022
   79MOL   C16823724   6.946   5.240   6.310  0.0596 -0.0762  0.5131
   79MOL   C16923725   7.000   5.343   6.210 -0.9237  0.7790  0.0584
   79MOL   O17023726   7.081   5.313   6.128 -0.1391 -0.5719 -0.2337
   79MOL   O17123727   6.945   5.467   6.216  0.0530  1.0257 -0.2934
   79MOL   C17223728   6.980   5.563   6.116  0.9890 -0.1256  0.2112
   79MOL   C17323729   6.976   5.702   6.193 -0.1493 -0.3339 -0.6323
   79MOL   H17423730   6.925   5.232   6.532  3.3302 -0.4096  0.8353
   79MOL   H17523731   6.931   5.392   6.465 -1.7954 -1.0955  2.2897
   79MOL   H17623732   6.994   5.145   6.284  2.2165  0.2956  3.0014
   79MOL   H17723733   7.080   5.546   6.076  0.6386 -2.8812  0.4364
   79MOL   H17823734   6.908   5.553   6.035 -0.1815 -2.4788  1.4903
   79MOL   H17923735   7.044   5.711   6.277 -0.2759  1.4194 -0.6821
   79MOL   H18023736   6.873   5.720   6.225 -0.0313 -1.0017  0.1216
   79MOL   H18123737   7.011   5.791   6.139 -1.8898  0.5062 -0.4305
   79MOL   C18223738   6.795   5.217   6.288 -1.3406 -0.7794 -0.2701
   79MOL   C18323739   6.740   5.083   6.328  0.3991  0.4182 -0.3236
   79MOL   C18423740   6.794   4.963   6.250 -0.5191 -0.3585 -0.4486
   79MOL   O18523741   6.885   4.893   6.292 -0.1838  0.0171 -0.1005
   79MOL   O18623742   6.748   4.951   6.130  0.4515 -0.0112  0.1557
   79MOL   C18723743   6.786   4.853   6.035  0.5571 -0.1091 -0.7302
   79MOL   C18823744   6.727   4.710   6.070 -1.0046 -0.6298 -0.2039
   79MOL   H18923745   6.738   5.298   6.334  2.2001  1.8728 -0.3643
   79MOL   H19023746   6.781   5.230   6.181  0.1608 -1.2284 -0.5239
   79MOL   H19123747   6.769   5.053   6.429  0.3579  1.0070 -0.1366
   79MOL   H19223748   6.747   4.897   5.943 -1.9703  0.2400  0.4506
   79MOL   H19323749   6.894   4.847   6.032  0.5233 -0.4187 -1.8489
   79MOL   H19423750   6.769   4.644   5.993 -1.2954  1.2546 -2.0281
   79MOL   H19523751   6.619   4.708   6.083 -1.6559  3.7023 -3.6386
   79MOL   H19623752   6.769   4.672   6.163  0.6299  3.5157  0.8915
   79MOL   C19723753   6.587   5.081   6.322 -0.0027  0.1258 -0.7128
   79MOL   C19823754   6.513   5.154   6.434 -0.2904  0.4537 -0.5445
   79MOL   C19923755   6.546   5.092   6.567  0.8432  0.0821  0.2329
   79MOL   O20023756   6.496   4.989   6.598  0.4154  0.0515  0.5924
   79MOL   O20123757   6.640   5.158   6.638  0.3219 -0.1832 -0.3572
   79MOL   C20223758   6.695   5.087   6.750 -0.8548 -0.8539  0.7824
   79MOL   C20323759   6.836   5.129   6.790 -0.1450 -0.3664 -0.5250
   79MOL   H20423760   6.559   5.119   6.224 -2.1875 -1.2056 -0.6551
   79MOL   H20523761   6.547   4.979   6.322  1.9339 -0.6764 -2.3367
   79MOL   H20623762   6.554   5.255   6.440  0.7052 -0.0754  2.5683
   79MOL   H20723763   6.626   5.117   6.829 -0.7295 -1.2882  1.0523
   79MOL   H20823764   6.685   4.979   6.749  1.2729 -1.0673  0.8423
   79MOL   H20923765   6.861   5.110   6.895  0.7666 -1.3895 -0.9227
   79MOL   H21023766   6.832   5.238   6.792  1.1942 -0.2936 -1.4192
   79MOL   H21123767   6.917   5.076   6.740 -0.7232 -1.6972 -0.0910
   79MOL   C21223768   6.362   5.178   6.420 -0.4115 -0.2814  0.2976
   79MOL   C21323769   6.262   5.064   6.429  0.3153 -0.2824  0.0185
   79MOL   C21423770   6.255   4.978   6.293 -0.4356 -0.3996 -0.0341
   79MOL   O21523771   6.248   4.857   6.292  0.4227 -0.2777  0.7641
   79MOL   O21623772   6.260   5.055   6.185  0.3440 -1.1778  0.4444
   79MOL   C21723773   6.273   4.991   6.058  0.1429  0.0249 -0.1220
   79MOL   C21823774   6.412   4.993   6.016 -0.5055  0.8456 -0.7998
   79MOL   H21923775   6.331   5.253   6.493 -0.9263 -0.2220  0.0182
   79MOL   H22023776   6.342   5.237   6.331  1.3374 -0.4110 -0.2042
   79MOL   H22123777   6.284   5.000   6.514 -0.9210  0.7623  1.1521
   79MOL   H22223778   6.221   4.895   6.046  0.4653 -0.0300 -1.2002
   79MOL   H22323779   6.221   5.064   5.996 -0.3275 -0.2745 -0.0846
   79MOL   H22423780   6.464   4.911   6.066 -0.1410  1.4562 -0.1805
   79MOL   H22523781   6.449   5.093   6.036  0.6978 -0.0746  1.7626
   79MOL   H22623782   6.435   4.976   5.910  0.7146 -0.5628 -0.3253
   79MOL   C22723783   6.116   5.125   6.453  0.1616 -0.5202  0.4045
   79MOL   C22823784   6.095   5.149   6.611 -0.1469 -0.3688  0.4243
   79MOL   C22923785   6.048   5.020   6.683  0.1109 -0.6193 -0.1777
   79MOL   O23023786   5.946   5.010   6.754  0.3468 -0.3020  0.4387
   79MOL   O23123787   6.142   4.923   6.673 -0.4070 -0.5557 -0.2284
   79MOL   C23223788   6.146   4.791   6.728  0.7488  0.0711 -0.1262
   79MOL   C23323789   6.277   4.774   6.807  1.6064  0.1371  1.1068
   79MOL   H23423790   6.113   5.219   6.398  0.4421 -0.8227 -0.1277
   79MOL   H23523791   6.031   5.075   6.409 -0.1171 -1.1478  1.6421
   79MOL   H23623792   6.198   5.164   6.646  0.4134  0.2124 -1.4320
   79MOL   H23723793   6.057   4.779   6.791 -1.5664  1.9722 -2.8800
   79MOL   H23823794   6.139   4.711   6.654 -0.8284  1.7591 -1.8376
   79MOL   H23923795   6.365   4.773   6.743  1.4350  0.2585  0.8687
   79MOL   H24023796   6.268   4.695   6.882  0.1908 -0.5621  0.2345
   79MOL   H24123797   6.286   4.861   6.872 -1.0991  1.4066 -0.1169
   79MOL   C24223798   5.996   5.274   6.643  0.2660 -0.2650 -0.4859
   79MOL   C24323799   6.066   5.407   6.677  0.2972 -0.2096  0.0559
   79MOL   C24423800   6.133   5.470   6.549 -0.1201 -0.5059 -0.0475
   79MOL   O24523801   6.255   5.500   6.545  0.0256 -0.0259  0.4565
   79MOL   O24623802   6.046   5.504   6.451  0.0986  0.2198  0.6239
   79MOL   C24723803   6.071   5.562   6.326 -0.0261 -0.1654 -0.0742
   79MOL   C24823804   6.150   5.478   6.229  0.6726  0.1848 -0.4281
   79MOL   H24923805   5.915   5.289   6.572  0.9366  1.0086 -0.9965
   79MOL   H25023806   5.943   5.243   6.733 -0.5952  0.9983 -0.5493
   79MOL   H25123807   5.987   5.475   6.708  0.5217  1.5666 -2.9967
   79MOL   H25223808   5.975   5.594   6.287  0.2236  1.0553  0.3063
   79MOL   H25323809   6.108   5.663   6.343 -0.2286 -0.0340 -0.4111
   79MOL   H25423810   6.160   5.522   6.130  0.7030 -1.1432 -1.0222
   79MOL   H25523811   6.106   5.379   6.218 -1.3431  0.9912  0.0214
   79MOL   H25623812   6.252   5.482   6.267  0.6960  1.5428 -0.6116
   79MOL   C25723813   6.168   5.398   6.798 -0.2110 -0.2298 -0.1645
   79MOL   C25823814   6.107   5.365   6.947  0.1916  0.0091 -0.5791
   79MOL   C25923815   5.991   5.465   6.983 -0.0325  0.3660  0.9518
   79MOL   O26023816   5.873   5.445   6.953  0.2549  0.1511  0.4031
   79MOL   O26123817   6.037   5.571   7.044 -0.0920  0.2854  0.3446
   79MOL   C26223818   5.959   5.687   7.068 -0.5858  0.6566 -0.2202
   79MOL   C26323819   5.914   5.666   7.215 -0.2203 -0.4138  0.0245
   79MOL   H26423820   6.241   5.319   6.782  0.0706 -0.4264  1.8684
   79MOL   H26523821   6.226   5.489   6.808  0.6329 -0.8128  0.3293
   79MOL   H26623822   6.071   5.263   6.937 -1.5178  0.5702 -0.3516
   79MOL   H26723823   6.012   5.778   7.040 -1.2837  0.6396 -1.6413
   79MOL   H26823824   5.876   5.687   6.998 -2.0162  3.5981  1.3667
   79MOL   H26923825   5.841   5.735   7.257 -0.2321 -1.3782  1.6555
   79MOL   H27023826   6.002   5.672   7.279  0.6394 -1.9858 -0.9717
   79MOL   H27123827   5.870   5.569   7.240  0.4006 -0.0368  2.8108
   79MOL   C27223828   6.221   5.364   7.052 -0.2622  0.2840  0.4729
   79MOL   C27323829   6.195   5.297   7.185 -0.0284 -0.3707  0.1188
   79MOL   C27423830   6.114   5.167   7.186  0.4292 -0.0312  0.0463
   79MOL   O27523831   6.166   5.059   7.202 -0.1247  0.2922 -0.3139
   79MOL   O27623832   5.985   5.188   7.160  0.2385  0.0362 -0.4626
   79MOL   C27723833   5.906   5.073   7.162 -0.0632  0.5538  0.1241
   79MOL   C27823834   5.759   5.119   7.156 -0.2094 -0.2434  0.1441
   79MOL   H27923835   6.304   5.307   7.009  0.3823 -0.0683  2.1682
   79MOL   H28023836   6.271   5.460   7.065  0.0833 -0.0045  1.3305
   79MOL   H28123837   6.298   5.272   7.206 -0.0449 -1.9223 -1.4995
   79MOL   H28223838   5.928   5.001   7.083 -1.0880 -0.5663  0.8461
   79MOL   H28323839   5.924   5.016   7.253  0.1847 -1.8045 -1.3612
   79MOL   H28423840   5.690   5.034   7.153  0.0297 -0.4576  0.6471
   79MOL   H28523841   5.745   5.180   7.067 -0.3677  1.2457  1.1680
   79MOL   H28623842   5.727   5.175   7.244  0.4244  0.8309 -0.2996
   79MOL   C28723843   6.157   5.395   7.298  0.0786 -0.3234 -0.3956
   79MOL   C28823844   6.205   5.349   7.434  0.7397  0.5235 -0.5771
   79MOL   C28923845   6.139   5.430   7.548  0.3484 -0.0343  0.8639
   79MOL   O29023846   6.059   5.519   7.522  0.2050 -0.0046  0.3112
   79MOL   O29123847   6.189   5.396   7.666  0.3095 -0.1751  0.3741
   79MOL   C29223848   6.164   5.473   7.779 -0.6399 -0.2230  0.1442
   79MOL   C29323849   6.078   5.380   7.865 -0.1694 -0.6859  0.7506
   79MOL   H29423850   6.191   5.496   7.273 -2.5435  1.1692  1.7974
   79MOL   H29523851   6.050   5.397   7.313  0.1771 -0.3643  0.3123
   79MOL   H29623852   6.171   5.246   7.444  1.6694  0.3751  1.2299
   79MOL   H29723853   6.255   5.504   7.830 -0.5078  0.4810 -0.5086
   79MOL   H29823854   6.113   5.568   7.761 -0.2188  0.2947  1.6359
   79MOL   H29923855   6.118   5.279   7.873 -0.0865 -0.6171  1.1889
   79MOL   H30023856   5.977   5.371   7.824  0.0869  2.5169 -0.7839
   79MOL   H30123857   6.069   5.431   0.052 -3.7063  0.2015  0.0098
   79MOL   H30223858   6.313   5.335   7.439  0.8560  0.6309 -2.4392
   80MOL     C123859   0.971   7.055   6.569 -0.3819  0.5967 -0.1025
   80MOL     C223860   0.872   7.146   6.505 -0.4898  0.6692 -0.1663
   80MOL     C323861   0.883   7.279   6.574  0.3237  0.2005  0.0153
   80MOL     O423862   0.796   7.313   6.657  0.5461 -0.0558  0.3561
   80MOL     O523863   0.983   7.357   6.530 -0.3003  0.3788 -0.3157
   80MOL     C623864   1.032   7.471   6.605  0.5062 -0.1555  0.7830
   80MOL     C723865   1.172   7.437   6.661 -0.1777  0.2137  0.0462
   80MOL     H823866   0.945   7.018   6.668 -3.1967  0.9327 -0.6862
   80MOL     H923867   1.073   7.094   6.569  0.0827 -0.5337  2.1861
   80MOL    H1023868   0.890   7.163   6.399 -0.7308 -1.6612 -0.6230
   80MOL    H1123869   1.029   7.570   6.558 -2.8151 -0.6976 -0.2693
   80MOL    H1223870   0.963   7.478   6.688  0.3396 -3.5022  0.9977
   80MOL    H1323871   1.212   7.522   6.717  1.0268 -0.2912 -0.0266
   80MOL    H1423872   1.234   7.438   6.572 -0.4784  1.7113 -0.1617
   80MOL    H1523873   1.180   7.344   6.717  1.3645 -0.2595 -0.9203
   80MOL    H1623874   0.973   6.966   6.505  1.6465 -0.7015  1.6720
   80MOL    C1723875   0.731   7.080   6.498 -0.3151 -0.2670  0.4485
   80MOL    C1823876   0.708   6.940   6.434 -0.2233 -0.4479 -0.1037
   80MOL    C1923877   0.772   6.926   6.295  0.7273 -1.4290  0.6226
   80MOL    O2023878   0.866   6.855   6.275  0.1359  0.5907 -0.1230
   80MOL    O2123879   0.710   6.993   6.197  0.3094  0.2861  0.2082
   80MOL    C2223880   0.749   6.978   6.062  0.4419 -0.3056  0.4676
   80MOL    C2323881   0.796   7.114   6.014 -0.6117  0.6855  0.2560
   80MOL    H2423882   0.707   7.068   6.604 -1.4594  0.9749  0.3532
   80MOL    H2523883   0.660   7.151   6.455 -0.2109 -1.7513 -2.3092
   80MOL    H2623884   0.771   6.879   6.498 -0.0366 -0.7133 -0.5458
   80MOL    H2723885   0.839   6.918   6.052 -0.0583 -1.0783  0.5448
   80MOL    H2823886   0.665   6.934   6.009 -1.2106  1.1255  1.8248
   80MOL    H2923887   0.865   7.169   6.078  0.4982 -1.3353  0.8506
   80MOL    H3023888   0.704   7.169   5.994  0.3934  1.6046 -2.0451
   80MOL    H3123889   0.843   7.110   5.915 -3.1257  0.3836 -0.9768
   80MOL    C3223890   0.561   6.879   6.445 -0.6042 -0.1877  0.4348
   80MOL    C3323891   0.543   6.734   6.414 -0.1914  0.3259 -0.1561
   80MOL    C3423892   0.471   6.714   6.280  0.1554 -0.8906 -0.1973
   80MOL    O3523893   0.350   6.703   6.273 -0.0869  0.0406 -0.1637
   80MOL    O3623894   0.560   6.720   6.171 -0.0085 -0.1001 -0.2269
   80MOL    C3723895   0.530   6.684   6.036 -0.4242  0.5176 -0.2529
   80MOL    C3823896   0.651   6.616   5.966 -0.2620  0.9099  0.2045
   80MOL    H3923897   0.530   6.906   6.546 -2.8574  0.5311 -0.4175
   80MOL    H4023898   0.495   6.929   6.374  2.6964  1.1469 -1.8039
   80MOL    H4123899   0.641   6.686   6.408 -0.4353 -0.3392  0.9722
   80MOL    H4223900   0.455   6.606   6.046 -1.2327  1.0478 -1.9198
   80MOL    H4323901   0.485   6.774   5.993 -4.2751 -1.5208 -0.7226
   80MOL    H4423902   0.736   6.683   5.978  0.5201  1.1773 -5.5675
   80MOL    H4523903   0.627   6.617   5.860 -1.5538  0.3604  0.4821
   80MOL    H4623904   0.676   6.515   5.998 -0.3830  0.7830 -0.1059
   80MOL    C4723905   0.464   6.653   6.522  0.7470  0.0100 -0.1410
   80MOL    C4823906   0.514   6.655   6.670  0.4245 -0.2073 -0.8323
   80MOL    C4923907   0.664   6.640   6.693 -0.9239  0.0912  0.0176
   80MOL    O5023908   0.720   6.731   6.761 -0.4965 -0.0728  0.5365
   80MOL    O5123909   0.719   6.530   6.640  0.5349 -0.4251 -0.5323
   80MOL    C5223910   0.857   6.507   6.641  1.1198  0.7930 -0.0209
   80MOL    C5323911   0.866   6.356   6.644  0.5525 -0.0866 -0.3514
   80MOL    H5423912   0.366   6.700   6.530  1.1526  0.7593  0.5356
   80MOL    H5523913   0.458   6.547   6.496  0.0776  0.3091 -1.2192
   80MOL    H5623914   0.496   6.757   6.705 -0.4509 -0.1774 -1.3432
   80MOL    H5723915   0.888   6.531   6.539  1.8751  1.2592  0.3199
   80MOL    H5823916   0.911   6.563   6.717 -0.9861 -2.1350  3.8356
   80MOL    H5923917   0.878   6.329   6.749 -1.6482  0.7439  0.1485
   80MOL    H6023918   0.952   6.313   6.593  0.3564  0.0770 -0.8181
   80MOL    H6123919   0.778   6.308   6.601 -0.8197  0.7972  1.3904
   80MOL    C6223920   0.443   6.548   6.760 -0.0708  0.5832  0.5694
   80MOL    C6323921   0.448   6.569   6.914 -0.5308  0.3802 -0.6163
   80MOL    C6423922   0.424   6.431   6.984 -0.0747 -0.4528  0.3569
   80MOL    O6523923   0.321   6.369   6.975 -0.4034 -0.6343 -0.7074
   80MOL    O6623924   0.526   6.406   7.064 -0.7005 -0.2025 -0.6285
   80MOL    C6723925   0.534   6.298   7.146  0.1855 -0.0107 -0.1325
   80MOL    C6823926   0.654   6.333   7.234 -0.3255  0.0175 -0.4448
   80MOL    H6923927   0.338   6.549   6.732 -0.2025  0.0046  1.0271
   80MOL    H7023928   0.478   6.450   6.727  2.5435  0.9784  2.0234
   80MOL    H7123929   0.548   6.607   6.932 -0.4626  0.3439 -0.9247
   80MOL    H7223930   0.453   6.283   7.217  0.0127 -0.6379 -0.4541
   80MOL    H7323931   0.557   6.205   7.094  2.0052 -0.6036  1.6739
   80MOL    H7423932   0.646   6.433   7.275  0.1913 -0.0886 -0.0849
   80MOL    H7523933   0.745   6.328   7.173  1.3695 -1.2999  2.1227
   80MOL    H7623934   0.655   6.258   7.313  2.4562 -0.1004 -0.5508
   80MOL    C7723935   0.336   6.671   6.952 -0.6574  0.0631  0.4408
   80MOL    C7823936   0.340   6.751   7.085 -0.2143 -0.4789 -0.5682
   80MOL    C7923937   0.482   6.821   7.089 -0.4636 -0.0762  0.4252
   80MOL    O8023938   0.573   6.782   7.157 -0.3356 -0.0515  0.2867
   80MOL    O8123939   0.490   6.926   7.009 -0.2704 -0.7174 -0.1319
   80MOL    C8223940   0.618   6.986   6.967  0.5418 -0.0556  0.3281
   80MOL    C8323941   0.605   7.135   6.948 -0.3807 -0.5241  0.3360
   80MOL    H8423942   0.334   6.738   6.866 -1.4202 -0.9282 -0.3169
   80MOL    H8523943   0.235   6.631   6.944 -0.2117 -1.1470  0.7470
   80MOL    H8623944   0.260   6.826   7.086  0.9756  0.7985  0.4252
   80MOL    H8723945   0.701   6.959   7.031  0.8767 -0.7957 -0.4183
   80MOL    H8823946   0.649   6.948   6.870 -1.5929 -0.1065 -0.3686
   80MOL    H8923947   0.701   7.175   6.915  0.1150 -0.4526  1.7872
   80MOL    H9023948   0.595   7.178   7.048  0.3991  0.8915 -0.1744
   80MOL    H9123949   0.523   7.162   6.882 -0.3765  1.8961  1.2710
   80MOL    C9223950   0.296   6.664   7.214  0.0894 -0.1186  0.7778
   80MOL    C9323951   0.225   6.731   7.325  0.1873  0.1939 -0.6369
   80MOL    C9423952   0.301   6.850   7.385 -0.4946 -0.6549  0.1263
   80MOL    O9523953   0.235   6.953   7.391  0.7149 -0.0278  0.4066
   80MOL    O9623954   0.423   6.826   7.417 -0.1986  0.0134  0.4886
   80MOL    C9723955   0.503   6.937   7.456 -0.2317 -0.3317  0.0599
   80MOL    C9823956   0.639   6.902   7.518 -0.3515  0.3024  0.3342
   80MOL    H9923957   0.230   6.585   7.180  0.1923  0.4978 -0.9065
   80MOL   H10023958   0.381   6.603   7.243  0.8994  0.7632  0.2988
   80MOL   H10123959   0.134   6.772   7.281  1.6016  1.3884 -2.5739
   80MOL   H10223960   0.520   7.006   7.374  0.8531  0.1074  0.6438
   80MOL   H10323961   0.445   6.991   7.531  2.1272  2.8911 -0.3661
   80MOL   H10423962   0.635   6.850   7.614 -3.5210 -1.7687 -0.8424
   80MOL   H10523963   0.717   6.977   7.537 -0.9848  0.7336  1.2894
   80MOL   H10623964   0.689   6.834   7.449 -0.0774  1.3866 -0.5585
   80MOL   C10723965   0.197   6.629   7.443  0.3336  0.1899  0.0722
   80MOL   C10823966   0.096   6.521   7.415 -0.6022  0.5708  0.4660
   80MOL   C10923967   7.866   6.569   7.364  0.8351 -0.1959 -0.2862
   80MOL   O11023968   7.767   6.590   7.435 -0.2033  0.9268  0.0678
   80MOL   O11123969   7.876   6.598   7.235 -0.7326  0.1899 -0.6482
   80MOL   C11223970   7.767   6.637   7.148 -0.0516 -0.3313  0.7358
   80MOL   C11323971   7.834   6.714   7.028 -0.5949  1.0887 -0.4800
   80MOL   H11423972   0.287   6.576   7.474  0.4468  0.0085 -0.5627
   80MOL   H11523973   0.166   6.678   7.535  0.1149  0.1475  0.0219
   80MOL   H11623974   0.128   6.451   7.337 -0.0580  0.0992  1.1087
   80MOL   H11723975   7.702   6.557   7.114 -1.9479  0.8114  1.5908
   80MOL   H11823976   7.704   6.709   7.200 -1.1636 -0.2548 -0.6804
   80MOL   H11923977   7.875   6.814   7.047  1.2234  0.4162 -0.7674
   80MOL   H12023978   7.761   6.731   6.949 -1.6452  0.0198  0.2510
   80MOL   H12123979   0.004   6.654   6.982  0.7514  0.9889  1.8449
   80MOL   C12223980   0.072   6.419   7.532 -0.9381  0.1159  0.0802
   80MOL   C12323981   7.907   6.289   7.487  0.0090  0.1238 -0.2031
   80MOL   C12423982   7.849   6.218   7.609 -0.3786  0.6621  0.4993
   80MOL   O12523983   7.905   6.220   7.719  0.1186  0.3534  0.5771
   80MOL   O12623984   7.739   6.135   7.580  0.0794 -0.0739 -0.2095
   80MOL   C12723985   7.676   6.047   7.685  0.1803 -0.0948  0.0305
   80MOL   C12823986   7.745   5.914   7.690  0.0888  0.6105  0.1007
   80MOL   H12923987   0.159   6.394   7.592  0.2697 -0.2216 -1.7913
   80MOL   H13023988   0.011   6.475   7.603 -0.0893 -1.0953  1.7921
   80MOL   H13123989   7.818   6.306   7.426 -1.4220 -0.8498  1.5541
   80MOL   H13223990   7.680   6.103   7.778 -0.7096  0.0070  0.0077
   80MOL   H13323991   7.574   6.016   7.663  0.4361 -1.0348  0.1449
   80MOL   H13423992   7.694   5.849   7.761  1.1973  0.3305  0.6461
   80MOL   H13523993   7.849   5.920   7.720 -0.3984 -1.4829  2.4050
   80MOL   H13623994   7.733   5.878   7.588 -1.0682  3.0804 -0.6750
   80MOL   C13723995   0.083   6.193   7.396 -0.3898  0.0760  1.2103
   80MOL   C13823996   0.012   6.139   7.268  0.2666  0.0297  0.2510
   80MOL   C13923997   7.819   6.032   7.284 -0.5359 -0.0502  0.3557
   80MOL   O14023998   7.696   6.053   7.271  0.0998 -0.2679 -0.0507
   80MOL   O14123999   7.862   5.905   7.312  0.1001  0.0923 -0.2505
   80MOL   C14224000   7.759   5.804   7.318  0.0947 -0.3938  0.5663
   80MOL   C14324001   7.723   5.752   7.173 -0.2437 -1.2857 -0.2864
   80MOL   H14424002   0.174   6.239   7.359  0.1669 -2.5619 -0.8369
   80MOL   H14524003   0.123   6.106   7.448  2.4168  1.0011  0.6461
   80MOL   H14624004   7.867   6.228   7.236  2.6872  1.5573  0.3293
   80MOL   H14724005   7.817   5.725   7.364 -0.6284  0.2364  2.6069
   80MOL   H14824006   7.673   5.828   7.381 -0.1250 -0.6402  0.3626
   80MOL   H14924007   7.818   5.730   7.125  0.2611  1.3608 -0.5753
   80MOL   H15024008   7.670   5.821   7.107 -3.4933 -2.2910  1.1370
   80MOL   H15124009   7.650   5.673   7.189  0.2633 -1.1615  3.0947
   80MOL   C15224010   0.118   6.099   7.166 -0.3249  0.4481  0.2906
   80MOL   C15324011   0.050   6.070   7.021 -0.1491  0.1697 -0.3316
   80MOL   C15424012   0.139   5.979   6.939 -0.7806  0.4677 -0.0285
   80MOL   O15524013   0.184   6.014   6.827 -0.7619 -0.3318  0.2786
   80MOL   O15624014   0.174   5.869   7.007 -0.3284 -0.5054 -0.5517
   80MOL   C15724015   0.291   5.794   6.983  0.2805  0.4032  0.6582
   80MOL   C15824016   0.321   5.715   7.111 -0.1991 -0.5028  0.9172
   80MOL   H15924017   0.194   6.175   7.147 -2.7131  2.7909 -0.2871
   80MOL   H16024018   0.166   6.010   7.206  0.7798  0.6446 -0.5605
   80MOL   H16124019   7.870   6.008   7.033 -1.0475  1.4686 -0.1997
   80MOL   H16224020   0.266   5.730   6.899  0.4783 -2.1487  2.4979
   80MOL   H16324021   0.372   5.862   6.957 -0.3533  0.1893 -2.0198
   80MOL   H16424022   0.244   5.639   7.127 -1.1422  0.1930 -0.2424
   80MOL   H16524023   0.341   5.790   7.188  0.7037 -0.7702  0.9536
   80MOL   H16624024   0.409   5.653   7.094 -2.3680 -3.0363 -1.4390
   80MOL   C16724025   0.019   6.206   6.943  0.3795  0.5701 -0.3780
   80MOL   C16824026   7.794   6.196   6.859  0.4567  0.9975 -0.6788
   80MOL   C16924027   7.786   6.318   6.771  0.4833  0.1752  0.3002
   80MOL   O17024028   7.792   6.436   6.813  0.6253  0.9625  0.0034
   80MOL   O17124029   7.782   6.293   6.638  0.5078  0.0915 -0.3427
   80MOL   C17224030   7.805   6.397   6.542 -0.4882 -0.1381  0.1239
   80MOL   C17324031   0.052   6.418   6.515  0.1035  0.3606 -0.5724
   80MOL   H17424032   0.017   6.297   7.003 -0.8956  1.5159 -1.7970
   80MOL   H17524033   0.105   6.220   6.877  0.4698  1.2289 -0.1244
   80MOL   H17624034   7.819   6.118   6.787  1.1347  0.5653  0.0144
   80MOL   H17724035   7.759   6.355   6.452  1.6873 -1.5687 -0.3492
   80MOL   H17824036   7.748   6.489   6.553  1.5422  0.9839  1.5114
   80MOL   H17924037   0.108   6.326   6.532 -0.4882 -0.0287 -0.7229
   80MOL   H18024038   0.100   6.494   6.577 -0.2001 -0.6914  0.9907
   80MOL   H18124039   0.061   6.446   6.410  1.0401 -1.5042 -1.0069
   80MOL   C18224040   7.667   6.159   6.929 -0.9637  0.0492 -0.9388
   80MOL   C18324041   7.553   6.089   6.852 -0.0850 -0.0973 -0.2450
   80MOL   C18424042   7.428   6.061   6.944  0.2101  0.1047 -0.2531
   80MOL   O18524043   7.329   6.136   6.940 -0.1536 -0.1079  0.0808
   80MOL   O18624044   7.440   5.946   7.014  0.3180  0.4195  0.2060
   80MOL   C18724045   7.335   5.890   7.085 -0.5373  0.4467  0.6732
   80MOL   C18824046   7.217   5.830   6.992  0.3900 -1.3146 -0.4487
   80MOL   H18924047   7.686   6.097   7.017 -0.8344 -0.9486 -1.6544
   80MOL   H19024048   7.629   6.255   6.964  1.9320  0.4611  1.1994
   80MOL   H19124049   7.526   6.157   6.771 -2.2677 -0.5521  0.0759
   80MOL   H19224050   7.377   5.803   7.134  0.1155  1.2647  1.5878
   80MOL   H19324051   7.285   5.951   7.161  0.0792 -0.9916  2.2623
   80MOL   H19424052   7.148   5.766   7.047  0.7949 -2.6130 -1.4068
   80MOL   H19524053   7.258   5.762   6.917  1.7263  0.2345 -1.1506
   80MOL   H19624054   7.153   5.901   6.940 -1.1026 -2.2568  0.0529
   80MOL   C19724055   7.596   5.963   6.778  0.1020 -0.1718  1.0568
   80MOL   C19824056   7.490   5.890   6.689  0.2523 -0.6272  0.3711
   80MOL   C19924057   7.528   5.746   6.662  0.4364  0.6201 -0.4411
   80MOL   O20024058   7.557   5.709   6.546  0.2364  0.4673  0.2566
   80MOL   O20124059   7.525   5.668   6.775  0.2191 -0.2961 -0.2511
   80MOL   C20224060   7.551   5.527   6.776 -0.5341  0.2988 -0.7508
   80MOL   C20324061   7.517   5.471   6.907 -0.1218  0.1940 -0.6415
   80MOL   H20424062   7.681   5.981   6.712 -0.3450  0.6998  0.7090
   80MOL   H20524063   7.636   5.901   6.857 -2.1795 -2.1474  0.7107
   80MOL   H20624064   7.402   5.872   6.750  0.6791 -0.8882  0.9142
   80MOL   H20724065   7.491   5.471   6.704 -0.0245 -0.5874 -0.4792
   80MOL   H20824066   7.654   5.507   6.749  0.3239  2.1062  1.1139
   80MOL   H20924067   7.417   5.498   6.940 -0.3326 -0.8244 -0.4311
   80MOL   H21024068   7.591   5.498   6.982  2.1641 -2.4212 -1.8661
   80MOL   H21124069   7.524   5.362   6.910  3.3780  0.3827  0.4822
   80MOL   C21224070   7.461   5.963   6.557 -0.0362  0.3522 -0.0143
   80MOL   C21324071   7.359   6.079   6.567  0.3361  0.4517  0.2435
   80MOL   C21424072   7.209   6.040   6.574  0.0697 -0.4304 -0.0634
   80MOL   O21524073   7.161   5.991   6.674 -0.3356 -0.3917 -0.7607
   80MOL   O21624074   7.158   6.042   6.447 -0.2461 -0.5315 -0.7272
   80MOL   C21724075   7.013   6.028   6.430 -0.0791  0.4825  0.2590
   80MOL   C21824076   6.942   6.164   6.448 -0.5632 -0.3039  0.5792
   80MOL   H21924077   7.555   5.992   6.510  0.5820 -1.0510  0.3511
   80MOL   H22024078   7.409   5.900   6.484 -2.5602 -1.1210  2.9530
   80MOL   H22124079   7.370   6.109   6.671 -1.9858 -0.1364  0.6749
   80MOL   H22224080   7.001   5.998   6.326  2.2547  1.6675 -0.3817
   80MOL   H22324081   6.964   5.952   6.491  0.8627 -0.1598  0.2264
   80MOL   H22424082   6.983   6.254   6.401 -0.5525 -1.4572 -1.6970
   80MOL   H22524083   6.953   6.196   6.552  0.4495 -1.0212  0.6948
   80MOL   H22624084   6.836   6.156   6.425  0.1542 -0.8346 -2.7253
   80MOL   C22724085   7.399   6.192   6.468 -0.1872  0.3467 -0.0074
   80MOL   C22824086   7.308   6.318   6.469  0.4825  0.3896 -0.1409
   80MOL   C22924087   7.359   6.404   6.357 -0.2366  0.5608 -0.3598
   80MOL   O23024088   7.276   6.437   6.267 -0.2064  0.5061 -0.6895
   80MOL   O23124089   7.494   6.440   6.357  0.1224  0.1895 -0.1836
   80MOL   C23224090   7.548   6.524   6.253  1.1279  0.2761 -0.1619
   80MOL   C23324091   7.616   6.655   6.302 -0.3555 -0.1666 -0.3916
   80MOL   H23424092   7.499   6.221   6.501 -1.2762 -0.5489  4.3845
   80MOL   H23524093   7.415   6.152   6.368 -2.1644  0.6437 -0.4714
   80MOL   H23624094   7.207   6.280   6.452  0.4246 -0.2687  1.5123
   80MOL   H23724095   7.624   6.465   6.202  1.6302  0.6432  0.1675
   80MOL   H23824096   7.463   6.539   6.186  0.2575  2.6018  1.3724
   80MOL   H23924097   7.708   6.630   6.355 -0.6765  0.8899  0.6781
   80MOL   H24024098   7.551   6.710   6.369 -0.4159 -1.9652  1.0957
   80MOL   H24124099   7.626   6.711   6.210 -1.6645  0.4974 -0.1366
   80MOL   C24224100   7.316   6.406   6.601 -0.0013  0.1560  0.3104
   80MOL   C24324101   7.176   6.459   6.648  0.5827  0.0126  0.2552
   80MOL   C24424102   7.136   6.586   6.570 -0.8110  0.6546 -0.5869
   80MOL   O24524103   7.038   6.590   6.505 -0.4993  0.3391 -0.3987
   80MOL   O24624104   7.208   6.694   6.599 -0.0851 -0.0184  0.0795
   80MOL   C24724105   7.182   6.821   6.538 -0.1556  0.5798  0.1816
   80MOL   C24824106   7.269   6.845   6.414 -0.1777  0.5082 -0.6602
   80MOL   H24924107   7.344   6.336   6.680  2.7239 -1.0315 -1.6586
   80MOL   H25024108   7.398   6.477   6.595 -0.4269  0.4741 -2.1835
   80MOL   H25124109   7.100   6.384   6.629  1.4297 -0.5883 -0.8213
   80MOL   H25224110   7.078   6.831   6.509 -0.0858 -0.3135 -0.3882
   80MOL   H25324111   7.201   6.899   6.612  2.5190  0.2642 -0.1073
   80MOL   H25424112   7.236   6.764   6.350 -1.2195  0.1865  0.2624
   80MOL   H25524113   7.377   6.852   6.432 -0.0465 -1.2570 -0.7076
   80MOL   H25624114   7.242   6.939   6.367 -0.4731  1.3482  1.1170
   80MOL   C25724115   7.165   6.474   6.803  0.4562  0.1791 -0.0520
   80MOL   C25824116   7.031   6.513   6.858 -0.5037  0.8832 -0.4034
   80MOL   C25924117   6.980   6.658   6.840  0.1145  0.3432 -0.3920
   80MOL   O26024118   6.871   6.680   6.787  0.6150  0.1438 -0.1425
   80MOL   O26124119   7.071   6.744   6.881  0.0887 -0.5625  0.0200
   80MOL   C26224120   7.041   6.880   6.878 -0.0753 -0.2150  0.5241
   80MOL   C26324121   7.148   6.943   6.966 -0.5527  0.1101 -0.2398
   80MOL   H26424122   7.193   6.377   6.844 -0.2563 -0.7173 -1.6645
   80MOL   H26524123   7.239   6.547   6.837  1.8794  0.4877 -3.6130
   80MOL   H26624124   6.961   6.439   6.822 -1.8318  1.1500  1.5762
   80MOL   H26724125   7.042   6.906   6.772 -1.3949 -1.9226  0.0648
   80MOL   H26824126   6.940   6.899   6.914  0.4706  0.9503  1.4798
   80MOL   H26924127   7.120   7.044   6.995 -3.0595 -0.2035 -1.3905
   80MOL   H27024128   7.244   6.962   6.918  0.2776  0.0377  1.3652
   80MOL   H27124129   7.153   6.891   7.062 -2.6433  1.2826  0.5258
   80MOL   C27224130   7.021   6.474   7.007  0.7429 -0.5418  0.2264
   80MOL   C27324131   6.991   6.329   7.056  0.1226  0.4330 -0.0622
   80MOL   C27424132   6.860   6.269   7.004  0.2569  0.0451  0.0927
   80MOL   O27524133   6.756   6.289   7.060 -0.3346 -0.0580 -0.5688
   80MOL   O27624134   6.865   6.211   6.881  0.0717  0.1371  0.0780
   80MOL   C27724135   6.745   6.161   6.821  0.1264  0.7776 -0.4448
   80MOL   C27824136   6.770   6.018   6.783 -0.3000  0.6363 -0.2096
   80MOL   H27924137   7.119   6.503   7.046  0.8146 -1.7665  0.9847
   80MOL   H28024138   6.960   6.540   7.069  0.7155  0.0707 -0.4471
   80MOL   H28124139   7.061   6.251   7.026  1.5597  1.9561 -0.7144
   80MOL   H28224140   6.663   6.148   6.892 -1.7637  3.6660 -1.9566
   80MOL   H28324141   6.708   6.215   6.733  3.3921  1.6117 -1.3814
   80MOL   H28424142   6.690   5.975   6.722 -0.9966  0.4158  0.8404
   80MOL   H28524143   6.787   5.953   6.869 -0.3298  0.5896 -0.2394
   80MOL   H28624144   6.860   6.019   6.722 -0.6202  0.8918 -0.6817
   80MOL   C28724145   7.000   6.312   7.212 -0.1559  0.3433  0.3674
   80MOL   C28824146   7.048   6.176   7.251 -0.0607 -0.1447  0.0319
   80MOL   C28924147   6.947   6.060   7.257  0.1746  0.0461  0.2516
   80MOL   O29024148   6.958   5.968   7.175 -0.1174  0.0767  0.0052
   80MOL   O29124149   6.860   6.073   7.365  0.1615  0.1559  0.2372
   80MOL   C29224150   6.767   5.969   7.392 -0.5493  0.1926  0.1309
   80MOL   C29324151   6.624   6.020   7.379 -0.1605  0.3119  0.2537
   80MOL   H29424152   7.066   6.391   7.249  1.1422  0.4559 -2.0536
   80MOL   H29524153   6.901   6.327   7.255 -1.0032 -1.8311 -0.7627
   80MOL   H29624154   7.133   6.142   7.192 -1.2959 -1.1288 -1.2110
   80MOL   H29724155   6.781   5.879   7.331 -1.1329 -0.1173  0.4516
   80MOL   H29824156   6.786   5.936   7.494  4.0727  1.6608 -0.1687
   80MOL   H29924157   6.614   6.100   7.452  0.2354 -0.0613  0.7135
   80MOL   H30024158   6.555   5.941   7.409 -1.6494  1.1001 -1.0229
   80MOL   H30124159   6.607   6.054   7.276  0.5657  0.0897  0.0579
   80MOL   H30224160   7.083   6.186   7.354  1.3198  1.6410 -0.5882
   81MOL     C124161   5.495   7.666   2.144 -0.3955  0.3058  0.7343
   81MOL     C224162   5.393   7.572   2.215  0.2420 -0.3737 -0.0058
   81MOL     C324163   5.419   7.581   2.366  0.6140  0.2140 -0.5643
   81MOL     O424164   5.327   7.598   2.448 -0.3265 -0.1838 -0.0232
   81MOL     O524165   5.548   7.559   2.398  0.1251  0.7202 -0.1112
   81MOL     C624166   5.594   7.583   2.531  0.7114 -0.1203 -0.4075
   81MOL     C724167   5.745   7.577   2.527  0.6006  0.6475 -0.2505
   81MOL     H824168   5.598   7.630   2.144  0.9606  3.9268  2.1617
   81MOL     H924169   5.501   7.763   2.193  0.9136  0.9123 -0.5649
   81MOL    H1024170   5.289   7.594   2.188 -0.7042 -1.8757  2.2171
   81MOL    H1124171   5.558   7.679   2.570  1.9500  0.5220 -0.8081
   81MOL    H1224172   5.556   7.509   2.601  0.0648  0.2428 -0.3683
   81MOL    H1324173   5.785   7.477   2.541 -0.3191  0.1359 -1.1923
   81MOL    H1424174   5.782   7.632   2.613 -1.0633 -3.3384  3.2241
   81MOL    H1524175   5.790   7.604   2.432  0.6693 -3.1749 -1.3765
   81MOL    H1624176   5.463   7.679   2.040 -0.4637  2.0966  0.9627
   81MOL    C1724177   5.395   7.426   2.162 -0.3124 -0.8722 -0.0515
   81MOL    C1824178   5.277   7.394   2.060  0.2179  0.1081 -0.0721
   81MOL    C1924179   5.137   7.382   2.126  0.1097 -0.6548  0.2490
   81MOL    O2024180   5.048   7.333   2.059 -0.0329  0.1594 -0.2798
   81MOL    O2124181   5.123   7.445   2.241  0.8558 -0.5523  0.6921
   81MOL    C2224182   5.002   7.458   2.303  0.0660  0.3919  0.4587
   81MOL    C2324183   4.997   7.489   2.448 -0.6095 -0.1991  0.7860
   81MOL    H2424184   5.485   7.403   2.105 -0.3868  0.1943 -0.6239
   81MOL    H2524185   5.387   7.364   2.251 -0.5649 -1.6921 -0.6434
   81MOL    H2624186   5.273   7.482   1.995 -2.2389  0.0409 -0.0718
   81MOL    H2724187   4.939   7.527   2.246  3.3007  2.3007 -0.9052
   81MOL    H2824188   4.951   7.363   2.290  2.8891 -0.9437 -1.1325
   81MOL    H2924189   5.025   7.591   2.476 -0.3560 -0.8042  2.8559
   81MOL    H3024190   5.066   7.422   2.500  1.1850  1.6497  0.8590
   81MOL    H3124191   4.896   7.475   2.486  0.1299  0.6452  3.2026
   81MOL    C3224192   5.304   7.273   1.965  0.0152  0.0000  0.1124
   81MOL    C3324193   5.299   7.128   2.010  0.0478  0.2051 -0.4567
   81MOL    C3424194   5.394   7.097   2.123  0.4890  0.4871 -0.5411
   81MOL    O3524195   5.346   7.050   2.222 -0.2188 -0.3453  0.0876
   81MOL    O3624196   5.524   7.117   2.104  0.0559  0.6703  0.0140
   81MOL    C3724197   5.615   7.084   2.210  0.2559 -0.0027  0.7100
   81MOL    C3824198   5.748   7.159   2.182  0.5137  0.8048 -0.0293
   81MOL    H3924199   5.221   7.270   1.894 -0.3290 -1.4587  0.5558
   81MOL    H4024200   5.394   7.301   1.910  0.7505  1.8433  2.1758
   81MOL    H4124201   5.201   7.116   2.056 -0.9087  2.7541 -1.6826
   81MOL    H4224202   5.575   7.125   2.303 -0.5151  1.7760 -0.3859
   81MOL    H4324203   5.630   6.977   2.222 -2.2773 -0.4223  0.4049
   81MOL    H4424204   5.728   7.260   2.146  0.6607  0.3054 -1.5584
   81MOL    H4524205   5.792   7.108   2.096  0.0893 -0.4562  0.4738
   81MOL    H4624206   5.815   7.163   2.268  1.8005 -0.0733 -0.9629
   81MOL    C4724207   5.310   7.019   1.894 -0.0477 -0.2055  0.4084
   81MOL    C4824208   5.307   6.870   1.936  0.2013  0.3157 -0.9116
   81MOL    C4924209   5.384   6.780   1.836 -0.2760  0.2780 -0.5199
   81MOL    O5024210   5.473   6.703   1.873  0.4298  0.3920  0.5468
   81MOL    O5124211   5.352   6.803   1.705  0.1289  0.4776  0.0527
   81MOL    C5224212   5.422   6.738   1.601  0.3260  0.1927  0.4308
   81MOL    C5324213   5.533   6.828   1.566 -0.3434  0.6083  0.1357
   81MOL    H5424214   5.248   7.039   1.807 -0.4548 -2.1021  0.2556
   81MOL    H5524215   5.412   7.036   1.859 -0.0545  0.2116  0.5855
   81MOL    H5624216   5.366   6.852   2.026  2.2414 -0.2656 -2.3324
   81MOL    H5724217   5.455   6.638   1.632 -0.1307 -0.0844  0.0317
   81MOL    H5824218   5.364   6.723   1.510 -1.0068 -0.7064  1.4070
   81MOL    H5924219   5.584   6.854   1.659 -0.2878 -1.2604  0.6504
   81MOL    H6024220   5.479   6.903   1.507 -2.9081 -0.3958  1.1354
   81MOL    H6124221   5.593   6.767   1.499  1.3965 -1.8916  3.7778
   81MOL    C6224222   5.161   6.826   1.957  0.1363  0.8122 -1.0101
   81MOL    C6324223   5.142   6.682   2.030  0.4405 -0.4298 -0.0876
   81MOL    C6424224   5.070   6.583   1.933 -0.4052 -1.4521 -0.1353
   81MOL    O6524225   5.060   6.597   1.810 -0.6169  0.3762  0.3307
   81MOL    O6624226   5.022   6.477   2.001 -0.2989 -0.0870 -0.2377
   81MOL    C6724227   4.954   6.379   1.935 -0.2840  0.0639  0.2183
   81MOL    C6824228   4.808   6.381   1.968  0.1388  0.2467 -0.0873
   81MOL    H6924229   5.101   6.907   2.000 -0.0014  1.5830 -2.6285
   81MOL    H7024230   5.110   6.823   1.861  0.4027 -3.0421 -1.1226
   81MOL    H7124231   5.232   6.625   2.054  0.1036 -0.7060  0.5337
   81MOL    H7224232   4.964   6.387   1.827  0.3834 -1.1717  0.1787
   81MOL    H7324233   5.012   6.290   1.958  1.2433  1.1659  0.7523
   81MOL    H7424234   4.779   6.352   2.069 -0.3131  0.3617 -0.1872
   81MOL    H7524235   4.755   6.313   1.901  1.1924  1.2514 -1.9505
   81MOL    H7624236   4.765   6.475   1.937 -0.2782 -0.0476 -0.4079
   81MOL    C7724237   5.079   6.697   2.171  0.0448  0.5058  0.1969
   81MOL    C7824238   5.163   6.778   2.274  0.3926 -0.6814 -1.5585
   81MOL    C7924239   5.281   6.699   2.342  0.4312 -0.6865  0.1194
   81MOL    O8024240   5.305   6.699   2.464 -0.7163 -0.0134 -0.3863
   81MOL    O8124241   5.359   6.651   2.253  0.0936  0.7383 -0.5473
   81MOL    C8224242   5.478   6.581   2.292  0.7568 -0.4623 -0.9442
   81MOL    C8324243   5.603   6.613   2.206  0.3082  0.2016  0.5151
   81MOL    H8424244   4.978   6.736   2.162  0.5406  1.4308 -1.5731
   81MOL    H8524245   5.056   6.597   2.209 -0.5425  0.6865  0.3128
   81MOL    H8624246   5.213   6.851   2.211 -0.4981  1.6504  0.3462
   81MOL    H8724247   5.500   6.606   2.396 -1.5206  1.5482 -0.9173
   81MOL    H8824248   5.452   6.475   2.301  0.6333 -0.6396 -3.0924
   81MOL    H8924249   5.612   6.717   2.175 -1.4209  0.4066  0.6837
   81MOL    H9024250   5.610   6.548   2.119 -3.0292 -0.7922  0.9424
   81MOL    H9124251   5.690   6.588   2.267  1.8912 -1.1286 -2.2067
   81MOL    C9224252   5.082   6.862   2.378  0.2465 -0.2342 -0.3695
   81MOL    C9324253   4.990   6.768   2.472 -1.0011  0.3691  0.0487
   81MOL    C9424254   4.862   6.714   2.404 -0.4794 -1.0018 -0.4601
   81MOL    O9524255   4.825   6.602   2.414 -0.1195  0.1822 -0.6334
   81MOL    O9624256   4.797   6.812   2.331  0.1927  0.2043 -0.3105
   81MOL    C9724257   4.671   6.785   2.264 -0.5684 -0.0118  0.0383
   81MOL    C9824258   4.691   6.695   2.139  1.0139  0.0103 -0.5082
   81MOL    H9924259   5.157   6.910   2.440  0.3346 -0.8847  0.0261
   81MOL   H10024260   5.025   6.941   2.328  0.1987  1.2739  1.9985
   81MOL   H10124261   5.044   6.678   2.504  0.3871  1.5379  1.0658
   81MOL   H10224262   4.609   6.732   2.336  0.3416 -0.6177  0.3823
   81MOL   H10324263   4.621   6.877   2.234 -3.1284 -1.0624  0.9770
   81MOL   H10424264   4.600   6.659   2.092  1.1992 -0.1674 -0.7322
   81MOL   H10524265   4.730   6.597   2.165 -0.5544 -0.2219  1.0768
   81MOL   H10624266   4.749   6.749   2.064 -0.9781  3.4384  0.3058
   81MOL   C10724267   4.959   6.846   2.601  0.3109 -0.4548  0.3916
   81MOL   C10824268   5.078   6.842   2.698 -0.3034  0.5073 -0.5382
   81MOL   C10924269   5.109   6.704   2.758  0.2671  0.7025 -0.2674
   81MOL   O11024270   5.021   6.621   2.780 -0.1588 -0.0359 -0.8902
   81MOL   O11124271   5.242   6.688   2.780  0.5077  0.2089  0.6494
   81MOL   C11224272   5.278   6.564   2.841 -0.3999  0.2174  0.3006
   81MOL   C11324273   5.414   6.520   2.793 -0.5936 -0.0637  0.4019
   81MOL   H11424274   4.930   6.946   2.570  2.6778 -0.0773 -0.6673
   81MOL   H11524275   4.878   6.803   2.661 -0.0638  0.6864  0.7151
   81MOL   H11624276   5.168   6.881   2.651  0.1923 -1.6160 -1.3967
   81MOL   H11724277   5.276   6.583   2.949  1.1227 -2.1842  0.8125
   81MOL   H11824278   5.209   6.487   2.807 -0.8567  1.2639 -1.1915
   81MOL   H11924279   5.425   6.504   2.685  1.2296  0.4720  0.4776
   81MOL   H12024280   5.444   6.425   2.837  3.6112 -0.0995 -2.2151
   81MOL   H12124281   5.482   6.597   2.829 -0.7538  1.4236 -2.3135
   81MOL   C12224282   5.060   6.938   2.822  0.1187  0.1855  1.2062
   81MOL   C12324283   5.025   7.086   2.792 -0.0638  0.3847 -0.7145
   81MOL   C12424284   5.112   7.147   2.680  0.0337 -0.8421 -0.3031
   81MOL   O12524285   5.060   7.170   2.575 -0.3922  0.0071  0.1185
   81MOL   O12624286   5.241   7.182   2.711 -0.2932  0.7438 -0.0655
   81MOL   C12724287   5.315   7.256   2.614 -0.0687  0.3719  0.3448
   81MOL   C12824288   5.404   7.170   2.526 -0.0983  0.0053  0.3104
   81MOL   H12924289   4.980   6.899   2.885 -1.2485 -0.5816 -0.9351
   81MOL   H13024290   5.148   6.930   2.885  0.3418  0.9397  0.9892
   81MOL   H13124291   4.921   7.085   2.760 -0.7621  2.2856  1.3164
   81MOL   H13224292   5.263   7.329   2.552  0.6876 -0.1651 -0.9475
   81MOL   H13324293   5.371   7.329   2.672  0.2306  0.0076  0.5164
   81MOL   H13424294   5.347   7.092   2.475  0.9213 -0.7846  0.3753
   81MOL   H13524295   5.491   7.131   2.578 -0.5819  0.9400  1.8455
   81MOL   H13624296   5.440   7.228   2.441  0.9099 -3.2313 -1.5727
   81MOL   C13724297   5.035   7.167   2.928 -0.3975 -0.0863 -0.5455
   81MOL   C13824298   4.915   7.145   3.028  0.0946 -0.3046  0.0102
   81MOL   C13924299   4.786   7.192   2.971  0.4696  1.2566  0.3779
   81MOL   O14024300   4.688   7.111   2.968  0.1566 -0.4677  0.0109
   81MOL   O14124301   4.784   7.312   2.919  0.5828 -0.3460  0.3128
   81MOL   C14224302   4.670   7.353   2.853 -0.4391 -0.4328  0.0547
   81MOL   C14324303   4.711   7.484   2.807 -0.5840 -1.1797  0.4003
   81MOL   H14424304   5.122   7.143   2.988 -1.2097  1.0461  1.1308
   81MOL   H14524305   5.032   7.271   2.896  0.8087 -0.5455 -2.2081
   81MOL   H14624306   4.910   7.038   3.046  0.3500 -0.2168  0.6203
   81MOL   H14724307   4.631   7.294   2.769  0.1649 -1.1990  0.3078
   81MOL   H14824308   4.579   7.357   2.913 -1.0905 -0.9706 -0.8671
   81MOL   H14924309   4.629   7.521   2.745 -0.6023 -0.7994  0.6503
   81MOL   H15024310   4.804   7.477   2.750  0.3383 -0.5854  1.8184
   81MOL   H15124311   4.724   7.551   2.891  1.3293 -1.8937  0.7044
   81MOL   C15224312   4.941   7.213   3.171  0.5126  0.1029  0.0394
   81MOL   C15324313   5.052   7.148   3.248  0.2730 -0.5673  0.1765
   81MOL   C15424314   5.021   7.002   3.294  0.3068  0.1354  0.9315
   81MOL   O15524315   4.927   6.975   3.374 -0.0823  0.0332  0.0470
   81MOL   O15624316   5.106   6.910   3.241 -0.2663  0.7332  0.6325
   81MOL   C15724317   5.100   6.775   3.265 -0.3291 -0.0213  0.6899
   81MOL   C15824318   5.238   6.702   3.243  0.5434 -0.2130  0.2696
   81MOL   H15924319   4.966   7.318   3.158  0.1855  0.2342  0.4627
   81MOL   H16024320   4.861   7.204   3.244 -0.1045  0.3546 -0.5998
   81MOL   H16124321   5.148   7.144   3.196  0.3524  1.3076  0.1259
   81MOL   H16224322   5.052   6.766   3.362 -0.0131 -1.5499  0.7063
   81MOL   H16324323   5.021   6.733   3.204 -1.2709  1.3832  0.9107
   81MOL   H16424324   5.229   6.596   3.268  1.2132 -0.5335 -0.7862
   81MOL   H16524325   5.322   6.748   3.295 -1.2222  0.3136  2.7003
   81MOL   H16624326   5.259   6.712   3.136 -1.7139  1.2198 -0.0641
   81MOL   C16724327   5.085   7.245   3.368  1.1034 -0.0510 -0.0907
   81MOL   C16824328   5.168   7.193   3.490 -0.0247 -0.0817 -0.9520
   81MOL   C16924329   5.177   7.301   3.601 -0.3877 -0.8095 -0.0050
   81MOL   O17024330   5.150   7.419   3.582 -0.2170 -0.6660 -0.6390
   81MOL   O17124331   5.221   7.250   3.715 -0.1301 -0.0789  0.1935
   81MOL   C17224332   5.217   7.323   3.835  0.4181 -0.2959  0.6947
   81MOL   C17324333   5.354   7.316   3.898  0.3395 -0.3060  0.4849
   81MOL   H17424334   5.139   7.331   3.328  1.3556 -0.3352 -0.3727
   81MOL   H17524335   4.994   7.291   3.405  0.7410 -1.0080  0.2222
   81MOL   H17624336   5.112   7.110   3.532  1.6866 -0.9810 -0.3723
   81MOL   H17724337   5.173   7.422   3.824  1.2589  0.2533  2.2129
   81MOL   H17824338   5.150   7.268   3.901 -1.3766  1.1601  0.1231
   81MOL   H17924339   5.390   7.213   3.905  0.7706 -0.2969 -1.1808
   81MOL   H18024340   5.351   7.372   3.991  0.3496  0.5850 -0.0430
   81MOL   H18124341   5.416   7.364   3.822 -1.0602 -2.0723 -1.8738
   81MOL   C18224342   5.309   7.141   3.433  0.4210 -0.1872  0.0796
   81MOL   C18324343   5.382   7.054   3.539 -0.4896  0.4773 -0.7834
   81MOL   C18424344   5.520   7.021   3.491  0.0820  1.1850 -0.1132
   81MOL   O18524345   5.608   7.043   3.569 -0.0184 -0.0936 -0.1224
   81MOL   O18624346   5.526   6.958   3.365 -0.1378 -0.7541  0.5160
   81MOL   C18724347   5.643   6.884   3.338  0.0742  0.3180 -0.2143
   81MOL   C18824348   5.627   6.737   3.370  0.0740  0.6622  0.7900
   81MOL   H18924349   5.304   7.078   3.344  2.6246 -0.6723  0.2620
   81MOL   H19024350   5.366   7.231   3.413 -0.4086  0.7906  1.9667
   81MOL   H19124351   5.399   7.107   3.633  0.0515 -1.6020  0.3159
   81MOL   H19224352   5.670   6.895   3.233  1.8783 -2.5715 -0.1169
   81MOL   H19324353   5.730   6.903   3.401  0.8599 -3.3140 -0.0973
   81MOL   H19424354   5.596   6.739   3.475 -0.2579  3.1144  0.6757
   81MOL   H19524355   5.714   6.675   3.347 -0.9149  0.5990 -3.0217
   81MOL   H19624356   5.557   6.699   3.297 -0.8696  0.1655  1.9311
   81MOL   C19724357   5.308   6.923   3.578  0.9029 -0.5327 -0.0235
   81MOL   C19824358   5.377   6.826   3.676  0.4296 -0.3013  0.5009
   81MOL   C19924359   5.339   6.675   3.654 -0.6104  0.5990 -0.6700
   81MOL   O20024360   5.268   6.634   3.561 -0.1294  0.1039  0.5909
   81MOL   O20124361   5.388   6.598   3.754  0.6709  0.2115  0.1657
   81MOL   C20224362   5.346   6.460   3.769 -0.4458  0.3463  0.0854
   81MOL   C20324363   5.445   6.358   3.718  0.3804  0.4485  0.4270
   81MOL   H20424364   5.206   6.952   3.606  1.2093  0.3171  0.2305
   81MOL   H20524365   5.295   6.870   3.484  1.8242 -1.2235  0.2258
   81MOL   H20624366   5.485   6.834   3.664  0.2078 -2.6661 -4.1011
   81MOL   H20724367   5.322   6.437   3.872  1.6853 -0.3110  0.4695
   81MOL   H20824368   5.253   6.440   3.716 -0.0777  2.4747 -1.4309
   81MOL   H20924369   5.395   6.264   3.740  0.3264 -0.0844 -1.8076
   81MOL   H21024370   5.529   6.334   3.783 -0.6757 -4.3188  0.2341
   81MOL   H21124371   5.460   6.367   3.610  2.4237  0.8255  0.7126
   81MOL   C21224372   5.382   6.870   3.826  1.0190 -0.5191 -0.6499
   81MOL   C21324373   5.264   6.857   3.928 -0.3294 -0.3162  0.5300
   81MOL   C21424374   5.129   6.896   3.861  0.2098  0.3996  0.2890
   81MOL   O21524375   5.087   7.009   3.881  0.3805 -0.6446 -0.4919
   81MOL   O21624376   5.068   6.799   3.793 -0.0311 -0.1792  0.1745
   81MOL   C21724377   4.938   6.825   3.736 -0.0950 -0.3047 -0.0574
   81MOL   C21824378   4.828   6.794   3.838 -0.3293  0.6908  0.6321
   81MOL   H21924379   5.459   6.802   3.863 -0.7490 -2.0328  0.3823
   81MOL   H22024380   5.427   6.968   3.832 -1.4276  0.7051 -1.5972
   81MOL   H22124381   5.251   6.753   3.959 -0.8090 -0.7316 -0.9773
   81MOL   H22224382   4.925   6.927   3.703  1.7748  0.2887  0.9457
   81MOL   H22324383   4.916   6.759   3.652 -1.5835 -2.1733  1.7485
   81MOL   H22424384   4.838   6.688   3.861  2.8053  1.0692  1.1437
   81MOL   H22524385   4.728   6.796   3.793  0.0616 -1.0488 -0.3598
   81MOL   H22624386   4.840   6.853   3.929  2.0087  0.6195  0.3762
   81MOL   C22724387   5.296   6.932   4.061 -0.3284  0.0541  0.0716
   81MOL   C22824388   5.413   6.879   4.138  0.2751 -0.0511 -0.2210
   81MOL   C22924389   5.394   6.731   4.169 -0.4388  0.8339 -0.0367
   81MOL   O23024390   5.286   6.684   4.203 -0.2601  0.4763 -0.0737
   81MOL   O23124391   5.508   6.668   4.134 -0.4213 -0.0222  0.1654
   81MOL   C23224392   5.520   6.529   4.154 -0.2950 -0.0094  0.4290
   81MOL   C23324393   5.656   6.485   4.102 -0.2418  0.1125 -0.6016
   81MOL   H23424394   5.319   7.037   4.042 -0.7840 -0.4429 -3.6709
   81MOL   H23524395   5.203   6.931   4.118 -0.7838 -1.6354 -0.6631
   81MOL   H23624396   5.499   6.892   4.072  0.9179  0.8628  0.7868
   81MOL   H23724397   5.506   6.500   4.259  0.6390 -0.0716  0.5368
   81MOL   H23824398   5.443   6.469   4.105  0.9976 -3.3115  2.2320
   81MOL   H23924399   5.736   6.524   4.165 -1.0655 -1.3234  1.3841
   81MOL   H24024400   5.667   6.500   3.995  0.7548 -0.2676 -0.5621
   81MOL   H24124401   5.665   6.377   4.099 -0.8688 -0.0396  1.9939
   81MOL   C24224402   5.432   6.960   4.267  1.2837 -0.9041  0.1229
   81MOL   C24324403   5.572   6.947   4.325 -0.3969 -0.2728  0.0316
   81MOL   C24424404   5.574   6.983   4.474  0.0229  0.1850 -0.3889
   81MOL   O24524405   5.482   7.041   4.528  0.4395 -0.1626 -0.7062
   81MOL   O24624406   5.693   6.941   4.528  0.7222  0.4420 -0.0343
   81MOL   C24724407   5.732   6.960   4.658  0.2996 -0.1327  0.0139
   81MOL   C24824408   5.881   6.970   4.652 -0.5832 -0.0842  0.7671
   81MOL   H24924409   5.413   7.066   4.247  2.2121 -0.5447  1.0759
   81MOL   H25024410   5.361   6.928   4.343  1.1797 -0.1056  0.3747
   81MOL   H25124411   5.589   6.840   4.332 -1.3852 -0.4253  0.1987
   81MOL   H25224412   5.675   7.047   4.693  0.4977  0.3963 -0.9558
   81MOL   H25324413   5.704   6.883   4.730 -0.6295  0.9919  0.8812
   81MOL   H25424414   5.927   6.874   4.630  0.6090  0.5438  0.4886
   81MOL   H25524415   5.919   7.002   4.749 -0.7149  0.9343  0.4851
   81MOL   H25624416   5.908   7.056   4.591 -0.9937  0.3920  1.2448
   81MOL   C25724417   5.685   7.019   4.245  0.9904  0.0570 -1.1910
   81MOL   C25824418   5.670   7.170   4.243  0.2691  0.8018 -0.5472
   81MOL   C25924419   5.736   7.219   4.110  0.0934  0.1190 -0.3911
   81MOL   O26024420   5.843   7.281   4.111 -0.1084  0.0769  0.4054
   81MOL   O26124421   5.647   7.213   4.011 -0.2958 -0.3991 -0.0048
   81MOL   C26224422   5.688   7.252   3.876  0.2603  0.3228  0.1138
   81MOL   C26324423   5.791   7.154   3.814 -0.1937  0.6710 -0.4129
   81MOL   H26424424   5.785   6.990   4.277  0.7317  0.0427 -0.3856
   81MOL   H26524425   5.674   6.977   4.145  1.1551  1.4920 -1.8174
   81MOL   H26624426   5.571   7.205   4.214  0.1932  0.5093 -0.6353
   81MOL   H26724427   5.602   7.264   3.811  0.2625 -1.4649 -0.2540
   81MOL   H26824428   5.750   7.341   3.881  1.6957 -0.6784  0.8438
   81MOL   H26924429   5.804   7.191   3.712  0.5611 -0.6474 -0.7946
   81MOL   H27024430   5.742   7.058   3.823 -0.0036  0.5569 -0.5941
   81MOL   H27124431   5.881   7.155   3.876 -0.2250  0.3340 -0.3652
   81MOL   C27224432   5.732   7.242   4.373  0.0145  0.1477  0.1470
   81MOL   C27324433   5.728   7.399   4.369  0.2557  0.5589  0.3143
   81MOL   C27424434   5.809   7.464   4.482  0.1735 -0.3480  0.1121
   81MOL   O27524435   5.899   7.541   4.455  0.1073  0.4076 -0.0720
   81MOL   O27624436   5.778   7.422   4.603 -0.3889  0.1088 -0.1390
   81MOL   C27724437   5.841   7.488   4.718  0.0834  0.8862  0.0383
   81MOL   C27824438   5.821   7.416   4.852 -0.2174 -0.4392  0.2340
   81MOL   H27924439   5.670   7.220   4.460 -0.5377 -0.0725 -0.2928
   81MOL   H28024440   5.834   7.213   4.397 -0.4490 -1.8389 -0.1858
   81MOL   H28124441   5.783   7.429   4.280  0.0993 -1.5319 -0.5211
   81MOL   H28224442   5.950   7.492   4.717  0.1000  1.0765  1.2872
   81MOL   H28324443   5.805   7.590   4.729 -0.7024  0.5072  1.2024
   81MOL   H28424444   5.864   7.317   4.835 -0.7106 -0.4622 -0.9161
   81MOL   H28524445   5.717   7.395   4.876 -1.0112  1.1364 -1.6850
   81MOL   H28624446   5.862   7.471   4.937 -0.2439  0.2273 -0.1751
   81MOL   C28724447   5.582   7.442   4.372 -0.2038  0.1941 -0.0889
   81MOL   C28824448   5.562   7.585   4.310 -0.0606 -0.1807  0.2193
   81MOL   C28924449   5.553   7.684   4.425 -0.5941 -0.5720  0.0968
   81MOL   O29024450   5.451   7.706   4.482 -0.4810 -0.3416 -0.5076
   81MOL   O29124451   5.677   7.729   4.453 -0.0799  0.2428 -0.3264
   81MOL   C29224452   5.686   7.825   4.555  0.0488  0.1005  0.0097
   81MOL   C29324453   5.828   7.881   4.559  0.5519  0.5265 -0.1588
   81MOL   H29424454   5.507   7.385   4.317  0.3852  1.6715 -2.4953
   81MOL   H29524455   5.558   7.427   4.478  0.9257  0.1871  0.1799
   81MOL   H29624456   5.636   7.611   4.235 -1.0889  1.8359 -0.1175
   81MOL   H29724457   5.601   7.892   4.546 -0.5301  0.0391  3.9448
   81MOL   H29824458   5.674   7.782   4.655 -1.2783  1.1925  0.3412
   81MOL   H29924459   5.844   0.033   4.648  0.9586  2.4580 -1.5142
   81MOL   H30024460   5.847   0.033   4.470 -2.7513  0.6117 -0.8586
   81MOL   H30124461   5.901   7.800   4.551 -1.6095 -1.5347  0.4796
   81MOL   H30224462   5.467   7.600   4.260  0.8881  1.7733 -1.0595
   82MOL     C124463   3.546   4.794   4.729  0.3327  0.8558 -0.3820
   82MOL     C224464   3.563   4.948   4.724 -0.3848  0.3827 -0.4708
   82MOL     C324465   3.713   4.989   4.757 -0.0768  0.2910  0.1874
   82MOL     O424466   3.768   4.934   4.851 -0.0289 -0.2432  0.1479
   82MOL     O524467   3.768   5.080   4.674  0.6099  0.1067  0.1331
   82MOL     C624468   3.909   5.099   4.691 -1.0527 -0.5148  0.6884
   82MOL     C724469   3.939   5.214   4.587  0.7246  0.1287  0.5879
   82MOL     H824470   3.635   4.743   4.690  1.2104  1.5946  0.6250
   82MOL     H924471   3.461   4.767   4.667 -0.3333  2.0506  0.0077
   82MOL    H1024472   3.541   4.978   4.622 -1.0020  2.5715  0.2692
   82MOL    H1124473   3.930   5.132   4.793  0.9186 -0.5488  0.3089
   82MOL    H1224474   3.981   5.021   4.668  1.4381  1.3295  2.0467
   82MOL    H1324475   3.897   5.310   4.617 -1.6452 -0.0082 -2.0775
   82MOL    H1424476   3.906   5.205   4.483 -1.7553 -1.1724  1.4321
   82MOL    H1524477   4.046   5.213   4.569  0.2999  1.1321 -2.2177
   82MOL    H1624478   3.524   4.757   4.829  0.5747  1.5550 -0.0708
   82MOL    C1724479   3.451   5.017   4.812 -0.2360  0.4637  0.6570
   82MOL    C1824480   3.438   5.171   4.780 -0.0839  0.3952 -0.4550
   82MOL    C1924481   3.498   5.248   4.901  0.7700 -0.4887 -0.2837
   82MOL    O2024482   3.435   5.269   5.008  0.2121  0.1230 -0.0671
   82MOL    O2124483   3.628   5.286   4.875  0.7145  0.1145 -0.8985
   82MOL    C2224484   3.699   5.361   4.973 -0.2594  0.4751 -0.4563
   82MOL    C2324485   3.699   5.511   4.941 -0.1791 -0.1981  0.2012
   82MOL    H2424486   3.360   4.962   4.787 -0.0993  0.3075  0.4986
   82MOL    H2524487   3.466   5.008   4.920  0.7408 -0.1322  0.4819
   82MOL    H2624488   3.510   5.186   4.699 -0.0154  0.9478 -0.2910
   82MOL    H2724489   3.666   5.348   5.076  0.1979  4.2981  0.2551
   82MOL    H2824490   3.805   5.333   4.971  0.0247  1.4370  0.5769
   82MOL    H2924491   3.705   5.571   5.032  0.9843  0.2404 -0.1596
   82MOL    H3024492   3.605   5.542   4.895  0.5973 -0.3435 -1.5003
   82MOL    H3124493   3.776   5.531   4.868 -0.5456  0.0413 -0.1225
   82MOL    C3224494   3.294   5.220   4.733  0.2392 -0.8083  0.2788
   82MOL    C3324495   3.281   5.201   4.586 -0.2806 -0.5013 -0.2960
   82MOL    C3424496   3.348   5.307   4.492 -0.0717  0.4599 -0.3302
   82MOL    O3524497   3.308   5.333   4.375 -0.4957 -0.3242  0.0757
   82MOL    O3624498   3.467   5.348   4.544 -0.7953 -0.4967 -0.1331
   82MOL    C3724499   3.549   5.437   4.466  0.0119  0.3450 -0.2480
   82MOL    C3824500   3.632   5.353   4.366 -0.3419 -0.2308  0.2603
   82MOL    H3924501   3.221   5.172   4.798 -2.8663  1.5117 -1.3821
   82MOL    H4024502   3.280   5.324   4.761  1.3028  0.5977 -4.0619
   82MOL    H4124503   3.341   5.115   4.556 -0.0600 -0.3952 -0.1644
   82MOL    H4224504   3.488   5.510   4.413 -1.2849 -0.3327  0.2576
   82MOL    H4324505   3.608   5.497   4.534  0.7871 -1.7068  0.9433
   82MOL    H4424506   3.571   5.311   4.287  0.0769 -0.4696  0.0616
   82MOL    H4524507   3.689   5.275   4.416  0.7976 -0.6587 -1.6708
   82MOL    H4624508   3.706   5.416   4.317  0.6869 -2.5752 -1.2957
   82MOL    C4724509   3.135   5.177   4.532  0.4980  0.2903 -0.7572
   82MOL    C4824510   3.027   5.289   4.539 -0.0836 -0.3056  0.0229
   82MOL    C4924511   2.973   5.320   4.678  0.6189 -0.0332 -0.0772
   82MOL    O5024512   2.977   5.433   4.730  0.4424 -0.2069 -0.3312
   82MOL    O5124513   2.916   5.212   4.729 -0.1758 -0.0567 -0.1573
   82MOL    C5224514   2.846   5.221   4.849 -0.2895  0.3327  0.4961
   82MOL    C5324515   2.711   5.149   4.839 -0.0589  0.4546  0.7557
   82MOL    H5424516   3.143   5.119   4.440  1.6249 -1.4897  0.4341
   82MOL    H5524517   3.100   5.097   4.597  1.8179  0.6792  0.4516
   82MOL    H5624518   3.073   5.383   4.508  0.6595 -0.9756 -0.9462
   82MOL    H5724519   2.910   5.181   4.927  1.3421 -0.8695 -1.4017
   82MOL    H5824520   2.831   5.323   4.885  1.6535  1.0368 -0.6187
   82MOL    H5924521   2.639   5.155   4.921 -2.7303  0.0684 -1.4959
   82MOL    H6024522   2.721   5.048   4.799  0.0002  1.2716 -1.3375
   82MOL    H6124523   2.669   5.198   4.751 -2.0615 -1.3654  0.6528
   82MOL    C6224524   2.922   5.264   4.430 -0.4833  0.1382  0.1007
   82MOL    C6324525   2.802   5.358   4.405 -0.2053 -0.7552 -0.0655
   82MOL    C6424526   2.663   5.288   4.391  0.2730  0.2881  0.4427
   82MOL    O6524527   2.593   5.280   4.489 -0.2206  0.2261 -0.5443
   82MOL    O6624528   2.638   5.251   4.271  0.1963 -0.1631  0.3970
   82MOL    C6724529   2.517   5.202   4.223 -0.2180  0.6355  0.0104
   82MOL    C6824530   2.407   5.296   4.189 -0.4765 -0.3629 -0.3110
   82MOL    H6924531   2.980   5.268   4.338  2.1249 -1.0150  1.6200
   82MOL    H7024532   2.889   5.160   4.431 -0.9583  0.2916  0.7608
   82MOL    H7124533   2.801   5.424   4.492  1.7548 -0.9776  0.1440
   82MOL    H7224534   2.547   5.155   4.129 -0.9693  0.7066 -0.2632
   82MOL    H7324535   2.480   5.124   4.289  0.3265 -0.2096 -0.6644
   82MOL    H7424536   2.430   5.361   4.105 -0.5098 -1.3904 -1.1249
   82MOL    H7524537   2.389   5.356   4.278  1.5798 -0.3181  0.0839
   82MOL    H7624538   2.313   5.243   4.171  0.6105 -2.7621  0.8504
   82MOL    C7724539   2.829   5.459   4.284 -0.1255  0.0941 -0.2045
   82MOL    C7824540   2.961   5.542   4.286  0.0086  0.2386  0.3664
   82MOL    C7924541   2.966   5.650   4.397  0.3893 -0.4983  0.3697
   82MOL    O8024542   3.055   5.657   4.481 -0.0122  0.0064 -0.0382
   82MOL    O8124543   2.858   5.724   4.402 -0.2099 -0.7443  0.8501
   82MOL    C8224544   2.860   5.843   4.482  0.3156  0.2089  0.5687
   82MOL    C8324545   2.873   5.972   4.400  0.3334  0.8070  0.1884
   82MOL    H8424546   2.846   5.398   4.195  0.0197 -2.3022  1.4204
   82MOL    H8524547   2.740   5.516   4.258 -1.7473 -2.0435  0.5351
   82MOL    H8624548   3.048   5.482   4.312  0.9932  2.1429  1.5787
   82MOL    H8724549   2.758   5.850   4.521  0.7625  1.7741  1.5156
   82MOL    H8824550   2.942   5.839   4.553 -0.3358  2.3656  1.4914
   82MOL    H8924551   2.973   5.985   4.360  0.0763  1.2900 -0.2994
   82MOL    H9024552   2.854   6.062   4.458 -0.6124 -0.0627  1.2582
   82MOL    H9124553   2.803   5.961   4.317  1.7086  1.9784 -1.1521
   82MOL    C9224554   2.983   5.608   4.144  0.2660 -0.5565 -0.0738
   82MOL    C9324555   3.126   5.683   4.127  0.5970 -0.2523 -0.9815
   82MOL    C9424556   3.115   5.799   4.030  0.4383  0.1576 -0.8178
   82MOL    O9524557   3.131   5.785   3.911 -0.0746 -0.5397  0.5504
   82MOL    O9624558   3.074   5.908   4.089  0.1816 -0.2922 -0.8141
   82MOL    C9724559   3.025   6.012   4.007 -0.0377 -0.0547  0.2857
   82MOL    C9824560   2.932   6.102   4.087 -0.8686 -0.7678 -0.5999
   82MOL    H9924561   2.971   5.539   4.061 -1.4454 -1.0550  0.5697
   82MOL   H10024562   2.901   5.679   4.128  2.0313  1.9215  1.3821
   82MOL   H10124563   3.161   5.733   4.218 -2.9862  2.2087 -0.8520
   82MOL   H10224564   3.104   6.072   3.962  0.1900  0.1855  0.9938
   82MOL   H10324565   2.961   5.961   3.935 -0.1269  0.0943  0.2604
   82MOL   H10424566   2.837   6.056   4.115 -0.4865 -1.3301 -0.2225
   82MOL   H10524567   2.910   6.192   4.030  1.6551 -0.2399 -0.7911
   82MOL   H10624568   2.986   6.135   4.176 -1.8081 -0.1231 -0.2679
   82MOL   C10724569   3.246   5.585   4.093  0.1386  0.2378  0.5419
   82MOL   C10824570   3.392   5.633   4.079  0.4412  0.7881  0.0270
   82MOL   C10924571   3.415   5.755   4.161  0.6453  0.3302 -0.3326
   82MOL   O11024572   3.445   5.862   4.114 -0.8946 -0.0046  0.3766
   82MOL   O11124573   3.405   5.723   4.289 -0.3417  0.7405  0.1198
   82MOL   C11224574   3.422   5.826   4.380  0.5773  1.2244  0.0713
   82MOL   C11324575   3.367   5.798   4.522  0.4023 -0.0218 -0.5997
   82MOL   H11424576   3.248   5.527   4.186 -0.7920 -2.0402 -0.8225
   82MOL   H11524577   3.215   5.513   4.018  0.8415  1.5981 -1.0828
   82MOL   H11624578   3.463   5.567   4.128  1.0585  2.0350  0.8306
   82MOL   H11724579   3.525   5.856   4.397  0.9712  0.7283 -1.3248
   82MOL   H11824580   3.356   5.909   4.355 -2.3477 -0.6348  1.3712
   82MOL   H11924581   3.271   5.747   4.523 -0.0515  0.8221 -0.2410
   82MOL   H12024582   3.347   5.886   4.584  0.3200 -0.9937  0.7691
   82MOL   H12124583   3.432   5.731   4.578  1.6352  1.8551  0.2852
   82MOL   C12224584   3.436   5.639   3.935  0.9637  0.8706  0.8612
   82MOL   C12324585   3.569   5.569   3.889 -0.0059  0.0596 -0.1545
   82MOL   C12424586   3.688   5.566   3.990  0.1233  0.1073  0.1126
   82MOL   O12524587   3.742   5.457   4.022  0.2164 -0.3985  0.6272
   82MOL   O12624588   3.732   5.694   4.025  0.0801 -0.3838 -0.5526
   82MOL   C12724589   3.828   5.697   4.132 -0.2617  0.5316 -0.9358
   82MOL   C12824590   3.754   5.745   4.263  0.4468  0.2498 -0.4338
   82MOL   H12924591   3.354   5.606   3.870  2.8296 -0.7540 -0.7166
   82MOL   H13024592   3.434   5.746   3.916 -2.7757  1.2750  3.0263
   82MOL   H13124593   3.563   5.461   3.878 -0.7979  0.1963 -1.0537
   82MOL   H13224594   3.894   5.611   4.134 -1.9599 -0.8201 -2.2102
   82MOL   H13324595   3.887   5.784   4.101  2.8207 -1.1683 -0.0437
   82MOL   H13424596   3.810   5.778   4.351 -0.0054  0.5873 -0.2738
   82MOL   H13524597   3.692   5.664   4.301  0.4918  0.9493  1.1501
   82MOL   H13624598   3.684   5.824   4.237 -2.6139 -2.2401 -0.0748
   82MOL   C13724599   3.622   5.625   3.754  0.1918 -0.4639 -0.0134
   82MOL   C13824600   3.521   5.616   3.634 -0.4476  0.6761 -0.0005
   82MOL   C13924601   3.499   5.470   3.595 -0.3233  0.0151  0.1473
   82MOL   O14024602   3.381   5.423   3.583  0.1213  0.0273 -0.3685
   82MOL   O14124603   3.605   5.400   3.575 -0.4545 -0.3435 -0.1313
   82MOL   C14224604   3.602   5.261   3.550 -0.2834  0.8939 -0.6318
   82MOL   C14324605   3.585   5.191   3.687  0.5986  0.0980  0.2518
   82MOL   H14424606   3.647   5.730   3.772 -3.3454  0.3180  0.9097
   82MOL   H14524607   3.710   5.571   3.720 -0.0438 -0.8847  0.0474
   82MOL   H14624608   3.423   5.656   3.661 -0.9256  1.0423 -2.1634
   82MOL   H14724609   3.519   5.235   3.484  0.4297 -0.8990 -0.8475
   82MOL   H14824610   3.699   5.234   3.508  0.2451  1.3336  0.3062
   82MOL   H14924611   3.606   5.084   3.679 -0.2064  0.0347 -1.0776
   82MOL   H15024612   3.483   5.204   3.723  0.8445 -0.0145  1.0062
   82MOL   H15124613   3.653   5.231   3.763  1.3165  2.2220 -1.4438
   82MOL   C15224614   3.571   5.693   3.514 -0.5419 -0.5569 -0.0268
   82MOL   C15324615   3.470   5.769   3.424  0.6146  0.3117  0.3697
   82MOL   C15424616   3.351   5.685   3.388  0.5497 -0.5418 -0.0434
   82MOL   O15524617   3.237   5.716   3.422 -0.0899  0.1655 -0.2066
   82MOL   O15624618   3.383   5.576   3.322  0.0762 -0.0472  0.2762
   82MOL   C15724619   3.279   5.485   3.293  0.5024  0.7772 -0.4218
   82MOL   C15824620   3.346   5.356   3.241  0.2252  0.5161 -0.0990
   82MOL   H15924621   3.632   5.776   3.549 -0.2663 -1.5276  1.8681
   82MOL   H16024622   3.632   5.630   3.450 -0.0561 -3.0791  2.7891
   82MOL   H16124623   3.437   5.849   3.490 -1.0281 -0.3577  0.3917
   82MOL   H16224624   3.221   5.464   3.383  2.3182 -2.8850 -0.0061
   82MOL   H16324625   3.214   5.533   3.220 -0.0178 -0.0744 -0.5210
   82MOL   H16424626   3.389   5.300   3.323 -0.0979 -0.4823 -0.5970
   82MOL   H16524627   3.435   5.380   3.183  0.3984  1.5662  0.5914
   82MOL   H16624628   3.275   5.294   3.185 -0.0068  0.3882  0.3344
   82MOL   C16724629   3.552   5.820   3.303 -0.3327 -0.1015  0.6798
   82MOL   C16824630   3.473   5.932   3.220  0.2367  0.5607 -0.0868
   82MOL   C16924631   3.524   5.936   3.077  0.7886  0.6528 -0.0327
   82MOL   O17024632   3.601   6.021   3.033  0.3223 -0.2637  0.2342
   82MOL   O17124633   3.487   5.830   3.008 -0.3879 -0.2036  0.0634
   82MOL   C17224634   3.559   5.792   2.894 -0.6042 -0.6823  0.4310
   82MOL   C17324635   3.457   5.740   2.802  0.5423  0.8572 -0.0340
   82MOL   H17424636   3.652   5.852   3.331 -0.2059 -0.0751  0.2153
   82MOL   H17524637   3.591   5.730   3.254 -0.6226 -0.0371  0.3210
   82MOL   H17624638   3.369   5.902   3.217  0.6638 -1.0486  0.5438
   82MOL   H17724639   3.612   5.876   2.850 -0.6574 -0.5630  0.5971
   82MOL   H17824640   3.633   5.713   2.906  0.4085  0.4115  1.3334
   82MOL   H17924641   3.414   5.832   2.763  2.0515  2.0548  1.0659
   82MOL   H18024642   3.377   5.680   2.845  0.2007  1.1482 -0.2568
   82MOL   H18124643   3.499   5.689   2.715 -3.4212 -0.0246 -1.5074
   82MOL   C18224644   3.475   6.071   3.291  0.9514  0.0559 -0.1665
   82MOL   C18324645   3.342   6.151   3.284  0.4472  0.2226  0.1758
   82MOL   C18424646   3.224   6.093   3.364  0.1312  0.1602  0.2801
   82MOL   O18524647   3.113   6.070   3.317 -0.1976  0.2024  0.6561
   82MOL   O18624648   3.263   6.082   3.494  0.4773  0.5999 -0.3323
   82MOL   C18724649   3.162   6.071   3.595 -0.3538  0.1197 -0.2546
   82MOL   C18824650   3.114   5.919   3.615  0.6207 -0.1271  0.0110
   82MOL   H18924651   3.478   6.067   3.400 -3.4971 -0.2373  0.0178
   82MOL   H19024652   3.562   6.130   3.263  0.2791  0.2726 -1.8433
   82MOL   H19124653   3.361   6.244   3.338  0.0243 -0.2313  1.1197
   82MOL   H19224654   3.216   6.099   3.686  0.2000 -1.8717  0.0326
   82MOL   H19324655   3.084   6.143   3.571 -0.1612  0.5244  0.2940
   82MOL   H19424656   3.192   5.858   3.660  0.0777  0.0368  1.1923
   82MOL   H19524657   3.085   5.869   3.522  3.1209 -2.4781  0.4158
   82MOL   H19624658   3.025   5.913   3.678  0.1399 -0.4702 -0.6846
   82MOL   C19724659   3.312   6.185   3.136  0.2090 -0.0690  0.1916
   82MOL   C19824660   3.411   6.279   3.064  0.1711  0.1123 -0.3451
   82MOL   C19924661   3.402   6.427   3.116  0.7640  0.5805  0.2455
   82MOL   O20024662   3.316   6.503   3.070 -0.2127 -0.2365  0.0328
   82MOL   O20124663   3.503   6.459   3.201  0.2049  0.6071  0.0359
   82MOL   C20224664   3.497   6.576   3.273 -0.7545 -0.2386 -0.9704
   82MOL   C20324665   3.612   6.669   3.235  0.8852  1.1327  0.5101
   82MOL   H20424666   3.302   6.089   3.084 -2.7861  0.7898 -0.9463
   82MOL   H20524667   3.215   6.232   3.122 -0.3240 -1.5930 -1.4819
   82MOL   H20624668   3.508   6.231   3.082  0.0061  0.5459  1.8225
   82MOL   H20724669   3.399   6.624   3.269 -0.3032  0.8074  0.0632
   82MOL   H20824670   3.501   6.544   3.378 -1.3500  1.8074 -0.3062
   82MOL   H20924671   3.605   6.768   3.281 -0.3502  0.3283  2.1353
   82MOL   H21024672   3.602   6.674   3.127 -1.4557 -1.1566  0.5711
   82MOL   H21124673   3.706   6.630   3.273  0.7331 -0.7051 -0.9415
   82MOL   C21224674   3.398   6.258   2.907 -0.5171 -0.7468  0.5057
   82MOL   C21324675   3.525   6.306   2.825  0.7522 -0.2197 -0.0497
   82MOL   C21424676   3.537   6.462   2.814  0.0321  0.2684 -0.6526
   82MOL   O21524677   3.623   6.522   2.877  0.1285 -0.4192 -0.1533
   82MOL   O21624678   3.445   6.528   2.749  0.0119 -0.4473  0.6075
   82MOL   C21724679   3.422   6.668   2.763 -0.0942  0.3749 -0.5555
   82MOL   C21824680   3.509   6.762   2.670  0.4997  0.1078  0.5090
   82MOL   H21924681   3.384   6.151   2.892  0.7259 -0.7889 -0.4765
   82MOL   H22024682   3.308   6.309   2.872 -0.8532 -2.2958 -0.9237
   82MOL   H22124683   3.613   6.275   2.882  0.5346 -1.2243 -0.2644
   82MOL   H22224684   3.319   6.677   2.728 -0.6935 -1.9650  0.5099
   82MOL   H22324685   3.432   6.698   2.867 -0.1411  1.1767 -0.7768
   82MOL   H22424686   3.498   6.730   2.566 -1.6109  1.2067  0.3621
   82MOL   H22524687   3.615   6.749   2.692  1.2428  0.0337 -2.7866
   82MOL   H22624688   3.489   6.867   2.687 -0.7677  0.0221 -0.3264
   82MOL   C22724689   3.535   6.244   2.683 -0.7159 -0.0352 -0.3786
   82MOL   C22824690   3.670   6.270   2.602  0.3808  0.0996 -0.2308
   82MOL   C22924691   3.639   6.235   2.455  0.5984 -1.0787  0.3013
   82MOL   O23024692   3.623   6.324   2.370  0.2110  0.2222 -0.3628
   82MOL   O23124693   3.636   6.101   2.436  0.7320 -0.2786  0.0562
   82MOL   C23224694   3.623   6.064   2.300  0.1213  0.0437 -0.0284
   82MOL   C23324695   3.579   5.920   2.305 -0.4752 -0.0034  0.6517
   82MOL   H23424696   3.545   6.136   2.697  0.1074  0.3911  2.6386
   82MOL   H23524697   3.447   6.253   2.618  1.3127 -1.1587 -3.3661
   82MOL   H23624698   3.680   6.379   2.607  0.1950  0.0632  1.1637
   82MOL   H23724699   3.552   6.121   2.240  0.3725  0.7930  0.3881
   82MOL   H23824700   3.717   6.065   2.245 -0.5112  1.2243 -1.0962
   82MOL   H23924701   3.651   5.856   2.354  0.7337  1.8764  1.3757
   82MOL   H24024702   3.564   5.875   2.207 -0.2972 -2.0412  1.5412
   82MOL   H24124703   3.479   5.905   2.345 -1.4440 -2.5581 -2.4746
   82MOL   C24224704   3.801   6.204   2.655  0.5624  0.3060 -0.3192
   82MOL   C24324705   3.938   6.271   2.618  0.2223  0.0664  0.1134
   82MOL   C24424706   3.948   6.416   2.670 -1.1705 -0.3391 -0.2411
   82MOL   O24524707   3.962   6.515   2.596 -0.2291  0.1035  0.4358
   82MOL   O24624708   3.956   6.408   2.804  0.4394 -0.0179  0.4030
   82MOL   C24724709   3.961   6.537   2.879 -0.0773  0.8031  0.3283
   82MOL   C24824710   4.108   6.586   2.893  0.2307  0.5296  0.3817
   82MOL   H24924711   3.783   6.204   2.763 -2.4488 -1.6062 -0.7606
   82MOL   H25024712   3.800   6.098   2.631 -1.8343 -0.1574  1.6437
   82MOL   H25124713   4.010   6.216   2.678 -1.5321 -0.2918  1.9548
   82MOL   H25224714   3.903   6.617   2.834  0.6773  1.1471 -0.0529
   82MOL   H25324715   3.930   6.535   2.983 -0.2260 -2.8923  0.2965
   82MOL   H25424716   4.149   6.604   2.793  0.6542  1.6349  0.7536
   82MOL   H25524717   4.174   6.509   2.933 -1.8944 -1.3435  0.3894
   82MOL   H25624718   4.125   6.685   2.934  1.4715  0.5172 -0.0761
   82MOL   C25724719   3.967   6.258   2.464 -0.0996  0.4449  0.4440
   82MOL   C25824720   4.112   6.306   2.433 -0.2690  0.0942 -0.1174
   82MOL   C25924721   4.144   6.295   2.282 -0.1762 -0.4631 -0.3693
   82MOL   O26024722   4.066   6.228   2.211 -0.2201 -0.3972 -0.2779
   82MOL   O26124723   4.265   6.361   2.253 -0.4763 -0.4716 -0.4129
   82MOL   C26224724   4.326   6.370   2.126  0.0653 -0.3486 -0.6009
   82MOL   C26324725   4.478   6.386   2.156 -0.8789 -0.0879 -0.0718
   82MOL   H26424726   3.958   6.152   2.444 -3.2552  0.8811 -0.5546
   82MOL   H26524727   3.890   6.308   2.406 -1.0008 -1.6373 -0.1835
   82MOL   H26624728   4.115   6.413   2.450  2.8327  0.4500 -2.4736
   82MOL   H26724729   4.318   6.277   2.070 -2.5922  0.1727 -1.1476
   82MOL   H26824730   4.284   6.454   2.070 -1.8579 -0.1863  1.0371
   82MOL   H26924731   4.536   6.368   2.065 -4.0078 -1.5343 -1.8788
   82MOL   H27024732   4.502   6.306   2.225 -1.5416 -0.4996 -0.3125
   82MOL   H27124733   4.511   6.475   2.210  0.6232 -0.9444  0.4503
   82MOL   C27224734   4.220   6.237   2.521 -0.1095  1.0409  0.7821
   82MOL   C27324735   4.262   6.297   2.654  0.1377  0.4163  0.4156
   82MOL   C27424736   4.344   6.424   2.633 -0.4974  0.0539 -0.0229
   82MOL   O27524737   4.360   6.479   2.525  0.3754 -0.2564 -0.1597
   82MOL   O27624738   4.398   6.466   2.742 -0.2692  0.7742  0.1359
   82MOL   C27724739   4.477   6.584   2.739 -0.1259 -0.2591 -1.0169
   82MOL   C27824740   4.615   6.571   2.676  0.4878  0.1944 -0.5997
   82MOL   H27924741   4.185   6.136   2.545 -1.7747  1.3241 -0.3156
   82MOL   H28024742   4.316   6.225   2.471 -0.6789  1.1729 -0.3794
   82MOL   H28124743   4.177   6.322   2.717 -0.8469 -3.4964  0.8119
   82MOL   H28224744   4.425   6.665   2.688 -0.5993 -0.0666 -0.2408
   82MOL   H28324745   4.479   6.619   2.843  0.6265  2.0918 -1.7784
   82MOL   H28424746   4.668   6.477   2.691  0.3866  0.2853  0.3295
   82MOL   H28524747   4.690   6.641   2.712 -0.1795  0.8152 -0.4138
   82MOL   H28624748   4.610   6.574   2.567 -0.1147 -1.0023 -0.6268
   82MOL   C28724749   4.354   6.190   2.729 -0.0149 -0.2644  0.1547
   82MOL   C28824750   4.303   6.049   2.756 -0.5262  0.3525 -0.1362
   82MOL   C28924751   4.201   6.037   2.864  0.6155 -0.0756  0.1581
   82MOL   O29024752   4.218   6.067   2.979 -0.5092 -0.1806 -0.3859
   82MOL   O29124753   4.080   6.002   2.817  0.1930  0.2082  0.2244
   82MOL   C29224754   3.961   5.987   2.904  0.4224 -0.6445 -0.0027
   82MOL   C29324755   3.943   5.852   2.975 -0.6259 -0.3408 -0.4422
   82MOL   H29424756   4.451   6.177   2.680 -0.0220 -1.0274  0.3260
   82MOL   H29524757   4.381   6.239   2.822  0.8075  0.6925 -0.5738
   82MOL   H29624758   4.260   5.993   2.672 -0.7705  0.2440  0.0598
   82MOL   H29724759   3.951   6.080   2.959  1.2876 -0.7684  0.3825
   82MOL   H29824760   3.885   5.997   2.827  2.3585 -0.2635 -1.9119
   82MOL   H29924761   4.010   5.852   3.060 -0.6861  4.6848 -0.2415
   82MOL   H30024762   3.956   5.766   2.910 -1.9965  1.2685 -2.9371
   82MOL   H30124763   3.842   5.845   3.017 -0.2135  1.4908  0.9399
   82MOL   H30224764   4.394   5.996   2.786 -1.3046 -1.9014 -1.5815
   83MOL     C124765   5.368   7.340   6.369  0.3346  0.2643  0.3464
   83MOL     C224766   5.379   7.219   6.450  0.1108  1.0269 -0.0686
   83MOL     C324767   5.257   7.161   6.514 -0.9047 -0.2672 -0.2012
   83MOL     O424768   5.232   7.047   6.520  0.4587 -0.0930  0.1077
   83MOL     O524769   5.175   7.255   6.570  0.0002 -0.0223 -0.4849
   83MOL     C624770   5.048   7.216   6.618 -0.4155 -0.5634  0.0465
   83MOL     C724771   4.951   7.228   6.498 -0.1391  0.3536 -0.1662
   83MOL     H824772   5.445   7.355   6.294  1.4746  0.9257  1.6202
   83MOL     H924773   5.378   7.425   6.437  2.9871  1.6456 -1.7137
   83MOL    H1024774   5.377   7.137   6.379  0.5371 -0.4248  1.5817
   83MOL    H1124775   5.055   7.114   6.655  0.5014 -0.4683  0.1461
   83MOL    H1224776   5.025   7.286   6.699  0.2830 -1.4008  0.9752
   83MOL    H1324777   4.852   7.183   6.504  0.0685 -0.1494 -0.5205
   83MOL    H1424778   5.003   7.191   6.410  0.5053  0.2605  0.2523
   83MOL    H1524779   4.932   7.334   6.480 -0.1556 -0.1441 -3.4444
   83MOL    H1624780   5.272   7.351   6.319 -0.5065 -2.1396  1.3632
   83MOL    C1724781   5.500   7.209   6.549 -0.4320  0.7723 -0.1647
   83MOL    C1824782   5.512   7.330   6.641  0.4194 -0.2778 -0.2781
   83MOL    C1924783   5.612   7.426   6.575  0.8274  0.0599 -0.9567
   83MOL    O2024784   5.664   7.412   6.465 -0.0026  0.1250 -0.5597
   83MOL    O2124785   5.612   7.534   6.642 -0.2410  0.1046 -0.0499
   83MOL    C2224786   5.659   7.656   6.592 -0.1923 -0.3375 -0.1092
   83MOL    C2324787   5.806   7.676   6.607  0.5194  0.1841  0.4052
   83MOL    H2424788   5.483   7.122   6.612 -0.1916  2.0741  1.7670
   83MOL    H2524789   5.592   7.189   6.493  0.4065 -1.4918  1.9464
   83MOL    H2624790   5.429   7.401   6.646  1.9453  1.6467 -1.2999
   83MOL    H2724791   5.626   7.653   6.488 -2.5552  0.8028  0.5917
   83MOL    H2824792   5.607   7.734   6.646 -0.6561  0.6734 -1.9821
   83MOL    H2924793   5.866   7.609   6.546 -0.1994  0.5483 -0.7345
   83MOL    H3024794   5.842   7.685   6.710 -1.2354  1.0867  0.9672
   83MOL    H3124795   5.829   7.780   6.584 -0.6095 -0.0990 -2.1662
   83MOL    C3224796   5.564   7.302   6.795  0.9491 -0.6896 -0.3126
   83MOL    C3324797   5.453   7.268   6.904 -0.3070  0.5997 -0.5995
   83MOL    C3424798   5.392   7.129   6.886 -0.3885 -0.1680 -0.0259
   83MOL    O3524799   5.287   7.102   6.828  0.2894 -0.0122  0.6220
   83MOL    O3624800   5.477   7.038   6.943  0.6679 -0.6317  0.0918
   83MOL    C3724801   5.434   6.902   6.958 -0.0282  0.4002 -0.6662
   83MOL    C3824802   5.463   6.822   6.834  0.4040  0.3171  0.3308
   83MOL    H3924803   5.640   7.225   6.792  3.5402  1.7233  0.6778
   83MOL    H4024804   5.619   7.386   6.837 -0.3874  0.9623 -1.7823
   83MOL    H4124805   5.498   7.256   7.002  0.1735 -0.6886 -0.9642
   83MOL    H4224806   5.490   6.855   7.038  1.4919  0.6665 -1.5599
   83MOL    H4324807   5.327   6.910   6.977 -0.1394  0.9722 -1.5180
   83MOL    H4424808   5.439   6.876   6.743 -2.1861  0.2148  0.9310
   83MOL    H4524809   5.417   6.724   6.823  1.9585 -0.4059  0.0030
   83MOL    H4624810   5.572   6.819   6.830  0.3832  0.5574 -0.4325
   83MOL    C4724811   5.337   7.373   6.919  0.1489  0.3613 -0.2166
   83MOL    C4824812   5.379   7.511   6.983  0.7092  0.1406  0.3667
   83MOL    C4924813   5.465   7.491   7.109  0.8337  0.7626  0.0119
   83MOL    O5024814   5.589   7.491   7.092  0.1728  0.6542 -0.3431
   83MOL    O5124815   5.395   7.477   7.220 -0.4080  0.2285  0.2200
   83MOL    C5224816   5.464   7.475   7.348  0.3794  0.1043  0.2873
   83MOL    C5324817   5.356   7.494   7.457  0.2910 -0.3356  0.2509
   83MOL    H5424818   5.290   7.380   6.821  0.2553 -2.3276 -0.5054
   83MOL    H5524819   5.270   7.321   6.987  1.3105 -0.8404  0.0324
   83MOL    H5624820   5.449   7.551   6.910 -1.0662  0.0277 -1.4349
   83MOL    H5724821   5.514   7.382   7.373  0.2425  0.2042  0.9370
   83MOL    H5824822   5.539   7.553   7.345  1.0680 -0.5843 -0.4117
   83MOL    H5924823   5.397   7.535   7.549 -1.0448 -0.4182  0.9027
   83MOL    H6024824   5.316   7.398   7.492  2.0440 -0.5184  1.8084
   83MOL    H6124825   5.276   7.563   7.428  0.9820  0.0955 -0.6290
   83MOL    C6224826   5.265   7.612   7.003 -0.1288 -0.4050  0.6637
   83MOL    C6324827   5.192   7.670   6.882 -0.1047 -0.8407 -0.2611
   83MOL    C6424828   5.287   7.748   6.792  0.5318  0.1705  0.0101
   83MOL    O6524829   5.407   7.760   6.816 -0.0426 -0.0438 -0.1764
   83MOL    O6624830   5.218   7.797   6.680 -0.4215 -0.3846 -0.0488
   83MOL    C6724831   5.278   7.880   6.581  0.0585 -0.1141 -0.3247
   83MOL    C6824832   5.343   7.794   6.475 -0.8936 -0.0500 -0.1911
   83MOL    H6924833   5.191   7.563   7.067 -0.7113 -1.5515 -0.8574
   83MOL    H7024834   5.295   7.692   7.071  1.1390  0.4998 -0.9454
   83MOL    H7124835   5.148   7.599   6.812  2.9955 -0.6759 -2.4908
   83MOL    H7224836   5.211   0.046   6.537  0.9344  0.6798 -0.3435
   83MOL    H7324837   5.356   0.015   6.644 -0.7360 -0.1632  0.6999
   83MOL    H7424838   5.410   7.716   6.513  0.1568 -0.5731 -3.0065
   83MOL    H7524839   5.391   7.847   6.393 -0.6208 -0.4940 -0.3205
   83MOL    H7624840   5.266   7.736   6.425 -0.8548 -0.6701  0.4582
   83MOL    C7724841   5.076   7.773   6.920 -0.7217 -0.3664  0.3881
   83MOL    C7824842   4.949   7.700   6.967  0.2616  0.0432  0.6430
   83MOL    C7924843   4.875   7.633   6.852  0.5190  0.3040  0.5625
   83MOL    O8024844   4.880   7.514   6.834  0.4832 -0.2273 -0.6781
   83MOL    O8124845   4.811   7.725   6.782 -0.7265 -0.1087  0.1101
   83MOL    C8224846   4.715   7.684   6.695  0.5993 -0.1626 -0.3676
   83MOL    C8324847   4.629   7.791   6.634 -0.1683  0.0113  0.3708
   83MOL    H8424848   5.118   7.831   7.002 -2.5915  1.2788  0.2244
   83MOL    H8524849   5.050   7.846   6.844 -0.5653 -2.6293 -1.8995
   83MOL    H8624850   4.980   7.625   7.039 -0.2557  0.1455  0.9814
   83MOL    H8724851   4.761   7.627   6.614  0.6271  2.1962 -2.0625
   83MOL    H8824852   4.643   7.624   6.751 -1.5166  0.2968 -2.5145
   83MOL    H8924853   4.686   7.850   6.562  0.8266 -0.1685  1.0023
   83MOL    H9024854   4.601   7.857   6.715  0.3227  0.3200  0.2983
   83MOL    H9124855   4.540   7.750   6.586  1.0102  1.0310 -2.8868
   83MOL    C9224856   4.865   7.806   7.048 -0.1601  0.2935  0.1536
   83MOL    C9324857   4.927   7.853   7.190  0.7483  0.6929 -0.0979
   83MOL    C9424858   4.938   7.749   7.296 -0.2174 -0.5537  0.5899
   83MOL    O9524859   5.048   7.722   7.350  0.7171 -0.2762 -0.1243
   83MOL    O9624860   4.829   7.674   7.316 -0.2638  0.0212 -0.6132
   83MOL    C9724861   4.832   7.548   7.388  0.0022 -0.2519  0.1359
   83MOL    C9824862   4.860   7.443   7.283 -0.4779  0.8836  1.4289
   83MOL    H9924863   4.863   7.897   6.989  0.9668  0.3888  0.2591
   83MOL   H10024864   4.766   7.762   7.066  0.6482 -1.5931  0.1598
   83MOL   H10124865   5.033   7.858   7.164  0.2009  2.5205 -2.0520
   83MOL   H10224866   4.915   7.546   7.459  1.6734  0.6343 -1.7367
   83MOL   H10324867   4.748   7.522   7.452 -0.8676  2.6304  0.2300
   83MOL   H10424868   4.835   7.343   7.319  1.1048 -0.7129 -1.6171
   83MOL   H10524869   4.968   7.446   7.266 -0.6776  2.0838  0.3580
   83MOL   H10624870   4.808   7.461   7.189  0.8781  0.7044  0.6176
   83MOL   C10724871   4.890   0.084   7.251  0.6519  0.6738  0.3290
   83MOL   C10824872   4.750   0.102   7.313 -0.0662  0.3550 -0.0964
   83MOL   C10924873   4.630   0.085   7.216 -0.4816 -0.1679 -0.1135
   83MOL   O11024874   4.616   0.174   7.126 -0.0476  0.2224 -0.2448
   83MOL   O11124875   4.555   7.886   7.243  0.9779 -0.1918  0.1697
   83MOL   C11224876   4.437   7.868   7.170 -0.0510  0.6514  0.3145
   83MOL   C11324877   4.466   7.784   7.046  0.2154 -0.3600  0.0079
   83MOL   H11424878   4.974   0.114   7.314  0.5308  2.0378 -0.1339
   83MOL   H11524879   4.890   0.149   7.163 -0.8080 -0.0656 -0.2125
   83MOL   H11624880   4.742   0.018   7.382  0.0565  0.9056  0.5911
   83MOL   H11724881   4.374   7.809   7.236  3.4479 -1.5206  1.8181
   83MOL   H11824882   4.387   0.051   7.138  0.0477  0.8464  0.7132
   83MOL   H11924883   4.546   7.826   6.986 -1.1766 -1.5979 -2.7786
   83MOL   H12024884   4.378   7.757   6.987  0.3369  0.0098 -0.3472
   83MOL   H12124885   4.509   7.692   7.085 -0.5596 -0.9684 -0.5535
   83MOL   C12224886   4.743   0.236   7.391 -0.0448  0.2745  0.2295
   83MOL   C12324887   4.631   0.238   7.503 -0.2676  0.2820 -0.2855
   83MOL   C12424888   4.509   0.299   7.438  0.6825 -0.1566  0.3444
   83MOL   O12524889   4.414   0.218   7.414 -0.1620 -0.3052  0.5863
   83MOL   O12624890   4.510   0.434   7.422 -0.0135 -0.3146 -0.1036
   83MOL   C12724891   4.408   0.498   7.351 -0.0725 -0.3453 -0.4975
   83MOL   C12824892   4.411   0.642   7.401  0.1658 -0.3300 -0.0290
   83MOL   H12924893   4.837   0.262   7.439  0.7265 -0.3615 -0.9078
   83MOL   H13024894   4.724   0.319   7.323 -0.2209 -0.9924 -1.2946
   83MOL   H13124895   4.595   0.140   7.536 -0.2843  0.4274  0.1321
   83MOL   H13224896   4.442   0.502   7.248  0.5235 -3.6083 -0.4549
   83MOL   H13324897   4.311   0.453   7.373  1.4018 -1.3219  4.8074
   83MOL   H13424898   4.344   0.703   7.340 -0.6927  1.5051  2.7005
   83MOL   H13524899   4.509   0.688   7.389  0.2596 -0.7127 -0.8164
   83MOL   H13624900   4.381   0.646   7.505  0.8414 -1.0410  0.1953
   83MOL   C13724901   4.677   0.305   7.637  0.2316 -0.2986  0.1170
   83MOL   C13824902   4.564   0.307   7.750  0.1438  0.8977  0.0909
   83MOL   C13924903   4.511   0.455   7.765 -0.0573  0.2394 -0.4344
   83MOL   O14024904   4.394   0.496   7.744 -0.0075 -0.3236 -0.6611
   83MOL   O14124905   4.604   0.536   7.830  0.2553  0.0191 -0.1039
   83MOL   C14224906   4.570   0.669   7.875 -0.2423 -0.1699 -0.1075
   83MOL   C14324907   4.678   0.756   0.045  0.2446 -0.1586 -1.0705
   83MOL   H14424908   4.753   0.238   7.677  0.2644 -0.4759 -0.2442
   83MOL   H14524909   4.723   0.403   7.627  2.3855 -1.1927  1.0559
   83MOL   H14624910   4.477   0.256   7.709 -0.6274  0.8154  1.8111
   83MOL   H14724911   4.542   0.723   7.785  0.6445  0.6788  0.1134
   83MOL   H14824912   4.486   0.665   0.036 -0.5497 -1.0087 -0.5291
   83MOL   H14924913   4.776   0.757   7.904  1.5147 -1.3421  1.3182
   83MOL   H15024914   4.696   0.719   0.146  0.4600  0.8093 -0.7520
   83MOL   H15124915   4.642   0.856   0.069  0.7118 -0.7546  2.4155
   83MOL   C15224916   4.604   0.250   7.881  0.9248  0.6551 -0.4225
   83MOL   C15324917   4.627   0.091   7.885 -0.4607  0.0900  1.0098
   83MOL   C15424918   4.502   0.010   7.843  0.5117  0.1015  0.0903
   83MOL   O15524919   4.413   7.887   0.018 -0.0398 -0.1727 -0.1524
   83MOL   O15624920   4.499   7.888   7.715 -0.1238 -0.1578  0.3813
   83MOL   C15724921   4.382   7.818   7.669  0.3767 -0.0208 -0.4211
   83MOL   C15824922   4.411   7.780   7.524 -0.8804  0.0913  0.3571
   83MOL   H15924923   4.700   0.295   7.906  1.2960 -0.3346 -0.0683
   83MOL   H16024924   4.538   0.284   0.053 -0.1222 -0.0161 -0.9779
   83MOL   H16124925   4.700   0.065   7.808 -2.5305 -1.2009 -0.5691
   83MOL   H16224926   4.372   7.732   7.736 -0.0879  1.4971  1.5087
   83MOL   H16324927   4.301   7.890   7.682  0.8495  0.6231 -0.9934
   83MOL   H16424928   4.442   7.866   7.464 -1.0258 -1.0974 -1.4326
   83MOL   H16524929   4.326   7.727   7.482 -1.6151  1.5450 -0.0287
   83MOL   H16624930   4.494   7.710   7.518 -0.9592  0.1214 -1.2345
   83MOL   C16724931   4.680   0.053   0.117  0.2155  0.6121 -0.0320
   83MOL   C16824932   4.831   0.090   0.128  0.8372 -0.3020  0.2097
   83MOL   C16924933   4.915   7.898   0.048 -0.0158  0.7645 -0.5819
   83MOL   O17024934   4.961   7.804   0.111 -0.6375  0.1928  0.1620
   83MOL   O17124935   4.916   0.004   7.825  0.0099 -0.2168  0.3334
   83MOL   C17224936   4.977   7.809   7.747  0.4789  0.6784 -0.2170
   83MOL   C17324937   5.117   7.843   7.690  0.3877 -0.0303 -0.4600
   83MOL   H17424938   4.633   0.110   0.197  0.2536  0.7337 -0.0960
   83MOL   H17524939   4.664   7.858   0.147  1.7419  0.0533 -1.0602
   83MOL   H17624940   4.860   0.184   0.081  0.0341 -0.7967 -1.3081
   83MOL   H17724941   4.969   7.717   7.804 -2.2962  0.1831 -1.3369
   83MOL   H17824942   4.915   7.800   7.658  1.5491  2.7157 -1.2107
   83MOL   H17924943   5.122   0.040   7.662 -0.5846  0.2806  0.5320
   83MOL   H18024944   5.128   7.785   7.598 -1.6368 -0.7926 -0.2400
   83MOL   H18124945   5.198   7.825   7.760 -1.0720  1.5706  1.6874
   83MOL   C18224946   4.875   0.109   0.281 -0.3462 -0.2025  0.6174
   83MOL   C18324947   4.977   0.220   0.298 -0.0644 -0.1751  0.2193
   83MOL   C18424948   4.910   0.354   0.272  0.0967  0.6614  0.2046
   83MOL   O18524949   4.894   0.410   0.160 -0.2194 -0.1075 -0.4847
   83MOL   O18624950   4.884   0.409   0.384 -0.2747  0.0485 -0.3569
   83MOL   C18724951   4.885   0.555   0.393  0.0127  0.4435  0.1540
   83MOL   C18824952   4.741   0.602   0.431 -0.0742 -0.7058 -0.3148
   83MOL   H18924953   4.788   0.155   0.328  0.6053  0.8049  1.4452
   83MOL   H19024954   4.893   0.012   0.327  0.9402 -0.7762 -1.0426
   83MOL   H19124955   4.995   0.214   0.406 -1.9938  0.6435  0.6175
   83MOL   H19224956   4.953   0.591   0.470  0.9432  0.7795 -0.8059
   83MOL   H19324957   4.895   0.601   0.294  0.3066  2.7083  1.2153
   83MOL   H19424958   4.701   0.550   0.518 -0.8472  2.6381  1.4232
   83MOL   H19524959   4.664   0.586   0.356 -0.5316 -0.2019  0.0386
   83MOL   H19624960   4.749   0.706   0.463 -0.2050 -1.1242  1.1287
   83MOL   C19724961   5.109   0.217   0.227 -0.0730  0.7648 -0.5800
   83MOL   C19824962   5.205   0.103   0.271  0.1234  0.4394  0.1798
   83MOL   C19924963   5.282   0.137   0.401 -0.0206  0.2353  0.0899
   83MOL   O20024964   5.269   0.248   0.458 -0.1455  0.5507  0.3787
   83MOL   O20124965   5.363   0.042   0.440 -0.1438  0.5689 -0.5094
   83MOL   C20224966   5.455   0.057   0.552  0.2808 -0.3871  0.4984
   83MOL   C20324967   5.373   0.038   0.686 -0.0476  0.4128 -0.1459
   83MOL   H20424968   5.079   0.205   0.123  0.4930  1.4367 -0.8253
   83MOL   H20524969   5.157   0.314   0.237  2.0858 -0.3235 -0.0820
   83MOL   H20624970   5.140   0.017   0.288  1.2378 -0.3859  0.3580
   83MOL   H20724971   5.539   7.897   0.542 -0.2626 -0.6549 -2.5071
   83MOL   H20824972   5.511   0.151   0.554 -2.1466  1.0963 -0.0055
   83MOL   H20924973   5.308   7.859   0.690  1.0357 -0.4692 -1.2591
   83MOL   H21024974   5.309   0.127   0.693  1.0187  1.1596  0.2591
   83MOL   H21124975   5.430   0.046   0.778 -0.0893 -0.4585 -0.0469
   83MOL   C21224976   5.296   0.058   0.157 -0.1986  0.5969 -0.8046
   83MOL   C21324977   5.417   0.147   0.114  0.6875 -0.0510  0.8040
   83MOL   C21424978   5.365   0.251   0.013 -0.0948 -0.1929 -0.0596
   83MOL   O21524979   5.299   0.218   7.825 -0.0863  0.1565  0.1089
   83MOL   O21624980   5.401   0.371   0.049  0.1723  0.2152  0.6143
   83MOL   C21724981   5.390   0.481   7.868  0.2479 -0.1547 -0.2354
   83MOL   C21824982   5.510   0.486   7.772  0.9517 -0.5104  0.3830
   83MOL   H21924983   5.326   7.866   0.184 -1.8199 -0.0164 -1.2138
   83MOL   H22024984   5.243   0.038   0.064  0.5973 -0.7166 -0.9734
   83MOL   H22124985   5.450   0.203   0.201  4.1413  2.9592 -2.2707
   83MOL   H22224986   5.295   0.473   7.816  0.7995 -1.2220 -1.1035
   83MOL   H22324987   5.390   0.569   0.024  0.8086  0.6020 -1.2629
   83MOL   H22424988   5.516   0.583   7.722 -0.2602 -0.4568  0.3161
   83MOL   H22524989   5.523   0.406   7.699  1.1875 -1.5373  1.5340
   83MOL   H22624990   5.597   0.479   7.837  1.4373  0.0029 -0.2004
   83MOL   C22724991   5.543   0.074   0.046 -0.3426  0.1319  0.3682
   83MOL   C22824992   5.626   0.003   0.157 -0.3229  0.9199 -0.9871
   83MOL   C22924993   5.722   0.102   0.235 -0.0126 -0.1998  0.0921
   83MOL   O23024994   5.680   0.163   0.330  0.2980 -0.0528 -0.2791
   83MOL   O23124995   5.844   0.116   0.172  0.0128  0.1898 -0.2944
   83MOL   C23224996   5.940   0.194   0.235 -0.0348 -0.6784 -1.4307
   83MOL   C23324997   6.054   0.120   0.304 -0.3507  0.1684  0.3111
   83MOL   H23424998   5.507   0.000   7.882 -2.0036  0.6149  0.6615
   83MOL   H23524999   5.606   0.146   7.903  1.2598 -1.2048  0.4491
   83MOL   H23625000   5.544   7.878   0.220 -1.1083 -2.1339 -3.5022
   83MOL   H23725001   5.997   0.254   0.164 -0.9274  0.3742 -1.2809
   83MOL   H23825002   5.892   0.261   0.307  0.9299 -0.9563 -0.5185
   83MOL   H23925003   6.123   0.181   0.362 -0.4777  0.8561 -0.2537
   83MOL   H24025004   6.117   0.077   0.226  0.4294 -1.6561  1.9001
   83MOL   H24125005   6.013   0.039   0.365  3.8877 -0.9223  1.8555
   83MOL   C24225006   5.707   7.776   0.116 -0.5780  0.2846  0.0084
   83MOL   C24325007   5.621   7.655   0.117  0.2893  0.2276  0.9338
   83MOL   C24425008   5.707   7.548   0.192 -0.4756 -0.0381  0.4527
   83MOL   O24525009   5.781   7.468   0.132  0.3999  0.0681 -0.2896
   83MOL   O24625010   5.691   7.556   0.323  0.3282  0.4123  0.5034
   83MOL   C24725011   5.727   7.460   0.408 -0.7603  0.3588 -0.2334
   83MOL   C24825012   5.701   7.520   0.548  0.2364 -0.3271  1.2939
   83MOL   H24925013   5.747   7.782   0.015  0.6778  2.5850  0.6166
   83MOL   H25025014   5.794   7.761   0.180  0.0277  0.5970 -0.7377
   83MOL   H25125015   5.529   7.676   0.172  0.1404  2.9008 -0.2458
   83MOL   H25225016   5.674   7.366   0.393  0.3536 -0.7031  2.2741
   83MOL   H25325017   5.833   7.436   0.405 -0.6969  0.7528 -1.8134
   83MOL   H25425018   5.740   7.455   0.627  1.4542  0.0207  0.9863
   83MOL   H25525019   5.594   7.539   0.556  0.1388 -0.8388  1.2538
   83MOL   H25625020   5.752   7.614   0.567  2.7704 -0.9416 -1.9332
   83MOL   C25725021   5.584   7.603   7.886  0.2177 -0.0580 -0.2803
   83MOL   C25825022   5.480   7.489   7.876 -0.1849 -0.3972  0.8914
   83MOL   C25925023   5.340   7.525   0.034 -0.6602  0.3075  0.7827
   83MOL   O26025024   5.237   7.552   7.879  0.7938  0.5198  0.3872
   83MOL   O26125025   5.348   7.524   0.168  0.2488 -0.2685  0.2976
   83MOL   C26225026   5.239   7.571   0.244 -0.5805 -0.0151  0.4829
   83MOL   C26325027   5.276   7.598   0.388  0.1514  0.3214 -0.2551
   83MOL   H26425028   5.530   7.689   7.847 -1.1670  0.9112  3.5449
   83MOL   H26525029   5.678   7.576   7.839  1.0977  0.2883  1.2407
   83MOL   H26625030   5.451   7.488   7.771  2.1421 -3.1788  0.2192
   83MOL   H26725031   5.200   7.657   0.191 -0.6089 -1.4292 -1.8398
   83MOL   H26825032   5.158   7.499   0.231 -0.3394 -0.5770  1.9843
   83MOL   H26925033   5.185   7.623   0.442  0.7470 -0.2103  1.0328
   83MOL   H27025034   5.357   7.671   0.387  1.3809 -1.0256 -0.5738
   83MOL   H27125035   5.325   7.513   0.436  0.8656  0.1110 -1.3379
   83MOL   C27225036   5.531   7.341   7.881  0.0721  0.5270 -0.2546
   83MOL   C27325037   5.438   7.218   7.872 -0.1812  1.1438  0.5704
   83MOL   C27425038   5.523   7.094   0.008 -0.3502  0.1233  0.4978
   83MOL   O27525039   5.648   7.104   0.008  0.4757  0.1107 -0.4485
   83MOL   O27625040   5.461   6.976   0.031 -0.1992 -0.0611  0.1144
   83MOL   C27725041   5.526   6.855   0.069 -0.6466  0.3014  0.7707
   83MOL   C27825042   5.456   6.753   7.888 -1.2884 -0.2125 -0.3062
   83MOL   H27925043   5.613   7.333   7.808 -0.5506 -1.5333 -0.7702
   83MOL   H28025044   5.579   7.337   0.070 -2.9304  0.5550  1.2804
   83MOL   H28125045   5.352   7.218   0.032  0.2272 -0.6463  1.1186
   83MOL   H28225046   5.628   6.875   0.038 -1.9654  3.5919 -1.7467
   83MOL   H28325047   5.525   6.834   0.176  1.5741 -2.4279  0.3114
   83MOL   H28425048   5.461   6.649   0.011  0.8647  0.1761  0.7082
   83MOL   H28525049   5.500   6.767   7.789  0.5925  0.1571  0.5534
   83MOL   H28625050   5.351   6.778   7.871 -0.8575 -0.0557 -2.9602
   83MOL   C28725051   5.387   7.202   7.725 -0.3465  0.1698  0.4018
   83MOL   C28825052   5.259   7.114   7.714  0.2422 -0.4703  0.4708
   83MOL   C28925053   5.217   7.065   7.576  0.1639  0.7874 -0.0391
   83MOL   O29025054   5.196   6.945   7.553 -0.2134 -0.1074  0.0916
   83MOL   O29125055   5.185   7.165   7.499  0.1001 -0.1919  0.5242
   83MOL   C29225056   5.145   7.139   7.365  0.0619 -0.5692  0.5262
   83MOL   C29325057   5.265   7.109   7.270  0.4220 -0.3608  0.0121
   83MOL   H29425058   5.367   7.304   7.693  3.4063  0.3046 -1.7335
   83MOL   H29525059   5.475   7.166   7.672 -0.1901  2.3880 -0.9020
   83MOL   H29625060   5.262   7.020   7.770  0.0839 -1.1192 -0.6071
   83MOL   H29725061   5.067   7.063   7.368  0.3208 -0.8788 -0.4522
   83MOL   H29825062   5.103   7.234   7.333 -2.1118 -1.7344 -0.1738
   83MOL   H29925063   5.303   7.008   7.289  1.1362  0.3130  2.3182
   83MOL   H30025064   5.348   7.179   7.266  0.0973 -0.0262 -1.0914
   83MOL   H30125065   5.228   7.116   7.167  0.6689  0.1439 -0.0453
   83MOL   H30225066   5.169   7.150   7.764 -1.0277 -3.1300  0.2123
   84MOL     C125067   7.459   1.323   3.016 -0.2433  0.4167  0.3153
   84MOL     C225068   7.443   1.394   2.873 -1.2121  0.2857 -0.4617
   84MOL     C325069   7.353   1.314   2.773  0.2566  0.5320 -0.9444
   84MOL     O425070   7.387   1.217   2.710 -0.4064  0.1057  0.2894
   84MOL     O525071   7.226   1.373   2.764  0.0235 -0.2126  0.4615
   84MOL     C625072   7.131   1.314   2.683 -0.2573  0.8159 -0.3866
   84MOL     C725073   7.076   1.178   2.732  0.3099  0.2093 -0.5997
   84MOL     H825074   7.494   1.391   3.094  0.1891  1.5249 -0.8272
   84MOL     H925075   7.514   1.230   3.025  0.7863  0.8108 -1.6551
   84MOL    H1025076   7.390   1.486   2.895 -1.6512  0.2321 -1.2537
   84MOL    H1125077   7.046   1.382   2.676 -1.1999 -0.4740 -1.6716
   84MOL    H1225078   7.176   1.295   2.585 -1.5029  1.7683 -1.1705
   84MOL    H1325079   7.048   1.181   2.838 -3.9514 -3.7164 -1.4347
   84MOL    H1425080   7.145   1.093   2.728 -0.6972 -0.6256 -0.4264
   84MOL    H1525081   6.982   1.156   2.682  0.0801 -1.6076  0.5444
   84MOL    H1625082   7.360   1.306   3.058 -1.3405  0.3213 -2.1928
   84MOL    C1725083   7.576   1.432   2.805 -0.0180  0.7229 -0.0881
   84MOL    C1825084   7.581   1.562   2.711 -0.2967  0.5287 -0.3406
   84MOL    C1925085   7.491   1.549   2.586 -0.1533 -0.6252 -0.6434
   84MOL    O2025086   7.412   1.641   2.560  0.4821 -0.0405 -0.2978
   84MOL    O2125087   7.518   1.446   2.504 -0.2288 -0.0773 -0.4262
   84MOL    C2225088   7.473   1.446   2.373  0.2070 -0.2156 -0.8959
   84MOL    C2325089   7.358   1.342   2.343 -1.0243 -0.2658 -0.1635
   84MOL    H2425090   7.655   1.440   2.880 -1.6655 -0.4651  1.8296
   84MOL    H2525091   7.595   1.348   2.739  0.8301  0.6224  0.2762
   84MOL    H2625092   7.552   1.647   2.773 -1.2529  0.5396 -0.7903
   84MOL    H2725093   7.454   1.548   2.339  1.3120 -0.4621 -2.2915
   84MOL    H2825094   7.560   1.416   2.314  0.8999  0.8699 -0.4404
   84MOL    H2925095   7.276   1.365   2.411 -0.4874  0.9824  0.0829
   84MOL    H3025096   7.377   1.236   2.354  0.4461 -0.1224 -1.1940
   84MOL    H3125097   7.316   1.357   2.243  0.7305  0.1093 -0.8681
   84MOL    C3225098   7.724   1.596   2.680 -0.1063  0.6522  0.0060
   84MOL    C3325099   7.744   1.721   2.589  0.5169 -0.4795 -0.7004
   84MOL    C3425100   7.889   1.717   2.537  0.0334 -0.4449 -0.0609
   84MOL    O3525101   0.079   1.719   2.614 -0.3320  0.5595 -0.3462
   84MOL    O3625102   7.890   1.731   2.402  0.0454  0.2499 -1.0354
   84MOL    C3725103   0.105   1.760   2.335 -0.5495  0.6733 -0.3499
   84MOL    C3825104   0.095   1.896   2.271  0.1382 -0.2117 -0.2542
   84MOL    H3925105   7.785   1.599   2.770  1.1906  1.6383 -0.8806
   84MOL    H4025106   7.759   1.512   2.620 -0.5985  1.3035 -1.2158
   84MOL    H4125107   7.686   1.705   2.497 -1.7639 -0.2373  0.6511
   84MOL    H4225108   0.193   1.757   2.398 -0.2364  2.2289 -0.6935
   84MOL    H4325109   0.127   1.692   2.252 -0.0246  0.6366 -0.1795
   84MOL    H4425110   0.178   1.918   2.203  1.0341 -0.5752  0.7091
   84MOL    H4525111   0.095   1.966   2.355  0.8133  2.0277 -2.0618
   84MOL    H4625112   7.907   1.916   2.223  0.2633  1.7987  0.2947
   84MOL    C4725113   7.720   1.856   2.672 -0.1938  0.0224  0.1686
   84MOL    C4825114   7.601   1.927   2.601  0.2981 -0.4043  0.0193
   84MOL    C4925115   7.635   1.966   2.456 -0.4064  0.0141  0.3461
   84MOL    O5025116   7.699   2.063   2.424  0.1385  0.1986  0.3973
   84MOL    O5125117   7.593   1.874   2.370  0.0746  0.0882 -0.5632
   84MOL    C5225118   7.626   1.892   2.229 -0.2200 -0.3876 -0.5895
   84MOL    C5325119   7.514   1.889   2.132 -0.3321 -1.3735 -0.2434
   84MOL    H5425120   7.698   1.836   2.776 -0.8661  0.9302  0.2125
   84MOL    H5525121   7.809   1.920   2.670 -1.3655  1.6924  0.0387
   84MOL    H5625122   7.519   1.856   2.598  0.0522 -0.1217 -0.0124
   84MOL    H5725123   7.684   1.982   2.209  1.9536 -1.4366  0.8634
   84MOL    H5825124   7.694   1.813   2.198  0.8070 -0.7176  2.3441
   84MOL    H5925125   7.466   1.791   2.130 -1.7302 -0.7635  1.7283
   84MOL    H6025126   7.557   1.910   2.034  0.8898 -1.9031  0.1712
   84MOL    H6125127   7.438   1.967   2.141  0.1740 -0.8863 -0.2181
   84MOL    C6225128   7.552   2.054   2.674 -0.2098  0.7625  0.1286
   84MOL    C6325129   7.471   2.020   2.800  0.8298 -0.6284  0.1940
   84MOL    C6425130   7.321   2.003   2.768  0.3099 -0.7977  0.0255
   84MOL    O6525131   7.284   1.898   2.738 -0.0472  0.3026 -0.0542
   84MOL    O6625132   7.247   2.116   2.758 -0.2132  0.7363 -0.2491
   84MOL    C6725133   7.108   2.103   2.725  0.0409  0.4749 -0.4099
   84MOL    C6825134   7.074   2.192   2.608 -0.3096  0.2816 -0.5446
   84MOL    H6925135   7.638   2.122   2.683 -0.8359  1.4520  1.0872
   84MOL    H7025136   7.486   2.105   2.605  0.1594  0.2208 -0.6258
   84MOL    H7125137   7.492   1.918   2.830 -2.4388 -1.6664 -0.8336
   84MOL    H7225138   7.069   2.002   2.713  0.6857 -0.0094  1.4397
   84MOL    H7325139   7.061   2.140   2.816  1.3176 -2.7307  1.6054
   84MOL    H7425140   6.972   2.177   2.574  0.0645 -0.7640 -1.2260
   84MOL    H7525141   7.143   2.166   2.528 -1.7588  0.1265 -1.7658
   84MOL    H7625142   7.084   2.297   2.635  1.4964 -0.0967  0.3426
   84MOL    C7725143   7.500   2.112   2.918  0.2394 -0.1256  0.6293
   84MOL    C7825144   7.628   2.073   2.991  0.0935  0.1318 -0.0622
   84MOL    C7925145   7.591   1.959   3.090 -0.6273 -0.1261 -1.1076
   84MOL    O8025146   7.578   1.987   3.211 -0.4510 -1.0552  0.0523
   84MOL    O8125147   7.577   1.842   3.041  0.2746 -0.2037 -0.1411
   84MOL    C8225148   7.547   1.733   3.125  0.5797 -0.5032 -0.3192
   84MOL    C8325149   7.411   1.700   3.084  0.2494  0.5618 -0.2243
   84MOL    H8425150   7.494   2.219   2.897 -1.1884 -0.4100 -0.4424
   84MOL    H8525151   7.418   2.105   2.989  0.2381 -1.7876  0.4722
   84MOL    H8625152   7.704   2.032   2.925  1.3100  0.5086  1.0842
   84MOL    H8725153   7.618   1.652   3.111 -1.0381 -2.2947  1.5122
   84MOL    H8825154   7.556   1.749   3.232  1.9870  0.3592 -0.5584
   84MOL    H8925155   7.373   1.608   3.129 -3.5038  2.2344  0.2529
   84MOL    H9025156   7.413   1.685   2.976  1.4349  1.5145 -0.3305
   84MOL    H9125157   7.341   1.780   3.108 -0.5226 -0.2240  0.1949
   84MOL    C9225158   7.690   2.196   3.064  0.1276  0.3639 -0.1055
   84MOL    C9325159   7.821   2.244   2.988  0.6040 -0.3747 -0.1056
   84MOL    C9425160   0.026   2.136   2.994  0.2825  0.7105  0.1265
   84MOL    O9525161   0.024   2.042   3.071 -0.9046 -0.3257  0.3806
   84MOL    O9625162   0.126   2.158   2.904 -0.2948  0.3378 -0.0403
   84MOL    C9725163   0.233   2.065   2.898 -0.4313 -0.0718  0.2102
   84MOL    C9825164   0.201   1.946   2.805 -0.1855  0.3340  0.3318
   84MOL    H9925165   7.624   2.283   3.071 -1.2442 -0.6727  0.0064
   84MOL   H10025166   7.709   2.178   3.170 -0.7445  0.2666  0.0313
   84MOL   H10125167   7.795   2.257   2.883  0.9886  0.3568 -0.1103
   84MOL   H10225168   0.306   2.121   2.839  0.1355 -0.3003  0.6963
   84MOL   H10325169   0.276   2.040   2.995  0.6012 -2.4035 -0.8213
   84MOL   H10425170   0.280   1.871   2.809 -0.6371 -0.2050 -0.6424
   84MOL   H10525171   0.186   1.990   2.707  0.4227 -0.5821 -0.1749
   84MOL   H10625172   0.117   1.879   2.826  0.2997 -0.7223 -1.0227
   84MOL   C10725173   7.870   2.386   3.016  0.6896  0.2903 -0.1714
   84MOL   C10825174   0.034   2.416   3.146 -0.9008  0.3488  0.0677
   84MOL   C10925175   7.846   2.423   3.267  0.0871 -0.0351 -0.2524
   84MOL   O11025176   7.754   2.500   3.269 -0.0821  0.0443  0.2238
   84MOL   O11125177   7.885   2.349   3.370 -0.6482  0.1898  0.0452
   84MOL   C11225178   7.808   2.337   3.488 -0.0785  0.3270 -0.2638
   84MOL   C11325179   7.829   2.193   3.537 -0.5858 -0.4891 -0.4228
   84MOL   H11425180   0.029   2.426   2.941  2.3019 -0.4076  0.8629
   84MOL   H11525181   7.790   2.461   3.013  0.2316 -0.3009 -4.0359
   84MOL   H11625182   0.099   2.330   3.164 -0.0407  1.2507  1.4249
   84MOL   H11725183   7.851   2.411   3.555 -0.2558 -1.1402  1.5089
   84MOL   H11825184   7.704   2.355   3.462 -0.1213 -0.2234 -0.4798
   84MOL   H11925185   0.025   2.180   3.564 -0.7104 -0.1521  0.2293
   84MOL   H12025186   7.807   2.110   3.470 -1.5764 -0.2232 -0.4379
   84MOL   H12125187   7.773   2.167   3.627  1.0250 -2.1152  0.1301
   84MOL   C12225188   0.132   2.533   3.137  0.3437  0.2218 -0.3217
   84MOL   C12325189   0.216   2.560   3.270 -0.6946 -0.2345  0.2683
   84MOL   C12425190   0.150   2.665   3.360  0.0061 -0.2305  0.4310
   84MOL   O12525191   0.102   2.639   3.471 -0.0728  0.0390  0.3011
   84MOL   O12625192   0.157   2.791   3.314  0.4652 -0.3516  0.0414
   84MOL   C12725193   0.126   2.901   3.400  0.3175 -0.2797  0.1548
   84MOL   C12825194   0.210   3.028   3.369  0.2247 -0.0130  0.0115
   84MOL   H12925195   0.201   2.502   3.058 -1.1500 -2.9860 -0.4854
   84MOL   H13025196   0.081   2.627   3.116 -0.8797 -0.3213  0.1826
   84MOL   H13125197   0.211   2.475   3.339  1.6208 -1.2402 -0.7333
   84MOL   H13225198   0.019   2.918   3.392  0.3302  0.9500  2.1132
   84MOL   H13325199   0.123   2.875   3.506 -0.4904  1.1776  0.5041
   84MOL   H13425200   0.196   3.072   3.270  2.4184 -0.6129 -0.5885
   84MOL   H13525201   0.311   3.028   3.408  0.1120  0.0541  0.3069
   84MOL   H13625202   0.169   3.109   3.430  1.2000 -0.0070  0.6565
   84MOL   C13725203   0.362   2.589   3.250 -0.8275 -0.0340 -0.0688
   84MOL   C13825204   0.453   2.613   3.380  0.5712 -0.2348  0.4123
   84MOL   C13925205   0.581   2.678   3.345 -0.3572 -0.0244  0.4644
   84MOL   O14025206   0.686   2.616   3.349 -0.2462 -0.4871  0.2960
   84MOL   O14125207   0.573   2.806   3.310  0.4492 -0.0864  0.0107
   84MOL   C14225208   0.687   2.882   3.282 -0.5254 -0.1567  0.0261
   84MOL   C14325209   0.642   3.017   3.228  0.1025  0.2848 -0.5363
   84MOL   H14425210   0.407   2.508   3.193 -1.1755 -0.8689  0.8161
   84MOL   H14525211   0.370   2.678   3.188  0.8000  0.8416  1.3329
   84MOL   H14625212   0.398   2.691   3.433 -1.7218  1.1449 -3.7031
   84MOL   H14725213   0.731   2.903   3.380  0.9421 -0.2541 -0.5930
   84MOL   H14825214   0.768   2.840   3.222 -0.9217  0.9006 -1.2576
   84MOL   H14925215   0.602   3.003   3.128  1.0124 -0.1457 -0.8470
   84MOL   H15025216   0.722   3.091   3.229  0.1291  0.2560 -0.4965
   84MOL   H15125217   0.565   3.048   3.299  1.5928  0.3497  1.0754
   84MOL   C15225218   0.465   2.484   3.469 -0.5634 -0.1049 -0.1850
   84MOL   C15325219   0.518   2.514   3.610 -0.4026  0.2786  0.0654
   84MOL   C15425220   0.630   2.418   3.650  0.2095  0.3179 -0.3644
   84MOL   O15525221   0.744   2.455   3.680  0.2206  0.4688  0.3923
   84MOL   O15625222   0.585   2.287   3.654 -0.1063 -0.3797  0.0392
   84MOL   C15725223   0.674   2.175   3.684 -0.1297 -0.7724 -0.0171
   84MOL   C15825224   0.705   2.157   3.842  0.3960  0.0342 -0.3178
   84MOL   H15925225   0.363   2.448   3.484 -0.4660  0.9739  3.5659
   84MOL   H16025226   0.517   2.408   3.412 -1.9685 -1.2253 -0.0058
   84MOL   H16125227   0.574   2.607   3.604 -0.9366  0.7166  1.4577
   84MOL   H16225228   0.619   2.085   3.657 -1.2950  0.3729 -1.4902
   84MOL   H16325229   0.764   2.170   3.623 -0.6614  0.5704 -0.9384
   84MOL   H16425230   0.798   2.209   3.864 -1.1418  3.0863 -0.6645
   84MOL   H16525231   0.714   2.053   3.872  1.0471 -0.0545 -0.7886
   84MOL   H16625232   0.624   2.207   3.895  1.6127 -0.0260  1.6297
   84MOL   C16725233   0.406   2.532   3.711  0.1509 -0.2537 -0.1591
   84MOL   C16825234   0.441   2.596   3.846  0.2238 -0.1107 -0.2466
   84MOL   C16925235   0.539   2.714   3.833  0.3989 -0.2294 -0.2455
   84MOL   O17025236   0.641   2.712   3.904 -0.9868  0.1913 -0.2307
   84MOL   O17125237   0.515   2.805   3.744 -0.3475  0.4820 -0.2781
   84MOL   C17225238   0.599   2.919   3.736 -0.3651 -0.0934  0.0124
   84MOL   C17325239   0.525   3.028   3.647 -0.1142 -0.1174 -0.2547
   84MOL   H17425240   0.321   2.576   3.660  1.1823 -2.3590 -3.8290
   84MOL   H17525241   0.368   2.433   3.733  1.2251 -0.4004  1.1412
   84MOL   H17625242   0.350   2.648   3.875 -1.4271 -1.6402 -2.5630
   84MOL   H17725243   0.620   2.966   3.832  2.4104 -3.3827  1.1312
   84MOL   H17825244   0.697   2.887   3.701  0.8008 -0.4829  3.3727
   84MOL   H17925245   0.418   3.025   3.665 -0.1587  2.3321 -0.0187
   84MOL   H18025246   0.529   3.008   3.540  0.9389  0.4838 -0.3395
   84MOL   H18125247   0.562   3.127   3.672  0.0330  0.6284 -3.2591
   84MOL   C18225248   0.483   2.502   3.966 -0.3102  0.1833 -0.2876
   84MOL   C18325249   0.386   2.387   3.990 -0.9365 -0.3577  0.1789
   84MOL   C18425250   0.248   2.451   4.006  0.4375 -0.1128  0.2119
   84MOL   O18525251   0.161   2.434   3.917 -0.5030 -0.1456  0.2216
   84MOL   O18625252   0.223   2.507   4.129 -0.1830  0.1352 -0.3242
   84MOL   C18725253   0.089   2.512   4.170 -0.0752  0.3807  0.2726
   84MOL   C18825254   0.050   2.651   4.210 -0.4331 -0.3750  1.0889
   84MOL   H18925255   0.577   2.452   3.945  0.1084  1.5207 -1.6848
   84MOL   H19025256   0.488   2.561   4.058 -0.7995 -0.1047 -0.0696
   84MOL   H19125257   0.386   2.332   3.896 -1.5455 -1.4728  0.8172
   84MOL   H19225258   0.019   2.466   4.100 -0.2996  0.4708  0.4345
   84MOL   H19325259   0.071   2.461   4.264  0.1285  2.2792  1.3723
   84MOL   H19425260   0.027   2.716   4.126 -0.3077  0.2719  1.5526
   84MOL   H19525261   0.128   2.715   4.251 -1.6112  0.9642  1.2537
   84MOL   H19625262   7.868   2.671   4.269 -0.9763  0.2261  0.0558
   84MOL   C19725263   0.425   2.280   4.100 -0.1680  0.0582 -0.4576
   84MOL   C19825264   0.403   2.309   4.250  0.2214  0.1723  0.6234
   84MOL   C19925265   0.485   2.432   4.292 -0.8645  0.9089 -0.0649
   84MOL   O20025266   0.606   2.436   4.284  0.3415  0.1822 -0.5372
   84MOL   O20125267   0.409   2.528   4.334 -0.4306 -0.3844 -0.0621
   84MOL   C20225268   0.457   2.650   4.370 -0.6151 -0.0243 -0.6297
   84MOL   C20325269   0.360   2.717   4.466 -0.6771  0.2214  0.0549
   84MOL   H20425270   0.375   2.186   4.078 -0.1095 -0.0761 -0.0195
   84MOL   H20525271   0.529   2.252   4.081  0.3703  2.1498 -0.7213
   84MOL   H20625272   0.299   2.332   4.273  0.4219  2.1238 -0.2578
   84MOL   H20725273   0.555   2.633   4.415 -0.8829 -0.7094 -0.2986
   84MOL   H20825274   0.476   2.710   4.281  1.3752  0.9967  0.4315
   84MOL   H20925275   0.365   2.677   4.567 -3.0442 -0.1952  0.0453
   84MOL   H21025276   0.261   2.697   4.423 -1.2930  1.1829  0.9861
   84MOL   H21125277   0.374   2.825   4.473  2.4190  0.0510 -2.3203
   84MOL   C21225278   0.436   2.183   4.329  0.1650  0.4096 -0.0620
   84MOL   C21325279   0.347   2.056   4.315  0.1095 -0.1973 -0.1176
   84MOL   C21425280   0.194   2.100   4.328  0.0789  0.0905 -0.1846
   84MOL   O21525281   0.117   2.112   4.234 -0.1398  0.0638  0.2313
   84MOL   O21625282   0.167   2.140   4.456 -0.0371 -0.6870 -0.1775
   84MOL   C21725283   0.055   2.228   4.491  0.0281 -0.4008  0.2107
   84MOL   C21825284   0.098   2.370   4.520 -0.3915  0.3877 -0.5653
   84MOL   H21925285   0.538   2.155   4.306 -0.8829 -1.3113 -2.8148
   84MOL   H22025286   0.428   2.216   4.433  2.4258  2.5597 -0.5380
   84MOL   H22125287   0.367   2.020   4.214 -1.6438 -0.2550 -0.4633
   84MOL   H22225288   7.892   2.218   4.408  0.2462  2.3347 -0.3530
   84MOL   H22325289   0.010   2.196   4.585  0.5990  1.1875  1.0322
   84MOL   H22425290   0.120   2.371   4.626 -0.4353  1.1531 -0.5558
   84MOL   H22525291   0.018   2.440   4.494 -1.6896  0.8270  4.2584
   84MOL   H22625292   0.194   2.395   4.474 -0.1994  0.9750  0.1357
   84MOL   C22725293   0.383   1.955   4.424 -0.0431 -0.2617  0.2571
   84MOL   C22825294   0.298   1.821   4.426  0.4922  0.5572 -0.1548
   84MOL   C22925295   0.343   1.718   4.538 -0.4832 -0.0876 -0.1133
   84MOL   O23025296   0.267   1.633   4.576  0.0496  0.8292 -0.0295
   84MOL   O23125297   0.470   1.727   4.579 -0.2797  0.4007 -0.1938
   84MOL   C23225298   0.508   1.645   4.690 -0.2983  0.7633  0.7539
   84MOL   C23325299   0.568   1.509   4.641 -0.3315 -0.2546  0.2997
   84MOL   H23425300   0.490   1.932   4.417 -0.0620 -0.3026  0.0970
   84MOL   H23525301   0.366   2.014   4.514  2.0545  1.7702 -0.6224
   84MOL   H23625302   0.200   1.855   4.458  0.0044 -0.6200 -0.3753
   84MOL   H23725303   0.585   1.697   4.747 -0.1749  0.1019  1.2015
   84MOL   H23825304   0.434   1.616   4.766 -0.2530 -0.3557  0.3727
   84MOL   H23925305   0.488   1.438   4.620  0.6679 -1.1191 -0.6473
   84MOL   H24025306   0.630   1.470   4.722  0.0687 -3.0420 -1.2590
   84MOL   H24125307   0.645   1.518   4.565  0.5119  0.7736  1.2593
   84MOL   C24225308   0.281   1.745   4.289  0.3448  0.1050  0.2401
   84MOL   C24325309   0.396   1.662   4.238 -0.2219 -0.0759 -0.0070
   84MOL   C24425310   0.499   1.761   4.177  0.0344  0.0203  0.4496
   84MOL   O24525311   0.468   1.824   4.078 -0.5423 -0.9117 -0.5349
   84MOL   O24625312   0.609   1.781   4.250  0.3894 -0.9840  0.6190
   84MOL   C24725313   0.698   1.893   4.222  0.0511  0.5174 -0.1018
   84MOL   C24825314   0.839   1.863   4.276  0.7294  0.1240  0.2194
   84MOL   H24925315   0.191   1.683   4.301  0.9812 -0.9612 -0.4165
   84MOL   H25025316   0.236   1.811   4.214  2.3936  3.0430  1.5278
   84MOL   H25125317   0.433   1.604   4.323  2.1475 -1.5775 -1.9950
   84MOL   H25225318   0.700   1.896   4.113 -0.6115  1.0795 -0.1059
   84MOL   H25325319   0.654   1.988   4.254 -2.3127  0.1826 -2.1563
   84MOL   H25425320   0.821   1.848   4.383 -1.0325  3.8520  0.5378
   84MOL   H25525321   0.902   1.951   4.271  0.0974  0.9347  4.3221
   84MOL   H25625322   0.884   1.779   4.223  1.1838 -0.9359  2.2360
   84MOL   C25725323   0.364   1.565   4.127  0.6457  0.3758 -0.1971
   84MOL   C25825324   0.257   1.460   4.161 -0.1739  0.2728  0.4785
   84MOL   C25925325   0.299   1.367   4.272  0.6812 -0.1262  0.3849
   84MOL   O26025326   0.221   1.336   4.363 -0.0433  0.1434 -0.1915
   84MOL   O26125327   0.422   1.321   4.254  1.0747 -0.0453 -0.1480
   84MOL   C26225328   0.479   1.228   4.342  0.0719 -1.0409  0.7840
   84MOL   C26325329   0.521   1.108   4.264 -0.7244  0.1647 -0.1552
   84MOL   H26425330   0.329   1.625   4.044  1.0895  1.6206  0.5074
   84MOL   H26525331   0.455   1.512   4.097 -0.4500 -2.0142  0.5156
   84MOL   H26625332   0.170   1.517   4.193 -1.0780 -1.0489  0.3716
   84MOL   H26725333   0.565   1.278   4.386  0.3207 -0.6478 -0.1333
   84MOL   H26825334   0.409   1.213   4.424 -0.3985 -1.9938  0.2227
   84MOL   H26925335   0.592   1.046   4.319  1.1872  2.6432  0.2839
   84MOL   H27025336   0.579   1.127   4.173  0.9656 -0.0939  0.8474
   84MOL   H27125337   0.432   1.051   4.241 -0.5834  0.6187 -1.9263
   84MOL   C27225338   0.213   1.383   4.025 -0.1797  0.2680  0.3243
   84MOL   C27325339   0.118   1.273   4.037  0.0204  0.2939  0.2214
   84MOL   C27425340   0.090   1.209   3.897  0.0960  0.4176 -0.4176
   84MOL   O27525341   0.123   1.090   3.882 -0.1687 -0.3367 -0.3862
   84MOL   O27625342   0.039   1.288   3.797 -0.3422  0.8091 -0.9377
   84MOL   C27725343   0.018   1.237   3.667  0.0336  0.0212 -0.5821
   84MOL   C27825344   0.120   1.304   3.586 -0.2114  0.2016 -0.1556
   84MOL   H27925345   0.185   1.450   3.944 -0.5659  1.1366  1.1747
   84MOL   H28025346   0.300   1.334   3.982 -2.5979 -2.0047 -2.1957
   84MOL   H28125347   0.161   1.191   4.096 -0.1379 -0.6201 -0.9319
   84MOL   H28225348   0.020   1.129   3.673 -0.8727  0.0606  0.7590
   84MOL   H28325349   7.830   1.270   3.628 -0.3992 -1.7127 -0.9794
   84MOL   H28425350   0.135   1.409   3.611  1.0775  0.5945 -2.5077
   84MOL   H28525351   0.109   1.304   3.478  1.3133 -0.1775 -0.3163
   84MOL   H28625352   0.220   1.271   3.613  0.6019  1.6244 -1.3754
   84MOL   C28725353   7.891   1.302   4.105 -0.0889  0.2286 -0.2998
   84MOL   C28825354   7.793   1.179   4.123 -0.2431 -1.0611  0.4358
   84MOL   C28925355   7.827   1.097   4.246 -0.0517  0.0409  0.1646
   84MOL   O29025356   7.749   1.088   4.341  0.3740 -0.1776 -0.6968
   84MOL   O29125357   0.036   1.032   4.230 -0.2200 -0.1437 -0.0718
   84MOL   C29225358   0.066   0.935   4.325 -0.7251  0.0575  0.0461
   84MOL   C29325359   0.146   1.004   4.434  0.0904  0.5724 -0.5594
   84MOL   H29425360   7.906   1.352   4.201  0.4994  0.4177 -0.4934
   84MOL   H29525361   7.840   1.382   4.052  0.0646  1.9988  2.1611
   84MOL   H29625362   7.692   1.219   4.136 -0.3196 -1.4880  1.1912
   84MOL   H29725363   7.878   0.887   4.346 -0.3006 -0.9365 -0.2207
   84MOL   H29825364   0.123   0.850   4.288 -0.4508  0.0965  0.3789
   84MOL   H29925365   0.094   1.092   4.472  0.0101  0.6372 -0.8246
   84MOL   H30025366   0.246   1.029   4.398 -0.0809  0.6277 -1.0003
   84MOL   H30125367   0.161   0.935   4.517 -1.9192 -0.8617 -1.3489
   84MOL   H30225368   7.793   1.125   4.029  0.6615  0.5641 -0.5202
   85MOL     C125369   2.640   0.931   4.076  0.0078  0.0367 -0.0758
   85MOL     C225370   2.760   0.842   4.081 -0.3092 -0.0527  0.2824
   85MOL     C325371   2.895   0.915   4.036 -0.3573 -0.9508  0.1874
   85MOL     O425372   2.938   1.017   4.092  0.3135  0.0796  0.0329
   85MOL     O525373   2.945   0.862   3.929  0.4401  0.4196 -0.0780
   85MOL     C625374   3.070   0.904   3.893  0.1480  1.0011 -0.0114
   85MOL     C725375   3.118   0.818   3.778  0.0685 -0.3763  0.0627
   85MOL     H825376   2.643   1.010   4.001 -0.0940 -1.2287 -1.4263
   85MOL     H925377   2.638   0.994   4.165  0.7739  0.0287 -0.0476
   85MOL    H1025378   2.785   0.818   4.185 -1.7005  0.4131  0.7356
   85MOL    H1125379   3.059   1.008   3.861  2.1543  0.2277 -3.4932
   85MOL    H1225380   3.134   0.910   3.981 -1.1496  0.8696  0.9546
   85MOL    H1325381   3.070   0.845   3.684  2.0878 -0.1000 -0.9196
   85MOL    H1425382   3.109   0.711   3.798  0.2007 -0.4607 -0.3241
   85MOL    H1525383   3.226   0.828   3.767 -0.1800  3.0706  0.1114
   85MOL    H1625384   2.544   0.881   4.070 -0.1583  0.1771  1.2060
   85MOL    C1725385   2.731   0.697   4.023 -0.5075 -0.3031  0.1249
   85MOL    C1825386   2.831   0.584   4.052  0.1431 -0.1090 -0.1898
   85MOL    C1925387   2.850   0.493   3.924 -0.3846 -0.6520  0.3617
   85MOL    O2025388   2.749   0.440   3.870  0.1833 -0.0499 -0.4688
   85MOL    O2125389   2.979   0.486   3.883  1.0813 -0.0154 -0.2029
   85MOL    C2225390   3.017   0.389   3.781  0.3917  0.1834 -0.4299
   85MOL    C2325391   3.135   0.458   3.710 -0.1149  0.2896  0.3053
   85MOL    H2425392   2.632   0.663   4.053  0.2307 -0.8163  2.0560
   85MOL    H2525393   2.718   0.712   3.916  0.4526 -1.9915 -0.2440
   85MOL    H2625394   2.930   0.615   4.086 -0.1311  2.2263 -1.4334
   85MOL    H2725395   3.041   0.296   3.833  0.7944  0.0875 -0.7822
   85MOL    H2825396   2.932   0.368   3.717 -0.8355 -0.4784  1.3915
   85MOL    H2925397   3.091   0.528   3.639 -0.5890  0.0546  0.3653
   85MOL    H3025398   3.201   0.391   3.655 -0.9731  0.1357 -0.5521
   85MOL    H3125399   3.207   0.506   3.778  2.5128 -1.5856 -1.0642
   85MOL    C3225400   2.786   0.492   4.175  0.6863 -0.2429  0.2563
   85MOL    C3325401   2.756   0.549   4.312  0.0970 -0.6580 -0.6133
   85MOL    C3425402   2.884   0.593   4.382  0.3012 -0.2764  0.0915
   85MOL    O3525403   2.918   0.714   4.373 -0.1203  0.4587  0.1770
   85MOL    O3625404   2.956   0.498   4.437  0.4719 -0.0399  0.5297
   85MOL    C3725405   3.070   0.527   4.514  0.2107 -0.3383  0.2661
   85MOL    C3825406   3.016   0.548   4.656  0.4676  0.0835  0.2122
   85MOL    H3925407   2.689   0.450   4.150  0.9693  0.0944 -1.5372
   85MOL    H4025408   2.848   0.403   4.187  0.6482 -0.3176 -0.0827
   85MOL    H4125409   2.701   0.642   4.300  1.0836  0.1328  0.8900
   85MOL    H4225410   3.148   0.451   4.512 -1.7230 -2.4079  0.2484
   85MOL    H4325411   3.119   0.620   4.486 -0.8120  0.5109  1.2468
   85MOL    H4425412   3.091   0.594   4.720 -1.8194  2.7754  1.0753
   85MOL    H4525413   2.991   0.452   4.702 -1.6617 -0.3712 -1.8206
   85MOL    H4625414   2.922   0.603   4.657  0.5007  0.1384  1.4839
   85MOL    C4725415   2.654   0.469   4.387  0.2371 -0.1943 -0.1906
   85MOL    C4825416   2.612   0.507   4.532  0.6520 -0.8777 -0.2645
   85MOL    C4925417   2.536   0.393   4.593  0.1997 -0.6373 -0.3890
   85MOL    O5025418   2.572   0.345   4.703 -0.0809  0.0361 -0.0905
   85MOL    O5125419   2.425   0.349   4.526  0.6456  0.0995  0.0369
   85MOL    C5225420   2.350   0.240   4.575  0.6160  0.0796  1.0809
   85MOL    C5325421   2.201   0.238   4.545 -0.0801 -0.4610  0.4400
   85MOL    H5425422   2.561   0.459   4.331 -1.5832 -0.7478  2.7658
   85MOL    H5525423   2.695   0.369   4.403  2.2799  0.5355 -0.7714
   85MOL    H5625424   2.703   0.524   4.588  0.5375 -0.8981 -0.0726
   85MOL    H5725425   2.400   0.150   4.538 -0.7799 -1.2135  2.2241
   85MOL    H5825426   2.345   0.230   4.684  1.6469 -1.9560  0.9767
   85MOL    H5925427   2.156   0.159   4.606  1.6671  0.4992  3.0839
   85MOL    H6025428   2.190   0.216   4.439  1.2128  2.1062 -0.2542
   85MOL    H6125429   2.153   0.328   4.582  0.8694  0.0036  0.5734
   85MOL    C6225430   2.531   0.637   4.533 -0.1505  0.0177 -0.4309
   85MOL    C6325431   2.533   0.700   4.674 -0.5365 -0.7776 -0.1020
   85MOL    C6425432   2.413   0.790   4.685 -0.3695  0.6412 -0.4000
   85MOL    O6525433   2.378   0.865   4.598  0.0506 -1.1534  0.2143
   85MOL    O6625434   2.360   0.778   4.809  0.5573 -0.4793  0.3828
   85MOL    C6725435   2.242   0.851   4.838 -0.2494  0.3147  0.1928
   85MOL    C6825436   2.127   0.758   4.812 -0.2084  0.1003 -0.0638
   85MOL    H6925437   2.576   0.704   4.461 -2.6875 -0.0313 -2.1173
   85MOL    H7025438   2.426   0.624   4.504 -0.3172  0.0938  0.1181
   85MOL    H7125439   2.520   0.621   4.748 -1.4497 -2.5809 -2.1313
   85MOL    H7225440   2.247   0.877   4.943  0.1715  1.4133 -0.0934
   85MOL    H7325441   2.237   0.941   4.777 -1.6005  1.4980  2.0115
   85MOL    H7425442   2.132   0.714   4.712 -1.6275  0.4504 -0.2982
   85MOL    H7525443   2.030   0.809   4.813  0.4426  1.4162 -1.7628
   85MOL    H7625444   2.125   0.679   4.887 -2.7788  1.4069  1.3407
   85MOL    C7725445   2.669   0.784   4.701  0.2131 -0.5906 -0.1511
   85MOL    C7825446   2.713   0.805   4.854  0.0475  0.5669  0.1555
   85MOL    C7925447   2.726   0.673   4.933 -0.0067  0.3400  0.2066
   85MOL    O8025448   2.704   0.673   5.054  0.4311  0.3434 -0.3789
   85MOL    O8125449   2.779   0.562   4.870 -0.7122  0.0993 -0.3894
   85MOL    C8225450   2.763   0.439   4.941 -0.0360  0.3466  0.3656
   85MOL    C8325451   2.825   0.316   4.877 -0.0045  0.4369 -0.4056
   85MOL    H8425452   2.758   0.733   4.663  0.6845 -1.5251  2.1592
   85MOL    H8525453   2.669   0.882   4.653  3.1251 -1.5544 -2.2768
   85MOL    H8625454   2.817   0.836   4.853 -0.6775  3.3510  2.6800
   85MOL    H8725455   2.807   0.454   5.039  0.6077  0.0146  0.1326
   85MOL    H8825456   2.655   0.428   4.954 -0.2698  2.6459  0.7006
   85MOL    H8925457   2.799   0.232   4.941 -0.7152 -1.3322 -2.9209
   85MOL    H9025458   2.933   0.322   4.878  0.0053  0.3855 -0.8544
   85MOL    H9125459   2.785   0.291   4.778  1.0618 -0.3183 -0.6501
   85MOL    C9225460   2.652   0.916   4.940 -0.1595  0.6409  0.3996
   85MOL    C9325461   2.616   1.045   4.855  0.3444  0.3531 -0.3764
   85MOL    C9425462   2.740   1.118   4.798 -0.1742  0.8182 -0.2524
   85MOL    O9525463   2.847   1.100   4.853  0.6376  0.0185  0.0067
   85MOL    O9625464   2.713   1.175   4.679 -0.2157 -0.5049 -0.0905
   85MOL    C9725465   2.811   1.222   4.591 -0.2333 -0.1409 -0.2546
   85MOL    C9825466   2.805   1.153   4.451 -0.5842 -0.5462  0.2445
   85MOL    H9925467   2.568   0.876   4.996 -0.9187  1.4649 -0.1381
   85MOL   H10025468   2.717   0.940   5.024 -0.1030 -1.2756  0.9144
   85MOL   H10125469   2.548   1.021   4.774  0.6773 -0.2101 -0.4915
   85MOL   H10225470   2.807   1.330   4.588  0.0828 -0.1355 -0.5843
   85MOL   H10325471   2.908   1.188   4.629  0.4292  1.6859 -0.2845
   85MOL   H10425472   2.797   1.044   4.453  0.2612 -0.5770  3.0888
   85MOL   H10525473   2.893   1.181   4.394 -0.2387  0.1561  1.1291
   85MOL   H10625474   2.713   1.186   4.402  0.9368  1.6735 -1.2081
   85MOL   C10725475   2.530   1.147   4.924 -0.3265 -0.0391  0.2511
   85MOL   C10825476   2.581   1.207   5.063  0.2944 -0.1048  0.0657
   85MOL   C10925477   2.533   1.126   5.185 -0.3352  0.2551  0.3343
   85MOL   O11025478   2.463   1.020   5.177 -0.2377 -1.0142 -0.6506
   85MOL   O11125479   2.585   1.179   5.296  0.0812  0.2961 -0.2716
   85MOL   C11225480   2.577   1.107   5.419  0.0133 -0.2086 -0.0968
   85MOL   C11325481   2.640   1.192   5.526 -0.0862 -0.3466  0.3652
   85MOL   H11425482   2.508   1.228   4.854 -1.3115  1.5851  2.3858
   85MOL   H11525483   2.428   1.109   4.934 -0.1842 -0.1842  1.1402
   85MOL   H11625484   2.689   1.203   5.069  0.3012  0.7595  0.5160
   85MOL   H11725485   2.476   1.072   5.441 -0.2757 -0.6246 -2.0573
   85MOL   H11825486   2.636   1.016   5.408 -1.6150 -1.3786  0.6032
   85MOL   H11925487   2.745   1.214   5.504 -0.1010  0.2955  0.9107
   85MOL   H12025488   2.630   1.139   5.621 -3.5453 -2.9489 -1.3664
   85MOL   H12125489   2.589   1.286   5.547 -3.7994 -2.3216  0.5226
   85MOL   C12225490   2.545   1.356   5.075  0.4163 -0.0545  0.1368
   85MOL   C12325491   2.624   1.448   4.974 -0.0698 -0.3454 -0.1186
   85MOL   C12425492   2.761   1.486   5.032 -0.1645 -0.2437 -0.5821
   85MOL   O12525493   2.784   1.539   5.141 -0.6725 -0.3087 -0.0528
   85MOL   O12625494   2.854   1.433   4.947  0.1053  0.1084 -0.4015
   85MOL   C12725495   2.986   1.409   4.986  0.2240  1.2380 -1.0638
   85MOL   C12825496   3.084   1.379   4.877 -0.1979 -0.2488  0.1020
   85MOL   H12925497   2.439   1.360   5.052  0.5575  0.4231 -0.4346
   85MOL   H13025498   2.560   1.404   5.172  1.5235 -0.0740 -0.0243
   85MOL   H13125499   2.634   1.396   4.879  0.3848 -0.2814 -0.1078
   85MOL   H13225500   3.020   1.496   5.042  2.7752  0.7266 -1.7523
   85MOL   H13325501   2.968   1.322   5.049 -1.4288  2.3884  0.0969
   85MOL   H13425502   3.176   1.335   4.916 -1.2990 -1.8658  0.8876
   85MOL   H13525503   3.113   1.475   4.834  1.8603 -1.0099 -0.2566
   85MOL   H13625504   3.047   1.323   4.792 -1.8152  1.6651 -0.4815
   85MOL   C13725505   2.543   1.584   4.946  0.1586  0.2076  0.6185
   85MOL   C13825506   2.413   1.567   4.856 -0.2017 -0.0044  0.3073
   85MOL   C13925507   2.455   1.538   4.711  0.4870 -0.7171 -0.0587
   85MOL   O14025508   2.529   1.615   4.648 -0.3407  0.3382  0.3921
   85MOL   O14125509   2.410   1.420   4.666  0.1571  0.3234 -0.5255
   85MOL   C14225510   2.441   1.372   4.535  0.5273  0.3392 -0.0814
   85MOL   C14325511   2.402   1.224   4.533 -0.5983  0.0465 -0.0159
   85MOL   H14425512   2.519   1.641   5.036  0.2533  2.1922 -0.5810
   85MOL   H14525513   2.608   1.660   4.903 -2.6364  2.2622 -0.1339
   85MOL   H14625514   2.339   1.494   4.886  1.4612 -1.7461  0.2758
   85MOL   H14725515   2.391   1.428   4.457 -0.1187  0.0648  0.1357
   85MOL   H14825516   2.548   1.368   4.512  0.2717  0.5867 -1.3372
   85MOL   H14925517   2.453   1.184   4.621 -2.5556 -4.3996 -0.7589
   85MOL   H15025518   2.440   1.162   4.452  0.6183  1.4264 -0.5326
   85MOL   H15125519   2.298   1.199   4.553 -1.2025  1.5533 -1.2015
   85MOL   C15225520   2.328   1.691   4.861  0.2883  0.2975  0.4762
   85MOL   C15325521   2.180   1.680   4.811 -0.8638 -0.2166  0.2803
   85MOL   C15425522   2.176   1.721   4.662 -0.3959 -0.6604 -0.2586
   85MOL   O15525523   2.217   1.828   4.623 -0.4106  0.2591 -0.3065
   85MOL   O15625524   2.110   1.635   4.589 -0.2117 -0.3742  0.6389
   85MOL   C15725525   2.077   1.679   4.453  0.3877  0.3074 -0.3633
   85MOL   C15825526   2.012   1.564   4.367  0.6553 -0.7518 -0.1084
   85MOL   H15925527   2.322   1.706   4.969  0.2883  0.9811  0.3812
   85MOL   H16025528   2.380   1.780   4.828 -0.9160  1.7774  2.4860
   85MOL   H16125529   2.154   1.574   4.822 -1.0941 -0.3560 -1.3687
   85MOL   H16225530   2.007   1.762   4.465  0.8146  0.3409  2.2329
   85MOL   H16325531   2.172   1.717   4.415  1.6520 -2.0695  0.3284
   85MOL   H16425532   1.973   1.601   4.272 -0.2516 -2.0719 -0.2648
   85MOL   H16525533   1.925   1.520   4.414  0.6402 -0.6318 -0.0223
   85MOL   H16625534   2.076   1.478   4.345 -2.4259 -2.6612 -1.9341
   85MOL   C16725535   2.094   1.776   4.896  0.4173 -0.2039  0.2439
   85MOL   C16825536   1.948   1.784   4.863  0.2360  0.4431  0.6981
   85MOL   C16925537   1.865   1.881   4.944 -0.0119 -0.6025  0.1671
   85MOL   O17025538   1.872   1.883   5.067  0.0221 -0.5634 -0.2188
   85MOL   O17125539   1.784   1.955   4.869 -0.1496  0.2713  0.1036
   85MOL   C17225540   1.711   2.053   4.922 -0.3178  0.5904  0.1009
   85MOL   C17325541   1.622   2.123   4.813  0.1501  0.0532 -0.0635
   85MOL   H17425542   2.101   1.755   5.003  0.3433  1.2734  0.5446
   85MOL   H17525543   2.136   1.876   4.894  0.7705 -0.3339  0.9055
   85MOL   H17625544   1.956   1.816   4.759 -0.6832  2.0601  1.1112
   85MOL   H17725545   1.651   2.026   5.008 -1.4444  0.6443 -0.6567
   85MOL   H17825546   1.780   2.127   4.964 -0.3727 -0.9221  2.9720
   85MOL   H17925547   1.558   2.053   4.758  1.5696  2.3087 -4.8499
   85MOL   H18025548   1.687   2.178   4.746  1.2421 -0.4398  0.5821
   85MOL   H18125549   1.559   2.203   4.853 -2.3541 -1.9869  0.2747
   85MOL   C18225550   1.876   1.651   4.873  0.4315  0.1446 -0.2376
   85MOL   C18325551   1.737   1.634   4.797 -0.1247  0.3779 -0.6391
   85MOL   C18425552   1.676   1.494   4.808  0.5232 -1.4525 -0.2660
   85MOL   O18525553   1.569   1.480   4.867 -0.7677  0.0444  1.0479
   85MOL   O18625554   1.748   1.400   4.750 -0.2091  0.0979  0.1144
   85MOL   C18725555   1.686   1.278   4.725 -0.0859 -0.5862  0.2372
   85MOL   C18825556   1.651   1.272   4.577 -0.9259 -1.0163 -0.2289
   85MOL   H18925557   1.940   1.569   4.839 -0.8183 -1.1078  0.4007
   85MOL   H19025558   1.854   1.624   4.976 -2.1127  1.7033 -0.3223
   85MOL   H19125559   1.664   1.700   4.844  0.3252  1.3328 -1.2668
   85MOL   H19225560   1.748   1.193   4.753 -1.9737 -1.7321  0.9880
   85MOL   H19325561   1.591   1.277   4.777 -0.2892 -0.9135 -0.1426
   85MOL   H19425562   1.739   1.287   4.516  0.3621  0.5092  1.9439
   85MOL   H19525563   1.583   1.350   4.544 -1.2341 -0.6624  1.2147
   85MOL   H19625564   1.616   1.172   4.553  0.7732 -1.5703 -0.4705
   85MOL   C19725565   1.750   1.680   4.648 -0.5419 -0.0247 -0.0966
   85MOL   C19825566   1.619   1.677   4.562  0.4041 -0.0303  1.0572
   85MOL   C19925567   1.656   1.669   4.414 -0.0573  0.1637 -0.0153
   85MOL   O20025568   1.719   1.759   4.356 -0.2800  0.4774  0.1793
   85MOL   O20125569   1.630   1.548   4.359 -0.5641  0.1601 -0.4978
   85MOL   C20225570   1.656   1.523   4.224  0.2386  0.5603  0.8542
   85MOL   C20325571   1.686   1.382   4.214 -0.3533 -0.1983  0.2750
   85MOL   H20425572   1.782   1.784   4.648 -0.5889 -0.0083  0.3116
   85MOL   H20525573   1.826   1.615   4.604 -1.8160 -1.6787  0.0688
   85MOL   H20625574   1.557   1.588   4.577  1.6200 -1.1783 -0.5400
   85MOL   H20725575   1.573   1.546   4.156  0.5419 -0.1359  0.2340
   85MOL   H20825576   1.740   1.585   4.193 -0.5395  1.8863  1.3812
   85MOL   H20925577   1.782   1.354   4.257  0.2850  0.6457 -0.5935
   85MOL   H21025578   1.695   1.344   4.112  0.3532 -2.0202  0.9947
   85MOL   H21125579   1.614   1.319   4.266  0.1471 -0.0673  1.1459
   85MOL   C21225580   1.530   1.795   4.601 -0.8576  0.0892 -0.7434
   85MOL   C21325581   1.392   1.801   4.531 -0.0259  0.0200  0.3487
   85MOL   C21425582   1.360   1.940   4.476 -0.1585 -0.2431 -0.0515
   85MOL   O21525583   1.268   2.009   4.526 -0.0519 -0.3264  0.3075
   85MOL   O21625584   1.438   1.970   4.376  0.2401 -0.4208 -0.4376
   85MOL   C21725585   1.441   2.109   4.332  0.0249 -0.5009 -0.2441
   85MOL   C21825586   1.503   2.107   4.189 -0.2255 -0.0510  0.3757
   85MOL   H21925587   1.515   1.804   4.708  2.2330  1.9894 -0.3980
   85MOL   H22025588   1.586   1.884   4.570 -1.3135  0.2687 -1.0624
   85MOL   H22125589   1.390   1.738   4.443 -0.9012  0.0914  0.3116
   85MOL   H22225590   1.341   2.151   4.324 -0.5209 -2.2435 -3.2722
   85MOL   H22325591   1.503   2.170   4.399 -0.2132  0.5171 -0.9356
   85MOL   H22425592   1.435   2.052   4.124  1.1270 -0.2422 -0.8916
   85MOL   H22525593   1.594   2.050   4.204 -0.4296 -0.1538  1.2743
   85MOL   H22625594   1.526   2.205   4.147 -0.1925  0.3340  1.2730
   85MOL   C22725595   1.276   1.726   4.607 -0.5045 -0.7193 -0.5122
   85MOL   C22825596   1.205   1.616   4.529 -0.0447  0.2350  0.4911
   85MOL   C22925597   1.075   1.583   4.596  0.2609  0.1068 -0.6627
   85MOL   O23025598   1.070   1.501   4.690  0.0089  0.0876  0.1790
   85MOL   O23125599   0.979   1.671   4.560  0.7580 -0.2591 -0.2478
   85MOL   C23225600   0.856   1.679   4.631 -0.1728 -0.0109 -0.0139
   85MOL   C23325601   0.859   1.807   4.705  0.3286  0.2389  0.2268
   85MOL   H23425602   1.323   1.680   4.694 -0.9149  0.9905  0.6268
   85MOL   H23525603   1.214   1.806   4.648 -0.0556  1.1637 -3.3649
   85MOL   H23625604   1.179   1.661   4.433  2.0087 -3.2665 -1.8216
   85MOL   H23725605   0.775   1.666   4.560  0.8628  0.4624 -1.2920
   85MOL   H23825606   0.841   1.589   4.691 -1.3957 -1.8129 -2.9156
   85MOL   H23925607   0.961   1.820   4.740  0.4271  3.2998 -1.0147
   85MOL   H24025608   0.793   1.809   4.792  0.1257  2.3652  0.0591
   85MOL   H24125609   0.841   1.896   4.644  0.2865  0.8255  1.0879
   85MOL   C24225610   1.289   1.487   4.519  0.6363  0.1288 -0.7161
   85MOL   C24325611   1.223   1.375   4.429 -0.4427 -0.7397 -0.4647
   85MOL   C24425612   1.272   1.239   4.475  0.2871  0.3032  0.4472
   85MOL   O24525613   1.371   1.185   4.426  0.1899 -0.1828  0.7079
   85MOL   O24625614   1.180   1.176   4.548  0.2436  0.2014  0.3429
   85MOL   C24725615   1.195   1.046   4.599 -0.2891  0.5083  0.9083
   85MOL   C24825616   1.086   0.951   4.535 -0.1097 -0.3804  0.0142
   85MOL   H24925617   1.380   1.515   4.467  0.2882  1.6973 -0.4998
   85MOL   H25025618   1.325   1.457   4.617  0.0363  0.1790 -0.4778
   85MOL   H25125619   1.116   1.372   4.450 -0.3115  0.2919  0.3888
   85MOL   H25225620   1.295   1.004   4.588  0.5783  2.5727  0.7478
   85MOL   H25325621   1.175   1.046   4.707 -1.5939 -2.9518  0.7353
   85MOL   H25425622   1.113   0.924   4.434  0.3846  1.1162 -0.2789
   85MOL   H25525623   0.986   0.994   4.548  0.3650  0.3432  1.4315
   85MOL   H25625624   1.072   0.860   4.593 -0.2651  0.5656  1.5188
   85MOL   C25725625   1.251   1.405   4.280  0.1856 -0.1363  0.0905
   85MOL   C25825626   1.139   1.466   4.196  0.0967 -0.6097  0.0546
   85MOL   C25925627   1.005   1.384   4.211  1.1089 -0.5002 -0.2968
   85MOL   O26025628   1.002   1.259   4.220 -0.2659 -0.1429 -0.2695
   85MOL   O26125629   0.901   1.472   4.212  0.0136 -0.4516 -0.2613
   85MOL   C26225630   0.765   1.431   4.220 -0.1122  0.4379 -0.6445
   85MOL   C26325631   0.710   1.421   4.078 -0.0743  0.0917  0.0886
   85MOL   H26425632   1.340   1.467   4.279  0.0457  0.0669 -1.0368
   85MOL   H26525633   1.273   1.309   4.232 -0.3925  0.2335 -0.9490
   85MOL   H26625634   1.120   1.561   4.245  0.7869 -1.1908  1.4845
   85MOL   H26725635   0.750   1.332   4.265  0.3596  0.4337 -0.4928
   85MOL   H26825636   0.709   1.508   4.273 -0.1539 -0.6842  0.9793
   85MOL   H26925637   0.610   1.378   4.065  0.4919 -1.2340  0.0925
   85MOL   H27025638   0.783   1.364   4.021  0.6437  1.6425 -0.5828
   85MOL   H27125639   0.711   1.519   4.031  0.7692 -1.4254 -3.2026
   85MOL   C27225640   1.168   1.473   4.039  1.3724 -0.2027 -1.3133
   85MOL   C27325641   1.300   1.553   4.009  0.5395 -0.4668 -0.2021
   85MOL   C27425642   1.300   1.692   4.079 -0.2360  0.7110  0.0501
   85MOL   O27525643   1.388   1.734   4.157 -0.2759  0.0750 -0.0066
   85MOL   O27625644   1.189   1.765   4.057  0.3367 -0.1551  0.4743
   85MOL   C27725645   1.171   1.886   4.122 -0.3730 -0.1279  0.2935
   85MOL   C27825646   1.071   1.975   4.041 -0.0768 -0.1382  0.0339
   85MOL   H27925647   1.182   1.368   4.013  1.9505 -0.0314 -1.7005
   85MOL   H28025648   1.093   1.516   3.972  1.5908  0.8284 -0.9070
   85MOL   H28125649   1.381   1.495   4.054 -0.1105 -0.6488  0.7544
   85MOL   H28225650   1.124   1.872   4.220  0.3645  0.8079  0.7865
   85MOL   H28325651   1.264   1.941   4.136  0.1695 -1.3738  1.6381
   85MOL   H28425652   1.095   1.988   3.935 -0.9600  0.1008 -0.1464
   85MOL   H28525653   1.064   2.076   4.081  1.1090  0.6287 -1.6467
   85MOL   H28625654   0.969   1.936   4.039 -0.7150  1.5625 -1.6634
   85MOL   C28725655   1.336   1.548   3.855  0.1654 -0.4159  0.1440
   85MOL   C28825656   1.433   1.656   3.811 -0.9513  0.7016  0.5283
   85MOL   C28925657   1.573   1.653   3.871  0.8147 -0.2694  0.6309
   85MOL   O29025658   1.621   1.553   3.923 -0.6838 -0.3135  0.4813
   85MOL   O29125659   1.630   1.779   3.864 -0.0931  0.0177 -0.4119
   85MOL   C29225660   1.770   1.785   3.899 -0.4655 -1.0119 -0.2908
   85MOL   C29325661   1.776   1.836   4.044 -0.0799  0.0962  0.1394
   85MOL   H29425662   1.377   1.450   3.830 -2.1390 -1.4718  0.3632
   85MOL   H29525663   1.240   1.562   3.804  1.3424  0.9704 -1.7699
   85MOL   H29625664   1.444   1.644   3.703 -1.8295  1.3536  0.3603
   85MOL   H29725665   1.829   1.693   3.896  0.8674 -0.2024  0.3218
   85MOL   H29825666   1.811   1.863   3.834 -0.2429 -0.6880  0.2341
   85MOL   H29925667   1.848   1.918   4.046  0.0623  0.0059 -1.1841
   85MOL   H30025668   1.835   1.757   4.092  1.0009  0.4743 -0.5387
   85MOL   H30125669   1.678   1.857   4.086 -0.8691  1.4525 -2.3061
   85MOL   H30225670   1.396   1.757   3.829  2.1176  2.3734 -1.9767
   86MOL     C125671   7.780   1.608   4.863 -0.6872 -0.0305  0.7293
   86MOL     C225672   7.667   1.700   4.924  0.2334 -0.6246  0.8873
   86MOL     C325673   7.577   1.616   5.013  0.3123  0.5843  0.3317
   86MOL     O425674   7.561   1.649   5.127 -0.0444  0.2703  0.8217
   86MOL     O525675   7.527   1.511   4.948 -0.1694 -0.4172 -0.4154
   86MOL     C625676   7.446   1.415   5.014  0.1837 -0.2876  0.0529
   86MOL     C725677   7.330   1.350   4.933 -0.1229 -0.4156 -0.4430
   86MOL     H825678   7.833   1.667   4.788 -0.6324 -2.5925 -1.2922
   86MOL     H925679   7.748   1.521   4.806  1.4926 -0.1088 -0.4495
   86MOL    H1025680   7.708   1.777   4.991  0.8879 -0.4326  0.2793
   86MOL    H1125681   7.506   1.334   5.056 -0.6537 -0.3369  1.1859
   86MOL    H1225682   7.397   1.473   5.092 -0.8389 -0.0265 -0.7676
   86MOL    H1325683   7.256   1.428   4.916  2.2134  2.0025  0.1389
   86MOL    H1425684   7.281   1.268   4.986 -0.3830  1.8904  2.9803
   86MOL    H1525685   7.369   1.313   4.837  0.0615 -0.8759 -0.1941
   86MOL    H1625686   7.860   1.570   4.927  1.9844 -0.2224 -2.5753
   86MOL    C1725687   7.592   1.773   4.809 -0.6164 -0.4073 -0.4074
   86MOL    C1825688   7.624   1.926   4.801 -0.2136 -0.0370  0.3258
   86MOL    C1925689   7.760   1.962   4.743 -0.0707 -0.1127  0.4890
   86MOL    O2025690   7.762   2.019   4.635  0.2404 -0.3349 -0.0351
   86MOL    O2125691   7.866   1.931   4.819  0.4594 -0.0737  0.2016
   86MOL    C2225692   0.089   1.939   4.764 -0.3143 -0.2964 -0.2622
   86MOL    C2325693   0.172   2.055   4.811  0.2445  0.1433  0.2626
   86MOL    H2425694   7.620   1.723   4.716  1.5707 -2.3264  1.2147
   86MOL    H2525695   7.483   1.771   4.813 -0.6248  2.6567  2.4999
   86MOL    H2625696   7.557   1.977   4.732  0.6295 -0.5767 -0.8841
   86MOL    H2725697   0.150   1.851   4.783  4.2736  2.9478  1.0704
   86MOL    H2825698   0.080   1.956   4.657 -1.8904 -0.8111 -0.2273
   86MOL    H2925699   0.127   2.154   4.797  2.1147  1.0204  0.2793
   86MOL    H3025700   0.262   2.051   4.751 -0.3892  2.4108 -0.9117
   86MOL    H3125701   0.189   2.040   4.918 -2.4490  1.7635  1.0026
   86MOL    C3225702   7.597   2.007   4.937  0.9750  0.0214 -0.0436
   86MOL    C3325703   7.606   2.165   4.921  0.1318 -0.1699  0.0930
   86MOL    C3425704   7.745   2.211   4.943 -0.0852  0.5710  0.5564
   86MOL    O3525705   7.808   2.255   4.852  0.4439 -0.0782  0.1793
   86MOL    O3625706   7.786   2.185   5.066  0.2725  0.0993 -0.0815
   86MOL    C3725707   0.009   2.204   5.108 -0.1829 -0.4362  0.0653
   86MOL    C3825708   0.008   2.210   5.262 -0.2166  0.4109  0.1437
   86MOL    H3925709   7.499   1.974   4.971  1.5849 -2.2753 -0.4538
   86MOL    H4025710   7.671   1.971   5.009  0.0755 -1.1459  0.3039
   86MOL    H4125711   7.577   2.179   4.817  1.0655  1.4385  0.0463
   86MOL    H4225712   0.081   2.134   5.065  0.5565  0.0244  0.5454
   86MOL    H4325713   0.035   2.302   5.068  0.9771  0.2099  2.3329
   86MOL    H4425714   7.839   2.280   5.293 -0.1441  0.1795  0.8700
   86MOL    H4525715   0.106   2.245   5.295 -0.9571  0.2904  2.5743
   86MOL    H4625716   7.897   2.123   5.324  1.2498 -0.2220 -0.2640
   86MOL    C4725717   7.511   2.235   5.023  0.2362  0.5399 -0.1127
   86MOL    C4825718   7.490   2.388   5.016  0.1314 -0.1103 -0.8329
   86MOL    C4925719   7.457   2.447   4.880 -0.1733  0.5668  0.1257
   86MOL    O5025720   7.341   2.467   4.843 -0.2877 -0.5414  0.7503
   86MOL    O5125721   7.560   2.495   4.807 -0.6451  0.4289  0.1941
   86MOL    C5225722   7.543   2.538   4.680 -0.4135  0.1414 -0.3187
   86MOL    C5325723   7.678   2.577   4.614  0.1379  0.3715 -0.5015
   86MOL    H5425724   7.416   2.184   5.011  1.2249 -0.8142 -2.6185
   86MOL    H5525725   7.541   2.207   5.123  1.2270 -0.9310 -0.7981
   86MOL    H5625726   7.396   2.396   5.070 -1.1059  1.0725 -3.0987
   86MOL    H5725727   7.490   2.460   4.625 -0.0631 -1.1621  1.1649
   86MOL    H5825728   7.478   2.625   4.683  0.0216  0.4998 -0.9785
   86MOL    H5925729   7.664   2.647   4.531 -0.8270 -0.4941 -1.0782
   86MOL    H6025730   7.731   2.485   4.591  0.2574 -0.1471  1.7414
   86MOL    H6125731   7.730   2.626   4.696  0.7702 -1.0289 -0.0679
   86MOL    C6225732   7.606   2.457   5.089  0.1849  0.4442 -0.5316
   86MOL    C6325733   7.587   2.607   5.117 -0.2471  0.4204  0.4805
   86MOL    C6425734   7.718   2.679   5.153 -0.4307  0.7114 -0.4966
   86MOL    O6525735   7.770   2.771   5.089  0.0367  0.1505  0.2964
   86MOL    O6625736   7.772   2.623   5.257 -0.6452  0.0300 -0.1582
   86MOL    C6725737   7.886   2.664   5.323  0.8714 -0.3855  0.1456
   86MOL    C6825738   0.100   2.593   5.260 -0.1711 -0.8242 -0.1842
   86MOL    H6925739   7.614   2.415   5.189  0.2741 -0.6140 -0.9771
   86MOL    H7025740   7.695   2.443   5.028  0.7236  0.0558  0.3422
   86MOL    H7125741   7.565   2.655   5.021 -1.6957  1.1193  1.1518
   86MOL    H7225742   7.903   2.771   5.334 -0.4819 -0.2134  0.6452
   86MOL    H7325743   7.861   2.621   5.420  0.2497 -1.1231 -0.3286
   86MOL    H7425744   0.089   2.485   5.273 -0.9450 -0.6980  0.2182
   86MOL    H7525745   0.195   2.621   5.304 -0.4459  1.4718 -0.9481
   86MOL    H7625746   0.109   2.610   5.152  1.4650 -2.4967 -0.3382
   86MOL    C7725747   7.470   2.635   5.213  0.3700 -0.2517 -0.1969
   86MOL    C7825748   7.486   2.584   5.358 -0.5106 -0.0689 -1.4759
   86MOL    C7925749   7.402   2.462   5.382  0.4946 -0.4706 -0.1283
   86MOL    O8025750   7.456   2.358   5.413  0.5134 -0.0262  0.2474
   86MOL    O8125751   7.267   2.495   5.388 -0.3070 -0.3923  0.0758
   86MOL    C8225752   7.175   2.402   5.443 -0.3792 -0.2183  0.1487
   86MOL    C8325753   7.136   2.426   5.590  0.2567  0.0780  1.3128
   86MOL    H8425754   7.458   2.743   5.212  1.8474 -0.0699 -0.1650
   86MOL    H8525755   7.370   2.607   5.181 -0.2872  2.2465 -0.4155
   86MOL    H8625756   7.590   2.559   5.379 -1.6820 -3.2931  1.0471
   86MOL    H8725757   7.090   2.390   5.375 -0.1897  2.9762 -0.7428
   86MOL    H8825758   7.227   2.306   5.441  1.3011  0.6586 -0.0655
   86MOL    H8925759   7.070   2.512   5.582  0.6403  0.3140  0.6164
   86MOL    H9025760   7.217   2.454   5.658  0.5900  0.4394  0.7670
   86MOL    H9125761   7.076   2.339   5.616  0.5980 -0.2729  0.9391
   86MOL    C9225762   7.454   2.704   5.456 -0.2721  0.8064  0.2182
   86MOL    C9325763   7.572   2.785   5.502  0.3547  0.0915  0.2145
   86MOL    C9425764   7.641   2.720   5.620  0.6945  0.8855  0.3462
   86MOL    O9525765   7.615   2.605   5.656 -0.1053  0.3059 -0.5481
   86MOL    O9625766   7.745   2.796   5.664 -0.1736  0.1554  0.1525
   86MOL    C9725767   7.830   2.754   5.763  0.1860  0.3911 -0.8174
   86MOL    C9825768   7.771   2.765   5.901  0.5813 -0.1119  0.0367
   86MOL    H9925769   7.381   2.768   5.406  1.5595  0.1855 -3.4473
   86MOL   H10025770   7.397   2.668   5.542  0.1957 -0.0210  0.1853
   86MOL   H10125771   7.652   2.803   5.430  1.8203 -0.7241  1.5914
   86MOL   H10225772   7.870   2.653   5.750 -2.7084 -0.8166 -0.6431
   86MOL   H10325773   0.006   2.824   5.764 -1.2928  2.2552 -2.6572
   86MOL   H10425774   7.852   2.750   5.973  1.3725 -2.0963 -1.2223
   86MOL   H10525775   7.680   2.712   5.925  0.1356  0.3563 -0.6073
   86MOL   H10625776   7.737   2.868   5.914 -1.4427 -0.5846 -1.3348
   86MOL   C10725777   7.523   2.920   5.548  0.1638 -0.4249  0.6716
   86MOL   C10825778   7.531   3.017   5.425  0.4790 -0.2193 -0.1224
   86MOL   C10925779   7.675   3.034   5.376  1.1835  0.3357  0.4100
   86MOL   O11025780   7.698   3.031   5.257 -0.6036  0.6073  0.1786
   86MOL   O11125781   7.761   3.056   5.481 -0.1510  0.0154  0.4599
   86MOL   C11225782   7.901   3.063   5.455  0.0634  0.3140  0.2142
   86MOL   C11325783   0.070   3.103   5.587  0.0196 -0.1086  0.0161
   86MOL   H11425784   7.418   2.927   5.579 -0.4608  1.1907 -1.6259
   86MOL   H11525785   7.582   2.970   5.625 -0.2049  0.9957  0.0478
   86MOL   H11625786   7.483   2.967   5.341  0.5046 -0.8773  0.2539
   86MOL   H11725787   0.031   2.962   5.438  0.3098  0.4195  0.1547
   86MOL   H11825788   0.003   3.118   5.362 -0.0948 -1.3510 -0.8059
   86MOL   H11925789   0.176   3.118   5.568  0.2931 -0.3751  1.2839
   86MOL   H12025790   0.052   3.043   5.676 -1.5715  1.4168  0.7537
   86MOL   H12125791   0.016   3.193   5.617  4.1161  2.6565 -0.5730
   86MOL   C12225792   7.462   3.154   5.462  0.2051  0.6161  0.5121
   86MOL   C12325793   7.391   3.227   5.347 -0.1127  0.2674 -0.7573
   86MOL   C12425794   7.372   3.378   5.376 -0.7687 -0.4216  0.4998
   86MOL   O12525795   7.350   3.425   5.489 -0.2905 -0.3483  0.2805
   86MOL   O12625796   7.385   3.455   5.268  0.3004  0.2414 -0.2050
   86MOL   C12725797   7.377   3.602   5.291  0.6874 -0.4744  0.2429
   86MOL   C12825798   7.349   3.687   5.167 -0.1092 -0.0749 -0.0420
   86MOL   H12925799   7.387   3.148   5.540 -0.3029 -0.3381 -0.0449
   86MOL   H13025800   7.537   3.213   5.516 -0.3486 -0.7637  2.8414
   86MOL   H13125801   7.454   3.217   5.259  1.9740 -0.6527  0.7997
   86MOL   H13225802   7.307   3.637   5.367  0.8797 -2.3879  1.3354
   86MOL   H13325803   7.476   3.640   5.313  0.5627  1.7549 -2.6794
   86MOL   H13425804   7.250   3.683   5.122 -0.1217  0.7056 -0.0976
   86MOL   H13525805   7.427   3.672   5.092  1.6644  2.1272  1.2896
   86MOL   H13625806   7.369   3.793   5.183 -0.7594 -0.1695  1.4582
   86MOL   C13725807   7.253   3.159   5.303  0.0202 -0.3912 -0.6245
   86MOL   C13825808   7.138   3.181   5.416  0.0973  0.5649 -0.1099
   86MOL   C13925809   7.077   3.044   5.443 -0.5503  0.3554  0.2203
   86MOL   O14025810   7.101   2.987   5.550 -0.7271 -0.7650 -0.7242
   86MOL   O14125811   6.994   3.001   5.347 -0.1900 -0.4647 -0.3511
   86MOL   C14225812   6.949   2.866   5.359  0.3479 -0.1524 -0.2505
   86MOL   C14325813   6.867   2.841   5.236 -0.1689  1.0855  0.5990
   86MOL   H14425814   7.214   3.219   5.221 -1.5709  1.3038  1.3092
   86MOL   H14525815   7.260   3.055   5.273 -1.6435 -0.9509  0.8310
   86MOL   H14625816   7.186   3.194   5.513  1.2566  2.5718 -0.9154
   86MOL   H14725817   7.041   2.808   5.345  0.6107  0.4211 -0.9800
   86MOL   H14825818   6.891   2.847   5.449  2.4462  1.5529  1.5208
   86MOL   H14925819   6.905   2.879   5.141  1.8907 -0.9606  0.5358
   86MOL   H15025820   6.775   2.895   5.255 -0.9344  0.2832 -0.7876
   86MOL   H15125821   6.850   2.735   5.215 -0.0089  1.0371  0.7066
   86MOL   C15225822   7.049   3.296   5.380 -0.1584  0.6568  0.2669
   86MOL   C15325823   6.949   3.335   5.492 -0.1019 -0.1179  0.0917
   86MOL   C15425824   6.817   3.257   5.478 -0.0402 -0.3307 -0.8749
   86MOL   O15525825   6.768   3.216   5.368  0.5973 -0.3826  0.2506
   86MOL   O15625826   6.762   3.250   5.600 -0.0499  0.1764  0.2530
   86MOL   C15725827   6.630   3.215   5.621  0.0527  0.0512 -0.0924
   86MOL   C15825828   6.559   3.319   5.717  0.3225  0.2370  0.0621
   86MOL   H15925829   7.102   3.384   5.341 -0.9117  1.0024  0.0121
   86MOL   H16025830   6.985   3.257   5.301  2.2737  0.6630 -1.7726
   86MOL   H16125831   6.983   3.307   5.592 -0.0652 -1.9568 -0.4200
   86MOL   H16225832   6.574   3.216   5.527  0.8691 -0.6293 -0.5953
   86MOL   H16325833   6.618   3.116   5.665 -1.9479  0.1556 -0.3401
   86MOL   H16425834   6.451   3.303   5.722  0.2276  0.9603  0.3844
   86MOL   H16525835   6.580   3.421   5.685 -0.2645  0.2688 -0.2274
   86MOL   H16625836   6.590   3.301   5.820 -1.3901  0.8763  0.7008
   86MOL   C16725837   6.929   3.491   5.486  0.2764 -0.1619 -0.3164
   86MOL   C16825838   7.039   3.565   5.569  0.4868  0.6039  0.2570
   86MOL   C16925839   7.014   3.566   5.720 -0.0487  0.0469  0.0206
   86MOL   O17025840   6.929   3.494   5.776  0.0946 -0.1256 -0.4407
   86MOL   O17125841   7.094   3.649   5.779 -0.8390  0.2156 -0.0474
   86MOL   C17225842   7.114   3.652   5.922  0.4630 -1.3311 -0.1326
   86MOL   C17325843   7.252   3.702   5.970 -0.4264  0.1530 -0.8441
   86MOL   H17425844   6.936   3.526   5.383  1.2289 -2.4322 -1.0508
   86MOL   H17525845   6.830   3.518   5.525  0.4682  1.5031 -0.9355
   86MOL   H17625846   7.129   3.503   5.566 -0.9988 -1.6014  0.2142
   86MOL   H17725847   7.036   3.718   5.961  0.6551 -0.1463 -1.6925
   86MOL   H17825848   7.095   3.556   5.969 -3.4842 -0.2040  0.7019
   86MOL   H17925849   7.339   3.657   5.922 -1.0599  0.1008 -1.9727
   86MOL   H18025850   7.249   3.703   6.079  2.8646 -2.5563 -0.6381
   86MOL   H18125851   7.264   3.806   5.942 -0.3829  0.3311 -0.1640
   86MOL   C18225852   7.083   3.702   5.506 -0.3218 -0.0499  0.0205
   86MOL   C18325853   6.994   3.828   5.518 -0.2942 -0.2950 -0.3365
   86MOL   C18425854   6.865   3.828   5.437  0.6232  0.4271  0.0413
   86MOL   O18525855   6.857   3.775   5.324 -0.0421  0.7377 -0.2937
   86MOL   O18625856   6.773   3.914   5.485  0.2495  0.9851  0.5006
   86MOL   C18725857   6.679   3.970   5.401 -0.3705 -0.3743 -0.3917
   86MOL   C18825858   6.535   3.919   5.420  0.6760  0.1456  0.0880
   86MOL   H18925859   7.189   3.711   5.530 -0.6722  1.1452  1.1566
   86MOL   H19025860   7.096   3.680   5.400  0.2260 -0.6336  0.2061
   86MOL   H19125861   6.962   3.827   5.623  2.2014  3.3196  0.5844
   86MOL   H19225862   6.676   4.069   5.448  0.3853 -0.5093 -0.0613
   86MOL   H19325863   6.718   3.972   5.299  1.2477  1.2095  0.2346
   86MOL   H19425864   6.464   3.967   5.352  0.5853  0.6388  0.5270
   86MOL   H19525865   6.500   3.941   5.520  0.3686  2.5046 -0.4931
   86MOL   H19625866   6.531   3.812   5.403 -0.0475  0.0514  0.8455
   86MOL   C19725867   7.071   3.955   5.505  0.2639  0.0950 -0.3949
   86MOL   C19825868   7.143   3.994   5.641  0.0093  0.2210  0.8705
   86MOL   C19925869   7.043   4.061   5.731 -0.9423  0.4403  0.1203
   86MOL   O20025870   6.999   4.014   5.836  0.0986 -0.1445 -0.5306
   86MOL   O20125871   7.018   4.185   5.696 -0.8488 -0.4224  0.0009
   86MOL   C20225872   6.901   4.254   5.751  0.1053  0.3978 -0.7392
   86MOL   C20325873   6.766   4.197   5.708  0.0635  0.3760 -0.0653
   86MOL   H20425874   7.138   3.946   5.419 -0.1428  1.7835 -0.9033
   86MOL   H20525875   7.016   4.044   5.473 -3.0408 -1.4154  0.8744
   86MOL   H20625876   7.174   3.899   5.685 -0.5122 -1.1504 -1.6625
   86MOL   H20725877   6.895   4.274   5.858  1.0255  0.4804 -0.7033
   86MOL   H20825878   6.912   4.348   5.697 -1.3638  1.6911  1.1305
   86MOL   H20925879   6.729   4.122   5.778  2.2699 -1.9704 -1.3338
   86MOL   H21025880   6.787   4.130   5.625  0.1397 -2.2003  1.9692
   86MOL   H21125881   6.689   4.268   5.677 -2.6230 -1.7599  1.5038
   86MOL   C21225882   7.263   4.091   5.619  0.1358  0.9146 -0.8031
   86MOL   C21325883   7.392   4.040   5.552  0.1990  0.8839  0.3642
   86MOL   C21425884   7.447   3.919   5.630  0.2395 -0.1360 -0.0767
   86MOL   O21525885   7.432   3.908   5.755  0.2970  0.4614  0.1204
   86MOL   O21625886   7.504   3.828   5.557  0.1966  0.0118 -0.0657
   86MOL   C21725887   7.538   3.694   5.604  0.9138  0.5832  0.4002
   86MOL   C21825888   7.688   3.685   5.622  0.1276 -0.3659  0.0920
   86MOL   H21925889   7.220   4.164   5.550 -2.8517  1.2799  1.3444
   86MOL   H22025890   7.289   4.140   5.713  2.6556 -2.1591  0.1586
   86MOL   H22125891   7.374   3.993   5.455 -0.6066 -1.1230  1.4551
   86MOL   H22225892   7.477   3.666   5.690 -0.6981  2.8762  0.0440
   86MOL   H22325893   7.512   3.618   5.531 -2.2937  1.7711  0.2274
   86MOL   H22425894   7.723   3.750   5.702  0.8053 -0.0996 -0.4168
   86MOL   H22525895   7.754   3.697   5.536 -0.6116 -0.5237 -0.5029
   86MOL   H22625896   7.708   3.588   5.668  0.8654 -0.9916 -1.5296
   86MOL   C22725897   7.489   4.155   5.525  0.7366  0.6591  0.1301
   86MOL   C22825898   7.619   4.134   5.441 -0.3536  0.4001  0.0667
   86MOL   C22925899   7.705   4.264   5.443 -0.4878  0.1343 -0.7866
   86MOL   O23025900   7.663   4.377   5.467 -0.3009 -0.5525  0.5314
   86MOL   O23125901   7.832   4.235   5.412  0.3932  0.4211 -0.5014
   86MOL   C23225902   0.025   4.338   5.425  0.4773 -0.2152 -0.0790
   86MOL   C23325903   0.157   4.266   5.449 -0.0097 -0.7046 -0.6376
   86MOL   H23425904   7.442   4.242   5.478  0.4376 -0.1137 -1.0030
   86MOL   H23525905   7.517   4.189   5.625  1.1007  0.0787  0.2241
   86MOL   H23625906   7.669   4.055   5.497  1.1394  0.5563 -1.0003
   86MOL   H23725907   0.031   4.406   5.341 -0.8759  1.6340  1.2862
   86MOL   H23825908   0.011   4.403   5.511 -0.6354  2.0236 -1.9147
   86MOL   H23925909   0.176   4.187   5.377  1.7223 -0.1290 -0.8179
   86MOL   H24025910   0.162   4.216   5.546  1.9988  1.0700  0.2167
   86MOL   H24125911   0.237   4.340   5.451 -2.1469  1.6458  0.8635
   86MOL   C24225912   7.599   4.086   5.297  0.4223 -0.4911 -0.4725
   86MOL   C24325913   7.530   4.176   5.188 -0.2567 -0.3656  0.2689
   86MOL   C24425914   7.377   4.190   5.194  0.0282 -0.6223 -0.0120
   86MOL   O24525915   7.309   4.105   5.251 -0.8190 -0.0413 -0.3689
   86MOL   O24625916   7.335   4.292   5.123  0.1237 -0.0808 -0.0742
   86MOL   C24725917   7.196   4.309   5.113 -0.2787 -0.3694  0.3432
   86MOL   C24825918   7.168   4.450   5.050  0.1106  0.1557  0.7216
   86MOL   H24925919   7.702   4.071   5.266  1.6772  4.7065  0.6069
   86MOL   H25025920   7.550   3.989   5.296 -0.6817  0.0498  0.1898
   86MOL   H25125921   7.574   4.276   5.195  1.7088 -1.3006  1.7041
   86MOL   H25225922   7.149   4.225   5.062 -0.6352 -1.3038  2.1654
   86MOL   H25325923   7.171   4.313   5.219 -0.0993  2.2833  0.3131
   86MOL   H25425924   7.218   4.528   5.107 -0.7464  0.5415  0.9539
   86MOL   H25525925   7.061   4.467   5.039  0.2157 -0.2918 -1.1763
   86MOL   H25625926   7.217   4.452   4.953  1.1218 -2.6558  1.1027
   86MOL   C25725927   7.574   4.126   5.047  0.4639  0.1513 -0.0703
   86MOL   C25825928   7.720   4.162   5.012  0.1734 -0.0754 -0.2664
   86MOL   C25925929   7.735   4.307   4.975  0.1053  0.6019 -0.4332
   86MOL   O26025930   7.760   4.389   5.065  0.4241  0.0629 -0.6103
   86MOL   O26125931   7.714   4.328   4.841 -0.3983  0.2151 -0.5881
   86MOL   C26225932   7.715   4.462   4.794  0.2093  0.0683  0.1297
   86MOL   C26325933   7.639   4.470   4.662 -0.0292  0.4907  0.5248
   86MOL   H26425934   7.568   4.017   5.046  0.1894  0.0828  3.2851
   86MOL   H26525935   7.505   4.170   4.975  1.0867 -1.1010 -1.4564
   86MOL   H26625936   7.783   4.165   5.101 -4.2313  0.2826  2.9863
   86MOL   H26725937   7.661   4.522   4.868  2.0365 -0.2872  1.7873
   86MOL   H26825938   7.814   4.492   4.761  0.5326 -0.0179  1.0161
   86MOL   H26925939   7.544   4.417   4.664  0.4493 -0.3956  0.0974
   86MOL   H27025940   7.694   4.433   4.575 -1.3066  0.8912 -0.4611
   86MOL   H27125941   7.619   4.576   4.645  0.3502  0.8246  2.0805
   86MOL   C27225942   7.788   4.071   4.899  0.1231 -0.5905 -0.3081
   86MOL   C27325943   7.843   3.941   4.968 -0.0190 -1.0175  0.2571
   86MOL   C27425944   0.048   3.964   5.071  0.4703 -0.7135 -0.1524
   86MOL   O27525945   0.136   4.050   5.043  0.1756 -0.0235 -0.0953
   86MOL   O27625946   0.038   3.893   5.177 -0.4774  0.1647 -0.0066
   86MOL   C27725947   0.132   3.905   5.280  0.0197  0.0663  0.3573
   86MOL   C27825948   0.079   3.864   5.410 -0.1484  0.2165  0.0248
   86MOL   H27925949   7.707   4.046   4.830 -0.2767  0.8212 -0.3893
   86MOL   H28025950   7.860   4.121   4.835 -0.7471 -0.4014 -1.1653
   86MOL   H28125951   7.759   3.911   5.030 -0.6404  0.9188  0.3752
   86MOL   H28225952   0.222   3.850   5.253 -1.6152 -2.7027  0.2854
   86MOL   H28325953   0.165   4.007   5.298 -1.5933  0.2810  2.3672
   86MOL   H28425954   0.156   3.869   5.487 -0.5441 -0.0998  0.4471
   86MOL   H28525955   0.043   3.761   5.406  0.6016 -0.1459  1.9987
   86MOL   H28625956   7.903   3.927   5.440  1.1427  1.5261  0.9575
   86MOL   C28725957   7.881   3.827   4.865  0.8678  0.0688  0.3233
   86MOL   C28825958   0.007   3.688   4.923  0.3514  0.4478  0.4823
   86MOL   C28925959   7.800   3.631   5.009  0.9185 -0.3137 -0.2671
   86MOL   O29025960   7.682   3.640   4.972 -0.2199 -0.2761 -0.3750
   86MOL   O29125961   7.838   3.583   5.128 -0.1024  0.5978  0.1584
   86MOL   C29225962   7.741   3.523   5.212  0.7864 -0.4655 -0.0971
   86MOL   C29325963   7.810   3.447   5.318  0.1473 -0.2962  0.3017
   86MOL   H29425964   7.794   3.808   4.802  0.0899  0.1789  1.3393
   86MOL   H29525965   0.047   3.848   4.789  0.3376  0.7426 -0.0120
   86MOL   H29625966   0.031   3.610   4.850 -0.2675 -0.5457  1.3234
   86MOL   H29725967   7.677   3.602   5.252  3.0074  1.2852  0.1181
   86MOL   H29825968   7.669   3.464   5.156 -4.0316  2.0265  3.0912
   86MOL   H29925969   7.743   3.433   5.403  0.9982  0.1321  1.0634
   86MOL   H30025970   7.903   3.489   5.358  0.8407  0.6595 -2.2194
   86MOL   H30125971   7.835   3.347   5.282  0.8242 -0.0347  0.0440
   86MOL   H30225972   0.092   3.707   4.989  0.2509  0.9224  0.4755
   87MOL     C125973   2.068   5.168   2.997  0.5210  0.5150  0.3845
   87MOL     C225974   2.217   5.148   2.972  0.4264 -0.9177 -0.1520
   87MOL     C325975   2.230   5.151   2.824  0.3353 -0.5223  0.4141
   87MOL     O425976   2.271   5.059   2.759  1.1108 -0.4540  0.4465
   87MOL     O525977   2.185   5.271   2.772  0.2921 -0.4465 -0.1964
   87MOL     C625978   2.169   5.275   2.627  0.3746 -0.5143 -0.5977
   87MOL     C725979   2.034   5.216   2.583 -0.3982  0.3640  0.2696
   87MOL     H825980   2.031   5.163   3.100 -1.0072  0.3216 -0.1627
   87MOL     H925981   2.014   5.088   2.948 -0.5209  0.6715  1.2515
   87MOL    H1025982   2.262   5.242   3.005  0.5888 -0.6943 -1.0085
   87MOL    H1125983   2.178   5.378   2.593  0.0483 -0.3306 -0.1275
   87MOL    H1225984   2.254   5.230   2.576  0.9384 -0.3930  0.2190
   87MOL    H1325985   1.952   5.262   2.639 -0.7357 -0.4033  0.4153
   87MOL    H1425986   2.046   5.108   2.590  1.6137  0.5845  0.5321
   87MOL    H1525987   2.034   5.227   2.475  0.3633  1.9279  0.4138
   87MOL    H1625988   2.029   5.263   2.961 -0.4134  0.6601  1.7366
   87MOL    C1725989   2.266   5.021   3.055  0.3038  0.9471 -0.3233
   87MOL    C1825990   2.415   5.007   3.084 -0.3861 -0.4918 -0.7699
   87MOL    C1925991   2.477   5.149   3.108 -0.9550  1.0825 -0.1804
   87MOL    O2025992   2.462   5.196   3.225 -0.6697  0.6493 -0.1591
   87MOL    O2125993   2.515   5.218   2.999  0.0597  0.8167  0.0988
   87MOL    C2225994   2.583   5.342   3.019  0.1248  0.2632 -0.0615
   87MOL    C2325995   2.482   5.452   3.001 -0.6866 -0.1816 -0.1468
   87MOL    H2425996   2.212   5.015   3.150  2.9922  0.4709  1.2135
   87MOL    H2525997   2.221   4.933   3.009 -2.5297  2.7663 -1.1888
   87MOL    H2625998   2.430   4.948   3.174 -0.8838 -0.0577 -0.3975
   87MOL    H2725999   2.627   5.357   3.118 -2.4212  0.6628  1.0530
   87MOL    H2826000   2.663   5.345   2.945 -1.5201  0.7878 -1.8448
   87MOL    H2926001   2.534   5.540   3.039 -0.6383  0.2288 -1.1424
   87MOL    H3026002   2.387   5.443   3.054  0.9464 -0.5805  2.8285
   87MOL    H3126003   2.466   5.475   2.896  0.1454  0.4933 -0.1280
   87MOL    C3226004   2.483   4.928   2.972 -0.7306  0.8612  0.1872
   87MOL    C3326005   2.637   4.901   2.987 -0.1666  0.5337  0.7332
   87MOL    C3426006   2.687   4.802   2.876  0.3617 -0.3098 -0.1880
   87MOL    O3526007   2.610   4.709   2.829 -0.3452  0.6259  0.2297
   87MOL    O3626008   2.814   4.823   2.839  0.4570 -1.0799 -0.1776
   87MOL    C3726009   2.874   4.760   2.731  0.2471  0.4853  0.5724
   87MOL    C3826010   2.996   4.852   2.703  0.4918 -0.5615  0.3610
   87MOL    H3926011   2.435   4.830   2.966  0.9156  0.0846 -0.8622
   87MOL    H4026012   2.473   4.974   2.874 -1.1562 -2.7859 -1.5916
   87MOL    H4126013   2.690   4.996   2.979  0.7874  0.0051  0.7623
   87MOL    H4226014   2.900   4.658   2.761  0.9736  0.2591 -0.7974
   87MOL    H4326015   2.804   4.756   2.647 -0.0749 -1.1436  0.8928
   87MOL    H4426016   3.053   4.845   2.796 -1.7175 -2.0460  1.6197
   87MOL    H4526017   2.966   4.956   2.689  0.0323 -0.5725  1.2553
   87MOL    H4626018   3.061   4.823   2.620 -1.5254 -1.2907 -0.9804
   87MOL    C4726019   2.683   4.851   3.127 -0.7030 -0.0512  0.2743
   87MOL    C4826020   2.645   4.707   3.178  0.7558 -0.4023  1.0139
   87MOL    C4926021   2.510   4.704   3.260  0.5364 -0.3158  0.9307
   87MOL    O5026022   2.421   4.623   3.237 -0.0847  0.0002  0.4251
   87MOL    O5126023   2.520   4.797   3.358 -0.0200 -0.0919 -0.2361
   87MOL    C5226024   2.417   4.791   3.462 -0.1353 -0.1091 -0.1358
   87MOL    C5326025   2.288   4.859   3.427  0.4017  0.0055 -0.2251
   87MOL    H5426026   2.789   4.870   3.146 -1.3093  1.1066  2.7413
   87MOL    H5526027   2.635   4.919   3.198 -1.7507 -0.3800 -0.1044
   87MOL    H5626028   2.612   4.647   3.093 -0.1021  0.8246  0.4592
   87MOL    H5726029   2.397   4.689   3.493 -0.8914  0.3711  0.9774
   87MOL    H5826030   2.469   4.841   3.545  1.2068 -0.8692 -0.4977
   87MOL    H5926031   2.257   4.833   3.326 -1.1487 -1.8357  0.7138
   87MOL    H6026032   2.291   4.968   3.427 -0.2750  0.0549  1.7492
   87MOL    H6126033   2.212   4.822   3.496 -1.5152  0.9073 -1.8225
   87MOL    C6226034   2.766   4.626   3.246  0.0602  0.3640  0.1443
   87MOL    C6326035   2.878   4.566   3.147 -0.1100 -0.4428  0.0144
   87MOL    C6426036   2.816   4.448   3.067 -0.3902 -0.7253  0.4337
   87MOL    O6526037   2.728   4.372   3.117  0.3465 -0.2836  0.1081
   87MOL    O6626038   2.863   4.449   2.936  0.1199 -0.2311  0.1314
   87MOL    C6726039   2.829   4.337   2.855  0.0627 -0.0407  0.0984
   87MOL    C6826040   2.782   4.385   2.723 -0.4129 -0.6295 -0.1506
   87MOL    H6926041   2.814   4.693   3.318 -0.0006 -0.3203  0.8306
   87MOL    H7026042   2.716   4.552   3.309  0.3006 -0.4603 -0.6330
   87MOL    H7126043   2.896   4.649   3.078  0.8191 -2.3783 -2.1068
   87MOL    H7226044   2.916   4.272   2.847  0.4200  0.2811  1.3792
   87MOL    H7326045   2.745   4.278   2.891 -1.0411  1.7036  0.4276
   87MOL    H7426046   2.766   4.301   2.655  1.3463 -2.2218  1.3541
   87MOL    H7526047   2.864   4.446   2.683 -1.0914  0.7807  0.5776
   87MOL    H7626048   2.691   4.444   2.727  0.3117  0.4121  1.5081
   87MOL    C7726049   3.006   4.529   3.218 -0.2401 -0.0964  0.4338
   87MOL    C7826050   3.124   4.482   3.134  0.2897  0.2964 -0.1737
   87MOL    C7926051   3.125   4.334   3.086 -0.0439  0.5451  0.3780
   87MOL    O8026052   3.189   4.305   2.983 -0.7102  0.4798  0.0093
   87MOL    O8126053   3.068   4.244   3.165  0.0864 -0.4850  0.0891
   87MOL    C8226054   3.057   4.110   3.123  0.8429 -0.1809  0.8236
   87MOL    C8326055   2.908   4.073   3.105 -0.2453 -0.2387  0.5630
   87MOL    H8426056   3.044   4.620   3.265  3.8343 -1.5972  0.2488
   87MOL    H8526057   2.989   4.462   3.302 -2.0363  0.3057  0.3918
   87MOL    H8626058   3.117   4.535   3.039  0.6266  1.2736  0.3373
   87MOL    H8726059   3.100   4.085   3.026  1.3946  3.0144  0.1732
   87MOL    H8826060   3.091   4.040   3.199  1.0981  0.3841  1.2298
   87MOL    H8926061   2.896   3.965   3.092 -0.0137 -0.4163  1.6968
   87MOL    H9026062   2.850   4.134   3.037 -2.3659 -0.2585  2.3061
   87MOL    H9126063   2.852   4.076   3.199 -0.4277 -0.7821  0.4750
   87MOL    C9226064   3.261   4.516   3.201 -0.6590  0.2748 -0.1785
   87MOL    C9326065   3.347   4.624   3.140 -1.4407  0.0802  0.0681
   87MOL    C9426066   3.361   4.613   2.988  0.1066 -0.3417 -0.4270
   87MOL    O9526067   3.308   4.693   2.908 -0.6797 -1.1079 -0.2085
   87MOL    O9626068   3.427   4.503   2.960 -0.0177 -0.0765  0.5450
   87MOL    C9726069   3.438   4.458   2.826 -1.0796 -0.7531 -0.2645
   87MOL    C9826070   3.501   4.317   2.825  0.3507 -0.2667 -0.1019
   87MOL    H9926071   3.237   4.546   3.303  2.0346  0.1787  0.5158
   87MOL   H10026072   3.323   4.427   3.211 -0.3993  0.2260 -2.1006
   87MOL   H10126073   3.294   4.718   3.153 -1.9453 -0.4524  1.9863
   87MOL   H10226074   3.344   4.463   2.772 -1.2064  1.0823  0.0745
   87MOL   H10326075   3.504   4.523   2.768  0.6367  0.3686  2.8513
   87MOL   H10426076   3.590   4.297   2.884  1.2361  1.6490 -0.7177
   87MOL   H10526077   3.526   4.288   2.723 -0.1985 -0.8872 -0.0564
   87MOL   H10626078   3.423   4.250   2.860  0.5587 -0.9404 -0.9144
   87MOL   C10726079   3.480   4.642   3.218  0.2387 -0.1114  0.0708
   87MOL   C10826080   3.473   4.758   3.320 -0.3661 -0.6097 -0.4562
   87MOL   C10926081   3.372   4.740   3.438  0.6156 -0.3397  0.0139
   87MOL   O11026082   3.257   4.776   3.437 -0.0526 -0.3223 -0.3179
   87MOL   O11126083   3.441   4.685   3.550  0.0835  0.0614  0.3128
   87MOL   C11226084   3.388   4.697   3.681 -0.2517  1.0450  0.9526
   87MOL   C11326085   3.397   4.834   3.747 -0.2827  0.3520  0.2222
   87MOL   H11426086   3.519   4.556   3.272  0.6483 -0.1429 -0.2717
   87MOL   H11526087   3.562   4.660   3.148  1.2567  0.5992  1.4380
   87MOL   H11626088   3.573   4.750   3.362  0.1866  0.6603 -1.5097
   87MOL   H11726089   3.283   4.671   3.672  0.1325 -0.2095 -0.1776
   87MOL   H11826090   3.444   4.622   3.737 -1.6900 -0.6098  0.2202
   87MOL   H11926091   3.329   4.831   3.832  0.2419  0.4925  0.6489
   87MOL   H12026092   3.351   4.903   3.675  0.4152 -0.2549 -0.8121
   87MOL   H12126093   3.500   4.866   3.761 -0.8847  1.4579  2.3023
   87MOL   C12226094   3.467   4.902   3.263  0.8068 -0.2387  0.0706
   87MOL   C12326095   3.568   4.938   3.148  0.2061  0.6376  0.1809
   87MOL   C12426096   3.716   4.898   3.183  0.3187  0.0992 -0.0430
   87MOL   O12526097   3.790   4.862   3.095  0.1573  0.2489  0.1067
   87MOL   O12626098   3.761   4.919   3.310 -0.2200  0.2677 -0.4652
   87MOL   C12726099   3.898   4.881   3.345  0.4623  0.1827  0.0559
   87MOL   C12826100   3.891   4.840   3.488  0.1122  0.7804  0.2711
   87MOL   H12926101   3.362   4.916   3.235  1.5230 -0.2515 -2.7995
   87MOL   H13026102   3.482   4.967   3.349  1.1246 -2.1113  1.4583
   87MOL   H13126103   3.532   4.890   3.057 -0.3812  0.9811  0.2313
   87MOL   H13226104   3.928   4.791   3.290  0.1116 -1.6225  2.7126
   87MOL   H13326105   3.962   4.968   3.336  1.4878 -0.6675 -1.1174
   87MOL   H13426106   3.823   4.758   3.507 -0.6577  1.4483  0.4275
   87MOL   H13526107   3.858   4.924   3.550 -1.4437 -0.3663  1.0169
   87MOL   H13626108   3.990   4.803   3.518 -1.4755 -2.6002  1.5538
   87MOL   C13726109   3.566   5.091   3.115  0.8620 -0.3854 -0.2625
   87MOL   C13826110   3.599   5.126   2.969  0.1544 -0.4339  0.0867
   87MOL   C13926111   3.748   5.138   2.949 -0.5747 -0.6085  0.5457
   87MOL   O14026112   3.816   5.228   3.006 -0.1085 -0.4185 -0.1884
   87MOL   O14126113   3.794   5.049   2.863 -0.2920  0.3965 -0.0244
   87MOL   C14226114   3.933   5.035   2.847  0.1169 -0.0070  0.0076
   87MOL   C14326115   3.955   4.922   2.748 -0.1689  0.1239 -0.1567
   87MOL   H14426116   3.459   5.107   3.127  1.0954  0.0728  1.3426
   87MOL   H14526117   3.611   5.153   3.192 -2.2595  1.3276  0.2786
   87MOL   H14626118   3.579   5.036   2.911  0.2108 -0.5095  0.1844
   87MOL   H14726119   3.976   5.130   2.815  0.0597 -0.1996 -0.6660
   87MOL   H14826120   3.974   5.020   2.946 -1.5990 -0.3361  0.6834
   87MOL   H14926121   3.901   4.938   2.655  1.3139 -1.5590 -1.3424
   87MOL   H15026122   3.914   4.840   2.806  0.4924  0.7204  1.1879
   87MOL   H15126123   4.060   4.903   2.725 -0.3295 -0.3538 -0.4996
   87MOL   C15226124   3.511   5.245   2.909 -0.0097  0.2672 -0.3746
   87MOL   C15326125   3.355   5.222   2.889  0.0017 -0.2589  0.4915
   87MOL   C15426126   3.333   5.125   2.766  0.0130  0.2959  0.9727
   87MOL   O15526127   3.289   5.013   2.783  0.2145 -0.7293 -0.1653
   87MOL   O15626128   3.356   5.175   2.647 -0.0154  0.1032  0.1294
   87MOL   C15726129   3.334   5.107   2.530  0.9887  0.0725 -0.5065
   87MOL   C15826130   3.189   5.093   2.491 -0.5381  0.4514  0.4238
   87MOL   H15926131   3.529   5.342   2.954 -0.9409  0.8601 -1.2540
   87MOL   H16026132   3.545   5.258   2.806  0.1222  1.6954 -0.1642
   87MOL   H16126133   3.318   5.163   2.974 -2.0268 -1.8202 -1.4185
   87MOL   H16226134   3.392   5.153   2.449  2.0220 -0.1706  0.0887
   87MOL   H16326135   3.378   5.007   2.537  0.1688 -0.4215 -2.1967
   87MOL   H16426136   3.174   5.025   2.407  1.0185 -1.8208  1.9572
   87MOL   H16526137   3.145   5.192   2.477  0.3901  0.8700  0.4748
   87MOL   H16626138   3.133   5.050   2.574 -1.4652 -0.5194 -0.6764
   87MOL   C16726139   3.277   5.355   2.880  0.1576 -0.4598 -0.1984
   87MOL   C16826140   3.122   5.352   2.884 -0.1382 -0.7459 -0.7221
   87MOL   C16926141   3.061   5.277   3.005 -0.2378  0.4723  1.2587
   87MOL   O17026142   2.986   5.340   3.078 -1.0264 -0.1091  0.4064
   87MOL   O17126143   3.091   5.146   3.012  0.0034 -0.1358  0.2494
   87MOL   C17226144   3.054   5.061   3.118  0.4558  0.5188  0.0829
   87MOL   C17326145   3.085   4.919   3.093  0.2066  0.0114  0.5839
   87MOL   H17426146   3.308   5.424   2.958  1.9133  0.3941 -1.5933
   87MOL   H17526147   3.332   5.396   2.794  1.3498 -3.3455 -0.8917
   87MOL   H17626148   3.094   5.457   2.879 -1.3861 -1.0257  0.2611
   87MOL   H17726149   3.111   5.091   3.206 -0.8570 -1.5285  1.6781
   87MOL   H17826150   2.948   5.069   3.142  0.3382 -2.4805  0.7833
   87MOL   H17926151   3.070   4.862   3.185 -0.2828 -0.3783  0.2686
   87MOL   H18026152   3.184   4.906   3.048  0.4360  0.7243  0.8760
   87MOL   H18126153   3.015   4.868   3.027  2.9031  0.1588 -2.5452
   87MOL   C18226154   3.061   5.300   2.753  0.7896  0.0614  0.4447
   87MOL   C18326155   2.928   5.371   2.723 -0.2547 -0.2164  0.1280
   87MOL   C18426156   2.824   5.270   2.657 -0.9307  0.4849 -0.4910
   87MOL   O18526157   2.852   5.192   2.569 -0.4114 -0.0544  0.0067
   87MOL   O18626158   2.704   5.271   2.717 -0.5113 -0.3896 -0.4697
   87MOL   C18726159   2.604   5.180   2.680 -0.3528 -0.5423  0.7747
   87MOL   C18826160   2.527   5.236   2.552 -0.1588  0.2699 -0.3065
   87MOL   H18926161   3.134   5.321   2.675  0.2705 -1.0744 -0.3609
   87MOL   H19026162   3.045   5.192   2.755  1.4994 -0.0559 -0.1665
   87MOL   H19126163   2.879   5.399   2.816  0.2323 -1.8542  0.8861
   87MOL   H19226164   2.639   5.080   2.659 -0.2197 -0.6613  1.5511
   87MOL   H19326165   2.534   5.161   2.762  0.4135 -1.1808  1.2781
   87MOL   H19426166   2.444   5.172   2.521 -1.1397  1.9083 -1.1225
   87MOL   H19526167   2.587   5.245   2.461 -0.8421  0.2468 -0.7610
   87MOL   H19626168   2.486   5.335   2.572  2.1485  1.1131  0.4400
   87MOL   C19726169   2.955   5.493   2.630  0.5014 -0.0731  0.1063
   87MOL   C19826170   2.922   5.627   2.696 -0.4891 -0.1880  0.5392
   87MOL   C19926171   2.777   5.644   2.716 -0.0856  0.4952 -0.4066
   87MOL   O20026172   2.724   5.641   2.828 -0.1650  0.4010  0.0158
   87MOL   O20126173   2.704   5.663   2.603  0.2946  0.3140 -0.4642
   87MOL   C20226174   2.566   5.693   2.616  0.1542  0.2897 -0.4119
   87MOL   C20326175   2.499   5.674   2.480 -0.2359  0.0923 -0.0492
   87MOL   H20426176   3.057   5.489   2.594  0.4784  1.0767 -0.1175
   87MOL   H20526177   2.894   5.479   2.541  1.3313 -4.0492  0.0836
   87MOL   H20626178   2.967   5.616   2.795 -0.4684  0.5282  0.6076
   87MOL   H20726179   2.532   5.635   2.702 -1.2255  0.8004 -0.6108
   87MOL   H20826180   2.548   5.795   2.648 -1.6782 -0.8035  2.2941
   87MOL   H20926181   2.531   5.577   2.441 -2.1229  0.6449 -3.2277
   87MOL   H21026182   2.533   5.745   2.404  1.1902 -0.8701 -0.3292
   87MOL   H21126183   2.391   5.685   2.488 -0.6126  0.2446 -3.9593
   87MOL   C21226184   2.979   5.758   2.627  0.6756  0.0037 -0.2973
   87MOL   C21326185   2.960   5.899   2.688  0.9584 -0.2023 -0.5661
   87MOL   C21426186   3.038   5.904   2.824  0.8919  0.1558  0.8060
   87MOL   O21526187   3.157   5.947   2.827 -0.0901 -0.1192 -0.0570
   87MOL   O21626188   2.962   5.864   2.924  0.1004 -0.5108  0.3404
   87MOL   C21726189   3.008   5.849   3.054 -0.5774  0.2022  0.2978
   87MOL   C21826190   3.061   5.709   3.074  0.0041 -0.8800  0.0609
   87MOL   H21926191   3.084   5.731   2.619 -0.0108 -2.4121 -1.6611
   87MOL   H22026192   2.926   5.764   2.532 -0.1747  2.9967  0.3231
   87MOL   H22126193   3.019   5.965   2.625 -0.7803  2.6275  0.6711
   87MOL   H22226194   3.088   5.921   3.072 -1.2605  0.8313  0.8583
   87MOL   H22326195   2.921   5.868   3.118  0.9575 -0.8780  2.8074
   87MOL   H22426196   3.082   5.704   3.181  0.4221 -1.2717 -0.0367
   87MOL   H22526197   3.147   5.684   3.010  0.0939  2.4077 -1.1692
   87MOL   H22626198   2.976   5.646   3.049 -0.7763 -0.1175  0.8127
   87MOL   C22726199   2.813   5.965   2.682  0.4021  0.4981 -0.0899
   87MOL   C22826200   2.805   6.115   2.730  0.5263 -0.2779  0.4546
   87MOL   C22926201   2.658   6.159   2.739 -0.1132 -0.0440  0.1565
   87MOL   O23026202   2.579   6.117   2.653  0.6335 -0.3506  0.8195
   87MOL   O23126203   2.628   6.229   2.850 -0.5498 -0.0377 -0.2940
   87MOL   C23226204   2.495   6.276   2.878  0.0662  0.3991 -0.0710
   87MOL   C23326205   2.501   6.370   3.002  0.2308 -0.8103  0.2381
   87MOL   H23426206   2.769   5.963   2.582 -0.5422 -0.2560  0.3285
   87MOL   H23526207   2.743   5.903   2.738 -0.3579  0.7033 -0.8035
   87MOL   H23626208   2.848   6.106   2.830  1.2904 -0.6775  0.0981
   87MOL   H23726209   2.454   6.329   2.792 -2.9228 -0.8226  0.5151
   87MOL   H23826210   2.435   6.188   2.903  2.9055 -2.2876 -2.2509
   87MOL   H23926211   2.582   6.436   2.970  0.4787 -0.3254  1.8045
   87MOL   H24026212   2.530   6.323   3.096  0.0275 -0.0381  0.6906
   87MOL   H24126213   2.407   6.424   3.015 -0.2639 -1.3949 -0.8692
   87MOL   C24226214   2.884   6.205   2.633  0.7764 -0.0812 -0.5705
   87MOL   C24326215   2.883   6.356   2.677  0.3151  0.6068  0.1276
   87MOL   C24426216   2.829   6.443   2.559 -0.2686 -0.6809  0.1979
   87MOL   O24526217   2.897   6.524   2.500 -0.1338 -0.2104 -0.0258
   87MOL   O24626218   2.694   6.429   2.541 -0.6289 -0.4493  0.2591
   87MOL   C24726219   2.630   6.490   2.434 -0.4886  0.5012 -0.4038
   87MOL   C24826220   2.540   6.387   2.366 -0.3676  0.0473 -0.0269
   87MOL   H24926221   2.991   6.184   2.640  0.6201 -0.7208 -0.0295
   87MOL   H25026222   2.876   6.195   2.525  0.8514  2.4296 -0.8274
   87MOL   H25126223   2.794   6.372   2.739 -2.1685 -2.2648 -2.5370
   87MOL   H25226224   2.576   6.579   2.464 -1.0765 -1.2299  4.1703
   87MOL   H25326225   2.701   6.533   2.364  0.6174  1.2290  1.1265
   87MOL   H25426226   2.602   6.311   2.316 -1.0823 -1.6771  1.6398
   87MOL   H25526227   2.470   6.431   2.295 -0.9978 -1.4376 -0.3460
   87MOL   H25626228   2.471   6.337   2.433 -1.7863  0.9007 -0.8276
   87MOL   C25726229   3.028   6.397   2.737 -0.0886  0.3863 -0.3951
   87MOL   C25826230   3.022   6.505   2.843  0.0196  0.0919 -0.1095
   87MOL   C25926231   2.949   6.458   2.968  0.7359 -0.8594  0.1479
   87MOL   O26026232   2.836   6.503   2.991  0.2084 -0.0580 -0.1722
   87MOL   O26126233   3.012   6.368   3.043 -0.0782 -0.0651 -0.1717
   87MOL   C26226234   2.939   6.310   3.154 -0.2712  0.1358 -0.3002
   87MOL   C26326235   2.869   6.177   3.127 -0.2356 -0.3812 -0.1185
   87MOL   H26426236   3.075   6.321   2.799 -0.9422 -0.1461 -0.3843
   87MOL   H26526237   3.088   6.425   2.651 -3.4155 -0.1460 -3.0051
   87MOL   H26626238   3.127   6.526   2.864 -0.4509  1.1720  1.2521
   87MOL   H26726239   3.007   6.292   3.237  0.8451  3.0673 -0.5180
   87MOL   H26826240   2.866   6.384   3.188 -2.1195 -1.4733 -0.6829
   87MOL   H26926241   2.784   6.192   3.059  0.0710 -0.0807 -0.4392
   87MOL   H27026242   2.825   6.142   3.220  0.4860 -0.0738  0.3394
   87MOL   H27126243   2.944   6.105   3.096  0.5677  0.7086 -0.7346
   87MOL   C27226244   2.976   6.641   2.785  1.1324 -0.4220  0.1916
   87MOL   C27326245   2.988   6.756   2.891 -0.2320 -0.1031  0.0505
   87MOL   C27426246   2.921   6.886   2.840  0.8100  0.5011  0.0907
   87MOL   O27526247   2.828   6.938   2.902  0.5444  0.5267  0.3885
   87MOL   O27626248   2.969   6.932   2.729 -0.1616  0.0169 -0.4571
   87MOL   C27726249   2.915   7.056   2.677  0.3793  0.1688  0.7801
   87MOL   C27826250   2.961   7.184   2.758 -0.4774  0.0261 -0.1142
   87MOL   H27926251   3.032   6.658   2.693  0.2772  1.6537  0.0303
   87MOL   H28026252   2.873   6.627   2.752  1.0911  1.4664 -0.5582
   87MOL   H28126253   2.933   6.721   2.978 -3.9755  3.2280 -0.8063
   87MOL   H28226254   2.947   7.065   2.573  0.6642 -2.1320  0.6422
   87MOL   H28326255   2.806   7.048   2.681  0.4538 -0.4235  1.7515
   87MOL   H28426256   2.932   7.279   2.713  0.9297  1.3094  1.6048
   87MOL   H28526257   3.070   7.179   2.763 -0.4535  1.9522  2.8025
   87MOL   H28626258   2.929   7.173   2.861  1.7589  0.9157  0.7251
   87MOL   C28726259   3.132   6.784   2.938  0.6876  0.0498  0.4831
   87MOL   C28826260   3.139   6.805   3.091 -0.3416 -0.0504 -0.2085
   87MOL   C28926261   3.270   6.856   3.144  0.3653 -0.1661 -0.2398
   87MOL   O29026262   3.359   6.906   3.071  0.5868 -0.2485  0.5709
   87MOL   O29126263   3.266   6.860   3.278 -0.3986 -0.0898  0.1172
   87MOL   C29226264   3.367   6.922   3.346 -0.5178 -0.5042  0.3232
   87MOL   C29326265   3.361   6.878   3.492  0.1768 -0.1660 -0.1323
   87MOL   H29426266   3.194   6.698   2.912 -0.3327  0.1261 -2.3919
   87MOL   H29526267   3.181   6.868   2.890  1.5684 -0.3397  0.6717
   87MOL   H29626268   3.061   6.875   3.121  0.4364  0.0579  1.6856
   87MOL   H29726269   3.469   6.901   3.314 -0.4730  0.2777 -0.0520
   87MOL   H29826270   3.359   7.031   3.346  1.2353 -0.3614 -0.2629
   87MOL   H29926271   3.429   6.948   3.540 -1.1377  0.0233  1.4787
   87MOL   H30026272   3.413   6.786   3.519 -1.3808 -1.5018 -1.5958
   87MOL   H30126273   3.260   6.889   3.531  0.2452  0.0012 -0.0002
   87MOL   H30226274   3.111   6.717   3.149 -1.9430  0.4325 -0.2080
   88MOL     C126275   6.577   4.979   1.082  0.4898  0.1345  0.2686
   88MOL     C226276   6.671   4.864   1.054  0.2857 -0.2654  0.3634
   88MOL     C326277   6.598   4.731   1.034 -0.7527 -0.3082 -0.0441
   88MOL     O426278   6.622   4.634   1.094 -0.3796 -0.1542  0.4690
   88MOL     O526279   6.520   4.733   0.921  0.0220 -0.3778  0.7051
   88MOL     C626280   6.441   4.620   0.897 -0.5581 -0.6117  0.2494
   88MOL     C726281   6.528   4.524   0.817 -0.3265 -1.0829 -0.0026
   88MOL     H826282   6.624   5.074   1.057  0.0993 -0.3619 -2.5231
   88MOL     H926283   6.566   4.988   1.190 -0.3063 -1.6980  0.3601
   88MOL    H1026284   6.718   4.888   0.959 -0.7287  1.6780  0.3450
   88MOL    H1126285   6.399   4.569   0.985  0.2971  1.1323  1.6902
   88MOL    H1226286   6.349   4.647   0.846  0.0470  0.3026 -0.3593
   88MOL    H1326287   6.474   4.439   0.778  1.2106 -1.3427 -1.6652
   88MOL    H1426288   6.604   4.492   0.888 -1.9244 -2.5405  1.0728
   88MOL    H1526289   6.572   4.573   0.729 -1.0247 -0.2266  0.1169
   88MOL    H1626290   6.478   4.977   1.035 -0.0429  2.1329  1.2578
   88MOL    C1726291   6.792   4.866   1.149 -0.5086 -0.5904 -1.0483
   88MOL    C1826292   6.932   4.840   1.092  0.1869  0.3191  0.6101
   88MOL    C1926293   7.030   4.790   1.191  0.5555 -0.4663 -0.5538
   88MOL    O2026294   7.080   4.679   1.190  0.0259  0.3501  0.5976
   88MOL    O2126295   7.067   4.885   1.269  0.2877  0.3974 -0.0116
   88MOL    C2226296   7.171   4.882   1.357 -0.0900 -1.0418 -0.0415
   88MOL    C2326297   7.164   4.996   1.462 -0.8659 -0.8545  0.1444
   88MOL    H2426298   6.797   4.959   1.205 -0.0603 -2.5679  2.3084
   88MOL    H2526299   6.764   4.805   1.235  0.5093  0.3316 -0.0460
   88MOL    H2626300   6.909   4.752   1.031  0.0158  0.4641  0.4678
   88MOL    H2726301   7.179   4.781   1.396 -0.9981 -0.8179  0.7849
   88MOL    H2826302   7.271   4.885   1.316  0.8782  2.6315  2.3123
   88MOL    H2926303   7.249   5.003   1.530 -0.6343 -0.7884 -0.1515
   88MOL    H3026304   7.068   4.983   1.514 -1.6114 -0.6791 -1.1747
   88MOL    H3126305   7.171   5.093   1.414  0.6022 -0.8173  0.4335
   88MOL    C3226306   6.990   4.951   0.999 -0.6006 -0.1081 -0.5280
   88MOL    C3326307   7.054   4.896   0.875 -0.5778 -0.2452  0.3650
   88MOL    C3426308   7.193   4.837   0.895  0.2734  0.8679 -0.3016
   88MOL    O3526309   7.288   4.911   0.913 -0.2504  0.1614  0.4559
   88MOL    O3626310   7.199   4.702   0.883  0.0108  0.6293 -0.5787
   88MOL    C3726311   7.316   4.628   0.899  0.2990  0.1788 -0.9525
   88MOL    C3826312   7.300   4.500   0.823  0.0994  0.1834 -0.3344
   88MOL    H3926313   6.915   5.022   0.965 -0.2990  1.3835  1.8124
   88MOL    H4026314   7.057   5.019   1.053 -2.4224  0.1581  1.4760
   88MOL    H4126315   6.988   4.819   0.834 -0.3289 -0.1338 -0.2444
   88MOL    H4226316   7.400   4.686   0.861 -0.3401  2.1475  0.5862
   88MOL    H4326317   7.342   4.603   1.002 -1.4151 -0.6225 -0.7063
   88MOL    H4426318   7.397   4.450   0.817  0.3195  0.5729 -0.1155
   88MOL    H4526319   7.253   4.510   0.726 -2.3912 -3.1001  0.4722
   88MOL    H4626320   7.242   4.430   0.884  0.7840 -0.4000 -0.3435
   88MOL    C4726321   7.067   4.995   0.762  0.2137 -0.4107 -0.1070
   88MOL    C4826322   6.934   5.043   0.692  1.0082 -0.3382 -0.3191
   88MOL    C4926323   6.846   4.930   0.641  0.5225 -0.0517  0.4772
   88MOL    O5026324   6.728   4.920   0.681  0.6613 -0.1527 -0.1972
   88MOL    O5126325   6.909   4.846   0.555  0.2988  0.2532 -0.0020
   88MOL    C5226326   6.844   4.727   0.508  0.2761 -0.6865 -0.2681
   88MOL    C5326327   6.869   4.719   0.355 -0.3872  0.6973 -0.3206
   88MOL    H5426328   7.121   5.085   0.791 -1.1579  1.2890 -2.6415
   88MOL    H5526329   7.129   4.949   0.686  0.8637 -0.5041  0.4691
   88MOL    H5626330   6.867   5.085   0.768 -0.7968  0.3258 -2.2067
   88MOL    H5726331   6.889   4.641   0.559  0.6601  0.2298  0.9745
   88MOL    H5826332   6.737   4.721   0.523  0.1748  3.4617  1.4746
   88MOL    H5926333   6.844   4.624   0.308 -1.4900  0.4500  0.7408
   88MOL    H6026334   6.977   4.733   0.343  0.1992 -0.4263  3.0227
   88MOL    H6126335   6.811   4.785   0.291 -0.2356  2.7652  1.5959
   88MOL    C6226336   6.947   5.158   0.595  0.3863 -0.3116 -0.2465
   88MOL    C6326337   7.047   5.139   0.483  0.6349  0.4696  0.2619
   88MOL    C6426338   7.172   5.209   0.514 -0.4999  0.4409  0.6125
   88MOL    O6526339   7.278   5.148   0.516 -0.8229 -0.2725  0.1896
   88MOL    O6626340   7.161   5.344   0.552  0.0610  0.7638 -0.6687
   88MOL    C6726341   7.271   5.422   0.590 -0.1759 -0.3030  0.2385
   88MOL    C6826342   7.230   5.571   0.624 -0.4987 -0.2640  0.3631
   88MOL    H6926343   6.852   5.195   0.556 -0.1810  0.4205  1.7355
   88MOL    H7026344   6.975   5.237   0.665 -2.3195 -0.2312  0.7789
   88MOL    H7126345   7.063   5.032   0.466  0.0297  0.2467  1.0992
   88MOL    H7226346   7.302   5.371   0.682 -1.5634  0.5272  1.1902
   88MOL    H7326347   7.357   5.419   0.523  0.0077  4.5265  0.0670
   88MOL    H7426348   7.196   5.629   0.538  0.7734 -1.1592 -0.7880
   88MOL    H7526349   7.326   5.606   0.661 -0.4670  0.8577 -0.7436
   88MOL    H7626350   7.157   5.589   0.702 -1.4975  3.0795 -1.2691
   88MOL    C7726351   6.996   5.188   0.344 -0.2853 -0.4522 -0.5127
   88MOL    C7826352   6.963   5.083   0.238 -0.8531  0.1361 -0.5849
   88MOL    C7926353   7.085   5.025   0.170 -0.4150  0.2798 -0.3558
   88MOL    O8026354   7.126   4.913   0.198  0.1891 -0.0024 -0.2691
   88MOL    O8126355   7.153   5.120   0.101 -0.2138  0.3887  0.5138
   88MOL    C8226356   7.277   5.086   0.037  0.2167 -0.3558  0.1209
   88MOL    C8326357   7.256   5.140   7.798 -0.3981  0.5510  0.5561
   88MOL    H8426358   6.914   5.258   0.358  1.3983  1.1234  2.0757
   88MOL    H8526359   7.066   5.260   0.300 -2.4172  1.8667 -0.2093
   88MOL    H8626360   6.918   5.003   0.297  0.8132  0.5857  1.3572
   88MOL    H8726361   7.357   5.150   0.072  0.4473  0.0451 -1.1207
   88MOL    H8826362   7.315   4.985   0.056 -1.4193 -0.9887  0.1360
   88MOL    H8926363   7.345   5.118   7.738 -0.5693  1.7723 -0.1422
   88MOL    H9026364   7.236   5.247   7.800  0.6982  0.7619  0.7663
   88MOL    H9126365   7.174   5.102   7.738  0.2351  0.4995 -0.2821
   88MOL    C9226366   6.863   5.147   0.140  0.1364  0.6366 -0.0346
   88MOL    C9326367   6.823   5.072   0.015  0.0047  0.1338 -0.7982
   88MOL    C9426368   6.785   5.174   7.820 -0.1745 -0.2001  0.2633
   88MOL    O9526369   6.869   5.204   7.733 -0.1863 -0.0216  0.0514
   88MOL    O9626370   6.662   5.215   7.835 -0.4591  0.4578  0.6105
   88MOL    C9726371   6.598   5.289   7.738  0.2406  0.0761  0.0276
   88MOL    C9826372   6.459   5.256   7.732  0.1162  0.0071  0.6936
   88MOL    H9926373   6.772   5.173   0.193 -0.3169  0.4194 -0.6951
   88MOL   H10026374   6.909   5.243   0.115  1.6993 -0.5998 -2.1033
   88MOL   H10126375   6.907   5.013   7.888  0.1997  0.0534 -0.1991
   88MOL   H10226376   6.618   5.392   7.769 -0.1969  0.5391 -1.1931
   88MOL   H10326377   6.636   5.274   7.637  1.7797 -2.3351  0.9291
   88MOL   H10426378   6.401   5.294   7.648  1.7689 -3.1714 -1.9634
   88MOL   H10526379   6.412   5.286   7.826  2.8032 -0.5358  2.2623
   88MOL   H10626380   6.442   5.149   7.739 -1.6682  0.0177 -2.5278
   88MOL   C10726381   6.720   4.956   0.044  0.3471  0.5288 -0.2449
   88MOL   C10826382   6.733   4.838   7.855  0.9140  0.4568  0.0308
   88MOL   C10926383   6.608   4.748   7.860  0.6768 -0.2079  0.1770
   88MOL   O11026384   6.526   4.763   0.038 -0.1634 -0.4238  0.3892
   88MOL   O11126385   6.607   4.655   7.762  0.2677  0.8000  0.7794
   88MOL   C11226386   6.493   4.571   7.740  0.1335  0.7633  0.2746
   88MOL   C11326387   6.558   4.433   7.699  0.2477  0.4076  0.6867
   88MOL   H11426388   6.726   4.924   0.148  0.6068  3.2687  0.6142
   88MOL   H11526389   6.614   4.982   0.042  0.0257 -0.7589 -0.6380
   88MOL   H11626390   6.722   4.887   7.758 -0.3788  1.8558  0.8635
   88MOL   H11726391   6.435   4.558   7.831  2.6403 -1.5027  1.6166
   88MOL   H11826392   6.437   4.615   7.658  0.2709  2.3325  1.0139
   88MOL   H11926393   6.621   4.393   7.779  0.8849  1.8162  0.9001
   88MOL   H12026394   6.619   4.443   7.610 -0.3701 -1.7995 -0.0254
   88MOL   H12126395   6.479   4.359   7.688  1.4495 -1.2626  2.8006
   88MOL   C12226396   6.865   4.764   7.883  0.3445 -0.0081 -0.2496
   88MOL   C12326397   6.930   4.716   7.753 -1.1696  0.5520 -0.6944
   88MOL   C12426398   7.025   4.594   7.772 -0.0338 -0.2383 -0.2075
   88MOL   O12526399   6.995   4.487   7.734 -0.1145  0.1614  0.0256
   88MOL   O12626400   7.138   4.628   7.838  0.1114  0.1230 -0.5322
   88MOL   C12726401   7.240   4.541   7.866 -0.1302  0.3305 -0.1594
   88MOL   C12826402   7.297   4.593   0.088 -0.3678  0.0716  0.0921
   88MOL   H12926403   6.937   4.823   0.032  0.8194 -0.7135 -0.1231
   88MOL   H13026404   6.845   4.678   0.039  0.2249  0.0584 -0.1985
   88MOL   H13126405   6.853   4.689   7.681  0.9659 -0.8575 -2.5038
   88MOL   H13226406   7.205   4.438   7.870  0.2108  0.2793  3.0926
   88MOL   H13326407   7.325   4.559   7.801 -1.0760  0.4669 -1.3763
   88MOL   H13426408   7.315   4.700   0.083  0.5656 -0.1370 -1.4603
   88MOL   H13526409   7.398   4.553   0.103 -0.1580  0.0286 -1.3546
   88MOL   H13626410   7.240   4.567   0.177  2.2025 -2.3515  1.1194
   88MOL   C13726411   7.004   4.838   7.684 -0.2632  0.2889  0.6527
   88MOL   C13826412   7.044   4.814   7.529  0.3319 -0.0109  0.2672
   88MOL   C13926413   7.185   4.759   7.514 -0.4228 -0.1231  0.0016
   88MOL   O14026414   7.212   4.675   7.428 -0.0609 -0.1264  0.2435
   88MOL   O14126415   7.279   4.821   7.581 -0.1023  0.6844 -0.4288
   88MOL   C14226416   7.417   4.777   7.583 -0.0465 -0.4737 -0.1882
   88MOL   C14326417   7.483   4.836   7.709  0.1651 -0.4778 -0.1820
   88MOL   H14426418   6.940   4.927   7.690 -2.8299 -1.2478 -2.3337
   88MOL   H14526419   7.089   4.872   7.743  0.9550  0.2154 -1.0065
   88MOL   H14626420   6.972   4.736   7.506  0.1566 -0.5343  2.5367
   88MOL   H14726421   7.423   4.669   7.580 -1.3858 -0.5395 -0.9889
   88MOL   H14826422   7.473   4.828   7.504 -0.8839  0.8036  0.0247
   88MOL   H14926423   7.433   4.799   7.799 -0.9587 -0.8368 -0.9373
   88MOL   H15026424   7.475   4.945   7.714  0.2876 -0.4756 -0.0293
   88MOL   H15126425   7.590   4.823   7.700  0.2815 -0.0346  0.5162
   88MOL   C15226426   7.038   4.937   7.434  0.2100 -0.6903  0.1036
   88MOL   C15326427   6.906   5.015   7.438 -0.3354  0.3047  0.0335
   88MOL   C15426428   6.796   4.921   7.391  0.0469  0.8021 -0.3122
   88MOL   O15526429   6.803   4.869   7.279  0.2149 -0.2842  0.0668
   88MOL   O15626430   6.698   4.900   7.477 -0.5754  0.2075  0.5823
   88MOL   C15726431   6.583   4.820   7.451  0.3719  0.6289  0.1338
   88MOL   C15826432   6.475   4.875   7.546 -0.1363 -0.2640  0.0776
   88MOL   H15926433   7.115   5.011   7.456 -0.3286 -0.8024  2.5215
   88MOL   H16026434   7.057   4.907   7.331 -2.9370  0.5465 -0.8891
   88MOL   H16126435   6.875   5.057   7.534 -0.0680  0.5046  0.0320
   88MOL   H16226436   6.560   4.828   7.344  0.5860 -1.1171 -0.0514
   88MOL   H16326437   6.598   4.714   7.469 -0.2878  0.4554 -0.2916
   88MOL   H16426438   6.455   4.982   7.540  2.7756  0.3588  0.6219
   88MOL   H16526439   6.511   4.864   7.648  0.9758  0.0666 -0.2773
   88MOL   H16626440   6.380   4.827   7.525  0.3997 -1.6618  0.7901
   88MOL   C16726441   6.923   5.126   7.337 -0.8430  0.0607 -0.2869
   88MOL   C16826442   6.847   5.253   7.362  0.1599  0.0292  0.3067
   88MOL   C16926443   6.694   5.243   7.343  0.2174 -0.7816  0.1851
   88MOL   O17026444   6.618   5.303   7.417  0.2492 -0.7652  0.1970
   88MOL   O17126445   6.658   5.164   7.245 -0.6897  0.4461 -0.4789
   88MOL   C17226446   6.526   5.133   7.223 -0.4743  0.2537 -0.1526
   88MOL   C17326447   6.519   5.051   7.092  0.0207  1.1348  0.2849
   88MOL   H17426448   7.022   5.170   7.348 -1.2461  0.7813  0.4162
   88MOL   H17526449   6.920   5.099   7.231  4.0259 -1.7416 -0.0723
   88MOL   H17626450   6.834   5.269   7.469  0.3575 -4.1917  1.0445
   88MOL   H17726451   6.486   5.075   7.305  0.2832 -0.7997 -0.5088
   88MOL   H17826452   6.473   5.229   7.226 -0.1747  0.4064  0.3685
   88MOL   H17926453   6.569   4.955   7.104 -1.7799  0.3645  1.8610
   88MOL   H18026454   6.565   5.097   7.004  0.9784 -0.9661 -0.3481
   88MOL   H18126455   6.416   5.014   7.084  0.1661  0.8384 -0.2331
   88MOL   C18226456   6.899   5.386   7.296  0.3062 -0.0516  0.5012
   88MOL   C18326457   6.908   5.377   7.139  0.0071 -0.0222  0.9435
   88MOL   C18426458   7.045   5.336   7.083 -0.1349  0.5323  0.1853
   88MOL   O18526459   7.142   5.411   7.057 -0.4320  0.0915  0.2074
   88MOL   O18626460   7.054   5.200   7.061 -0.1529  0.5305  0.5138
   88MOL   C18726461   7.159   5.150   6.966 -0.5583 -0.3232 -0.6698
   88MOL   C18826462   7.164   5.000   6.979  0.3787 -0.3077 -0.1401
   88MOL   H18926463   6.839   5.474   7.318 -2.4484 -2.2492  2.0350
   88MOL   H19026464   6.998   5.397   7.341  0.8785  1.8947 -1.1256
   88MOL   H19126465   6.835   5.301   7.110  0.3558 -0.9628  2.5121
   88MOL   H19226466   7.137   5.195   6.869 -3.0932 -0.2655 -0.1217
   88MOL   H19326467   7.253   5.196   6.995 -0.3341 -1.6990  0.8695
   88MOL   H19426468   7.204   4.963   7.073  3.3272 -1.0841 -1.6501
   88MOL   H19526469   7.242   4.965   6.911 -0.1520 -1.6096 -0.0973
   88MOL   H19626470   7.069   4.952   6.955  0.9554 -0.6499 -1.8056
   88MOL   C19726471   6.860   5.501   7.056  0.0003 -0.3889 -0.2015
   88MOL   C19826472   6.704   5.517   7.040 -0.3839 -0.2630  0.2937
   88MOL   C19926473   6.651   5.449   6.910  0.2875  0.3159  0.1106
   88MOL   O20026474   6.595   5.338   6.922  0.5436 -0.0480  0.3014
   88MOL   O20126475   6.668   5.527   6.795  0.2557 -0.2087  0.2146
   88MOL   C20226476   6.611   5.489   6.672 -0.2243 -0.3419  0.3467
   88MOL   C20326477   6.602   5.607   6.582  0.5507 -0.0962 -0.5350
   88MOL   H20426478   6.909   5.584   7.107 -0.2538 -0.8397  0.7956
   88MOL   H20526479   6.912   5.501   6.960 -0.0930  0.4887 -0.2626
   88MOL   H20626480   6.667   5.459   7.124  0.0489 -0.3532  0.4234
   88MOL   H20726481   6.682   5.417   6.631 -0.5050 -0.4248  0.0005
   88MOL   H20826482   6.519   5.431   6.666 -0.4695  0.2172 -2.2862
   88MOL   H20926483   6.524   5.675   6.616  0.1436 -0.2446 -1.1687
   88MOL   H21026484   6.585   5.574   6.480  0.0569 -1.6604  0.0328
   88MOL   H21126485   6.695   5.665   6.581  0.2730  0.3536 -0.3634
   88MOL   C21226486   6.655   5.662   7.050  0.3316 -0.6450  0.0305
   88MOL   C21326487   6.525   5.691   7.118 -0.4352 -0.7767  0.5090
   88MOL   C21426488   6.507   5.612   7.249 -0.1625  0.4860  0.2458
   88MOL   O21526489   6.445   5.507   7.261 -0.2530 -0.4442  0.4154
   88MOL   O21626490   6.564   5.678   7.359 -0.1882  0.5716  0.0123
   88MOL   C21726491   6.576   5.609   7.481 -0.1607 -0.5723 -0.2585
   88MOL   C21826492   6.626   5.691   7.602  0.3652  0.0518  0.4367
   88MOL   H21926493   6.732   5.713   7.109 -1.7283 -0.6931  2.8327
   88MOL   H22026494   6.662   5.713   6.954  0.1287 -0.1023  0.3026
   88MOL   H22126495   6.538   5.795   7.148  2.7385 -0.2640 -2.2768
   88MOL   H22226496   6.477   5.570   7.506 -0.9667  0.1925 -2.1469
   88MOL   H22326497   6.655   5.541   7.451  0.7538 -0.0113  0.8127
   88MOL   H22426498   6.573   5.786   7.597 -2.8324 -1.6690  0.1451
   88MOL   H22526499   6.735   5.702   7.604  0.5789 -1.5061 -1.2453
   88MOL   H22626500   6.601   5.638   7.694 -0.4322 -2.0977 -0.9670
   88MOL   C22726501   6.407   5.681   7.023  0.2116  0.2366  0.3372
   88MOL   C22826502   6.384   5.802   6.931  0.2297  0.1228  0.4397
   88MOL   C22926503   6.317   5.915   7.012  0.1349  0.4918  0.2676
   88MOL   O23026504   6.196   5.913   7.036  0.0815  0.1715 -0.2108
   88MOL   O23126505   6.402   6.011   7.048  0.1557 -0.3321  0.3507
   88MOL   C23226506   6.360   6.104   7.144  0.0488  0.2514  0.6236
   88MOL   C23326507   6.431   6.236   7.123  0.2693  0.2018  0.4607
   88MOL   H23426508   6.418   5.597   6.954  0.0802 -0.4454  1.1410
   88MOL   H23526509   6.320   5.666   7.087  0.5356 -0.3523  0.6502
   88MOL   H23626510   6.481   5.834   6.892 -0.2088 -1.1587 -1.7825
   88MOL   H23726511   6.255   6.133   7.138  0.3187  0.9639 -1.0195
   88MOL   H23826512   6.390   6.074   7.244 -1.0070 -0.0906  0.8414
   88MOL   H23926513   6.415   6.297   7.212  1.9893  2.7056 -0.8860
   88MOL   H24026514   6.397   6.281   7.030 -1.3120 -0.4830  0.6800
   88MOL   H24126515   6.539   6.221   7.121  0.1883 -0.5289  1.1192
   88MOL   C24226516   6.293   5.767   6.813 -0.3550  0.8187  0.6548
   88MOL   C24326517   6.261   5.880   6.713 -0.5505 -0.9216 -0.0505
   88MOL   C24426518   6.147   5.835   6.627 -0.2348  0.5391  0.3412
   88MOL   O24526519   6.152   5.841   6.508  0.6540  0.1768  0.3484
   88MOL   O24626520   6.040   5.798   6.702 -0.2109  0.0063 -0.7047
   88MOL   C24726521   5.915   5.774   6.645 -0.3277  1.0145 -0.2634
   88MOL   C24826522   5.823   5.887   6.677  0.3591 -0.5943  0.1959
   88MOL   H24926523   6.350   5.689   6.763 -2.2685  1.1217 -2.0616
   88MOL   H25026524   6.207   5.709   6.844 -0.7577 -0.3010 -2.4113
   88MOL   H25126525   6.232   5.961   6.779 -0.8245 -3.3339  2.8795
   88MOL   H25226526   5.916   5.761   6.537 -0.9486 -1.4833 -0.0039
   88MOL   H25326527   5.888   5.677   6.686  0.5939  0.3278 -1.2728
   88MOL   H25426528   5.860   5.982   6.638 -1.4338 -0.4441 -1.2360
   88MOL   H25526529   5.801   5.899   6.783 -2.7758 -0.0677 -0.4693
   88MOL   H25626530   5.727   5.861   6.632  0.6175  0.3594 -0.9646
   88MOL   C25726531   6.376   5.945   6.633  0.2566 -0.9182  0.4743
   88MOL   C25826532   6.365   6.076   6.553  0.2592  0.0215  0.7741
   88MOL   C25926533   6.487   6.110   6.464 -1.7456  0.0448  0.1141
   88MOL   O26026534   6.568   6.201   6.484 -0.0520  0.5420 -0.4282
   88MOL   O26126535   6.499   6.005   6.374 -0.4997 -0.4183  0.3843
   88MOL   C26226536   6.620   5.988   6.298  0.2762  0.0182  0.7773
   88MOL   C26326537   6.580   5.896   6.189  0.5405  0.8437  0.9554
   88MOL   H26426538   6.455   5.965   6.706 -0.1557  2.6649  0.0087
   88MOL   H26526539   6.414   5.862   6.574 -1.8126 -2.2302  0.9092
   88MOL   H26626540   6.294   6.062   6.472  0.5468  4.8377 -0.5029
   88MOL   H26726541   6.662   6.082   6.261 -0.6116  0.5548  1.1265
   88MOL   H26826542   6.698   5.944   6.360  0.0208 -1.3714  0.1298
   88MOL   H26926543   6.529   5.807   6.227  3.8381 -1.3779  0.3492
   88MOL   H27026544   6.663   5.857   6.130 -0.0926 -2.4073  2.1328
   88MOL   H27126545   6.510   5.942   6.120 -0.2321 -2.8186 -0.7893
   88MOL   C27226546   6.321   6.192   6.643 -0.0468  0.6838  0.5330
   88MOL   C27326547   6.164   6.209   6.652  0.1880 -0.3519 -0.7156
   88MOL   C27426548   6.113   6.263   6.521 -0.8026  0.7310  0.7158
   88MOL   O27526549   6.175   6.333   6.439 -0.2231 -0.1369 -0.4716
   88MOL   O27626550   5.988   6.223   6.497  0.7228  0.3965  1.2455
   88MOL   C27726551   5.920   6.286   6.385  0.4352  0.1919 -0.0626
   88MOL   C27826552   5.790   6.212   6.359 -0.1553  0.2410 -0.4197
   88MOL   H27926553   6.356   6.178   6.745  1.1029 -0.1650  0.0261
   88MOL   H28026554   6.363   6.289   6.618 -0.0140  0.4128 -0.4803
   88MOL   H28126555   6.117   6.113   6.668 -1.2398  0.1568 -1.7212
   88MOL   H28226556   5.906   6.392   6.406  1.1301  0.5093 -1.1915
   88MOL   H28326557   5.971   6.267   6.291  2.7679 -0.3124  1.2658
   88MOL   H28426558   5.805   6.105   6.342 -1.7647 -0.1792  0.7236
   88MOL   H28526559   5.731   6.256   6.279  1.2417 -0.6082 -1.9469
   88MOL   H28626560   5.734   6.207   6.453 -1.0176 -1.8358 -1.0172
   88MOL   C28726561   6.126   6.315   6.757 -0.0904 -0.2680 -0.8532
   88MOL   C28826562   6.121   6.261   6.903 -0.3207 -0.2494  0.5535
   88MOL   C28926563   6.007   6.170   6.943 -0.9519 -0.4129  0.2788
   88MOL   O29026564   5.922   6.129   6.867 -0.2099 -0.1016  0.0362
   88MOL   O29126565   6.011   6.152   7.071 -0.1514  0.3445 -0.1910
   88MOL   C29226566   5.901   6.081   7.134 -0.1909  0.9111  0.5874
   88MOL   C29326567   5.949   6.056   7.276  0.0625 -0.2560 -0.2491
   88MOL   H29426568   6.204   6.390   6.756  0.6810 -0.9146  2.3747
   88MOL   H29526569   6.032   6.363   6.729 -0.7635 -0.8882  0.2764
   88MOL   H29626570   6.213   6.205   6.922 -0.6647 -0.9856  0.0790
   88MOL   H29726571   5.811   6.141   7.137 -0.0092  1.3621 -1.8271
   88MOL   H29826572   5.875   5.991   7.078  3.5299 -0.1486  0.4222
   88MOL   H29926573   6.035   5.991   7.264  0.6103  0.4659 -0.3039
   88MOL   H30026574   5.880   6.015   7.349 -1.2291  1.6036 -0.3865
   88MOL   H30126575   5.975   6.155   7.314 -1.7141 -0.0616  0.4992
   88MOL   H30226576   6.115   6.353   6.961 -0.4164 -1.1184  1.9305
   89MOL     C126577   0.148   2.750   2.479  0.4173  0.2487 -0.2794
   89MOL     C226578   0.169   2.597   2.430 -0.3830 -0.5154  0.1714
   89MOL     C326579   0.049   2.508   2.469 -0.7161 -0.8957  0.7497
   89MOL     O426580   7.876   2.536   2.554 -0.2102 -0.1286  0.0887
   89MOL     O526581   0.066   2.387   2.413  0.1330  0.4467 -0.1099
   89MOL     C626582   7.895   2.281   2.457 -0.3483  0.1513  0.7651
   89MOL     C726583   0.070   2.208   2.564 -0.0981  0.3264  0.0541
   89MOL     H826584   0.137   2.749   2.587  0.8730  0.1275 -0.2303
   89MOL     H926585   0.055   2.790   2.441  0.2216  0.9345  0.9120
   89MOL    H1026586   0.169   2.606   2.321  1.5590 -0.3459  0.1734
   89MOL    H1126587   7.794   2.311   2.484  0.1420  2.7999 -0.1812
   89MOL    H1226588   7.880   2.208   2.377 -1.4613  2.1290 -0.8724
   89MOL    H1326589   0.103   2.259   2.654  0.7595 -1.0988  0.5542
   89MOL    H1426590   0.157   2.160   2.519  0.0324  1.4860 -0.9613
   89MOL    H1526591   0.017   2.120   2.600  0.5777 -0.8919 -1.8224
   89MOL    H1626592   0.233   2.817   2.464  1.1822 -0.8588 -0.9602
   89MOL    C1726593   0.302   2.545   2.493  0.1366 -0.1023  0.3196
   89MOL    C1826594   0.426   2.611   2.431  0.1557 -0.1305  0.3939
   89MOL    C1926595   0.413   2.617   2.279 -0.1018 -0.1463 -0.0766
   89MOL    O2026596   0.419   2.721   2.213  0.4653 -0.5059 -0.0677
   89MOL    O2126597   0.399   2.496   2.221  0.1132  0.0548 -0.1129
   89MOL    C2226598   0.367   2.470   2.083  0.4357 -0.1610 -0.0459
   89MOL    C2326599   0.350   2.315   2.050 -0.6506 -0.3153  0.2901
   89MOL    H2426600   0.308   2.588   2.593 -0.8486 -0.7783  0.6854
   89MOL    H2526601   0.306   2.436   2.498 -0.1263 -0.1372 -0.2026
   89MOL    H2626602   0.437   2.715   2.462  3.3608 -0.4725  0.6316
   89MOL    H2726603   0.284   2.536   2.059  0.7688  0.1570 -0.3257
   89MOL    H2826604   0.456   2.510   2.033  1.8444 -1.2564  1.5051
   89MOL    H2926605   0.368   2.296   1.945 -0.0175 -4.2391  1.0566
   89MOL    H3026606   0.260   2.260   2.080 -0.6243 -0.2949  0.4098
   89MOL    H3126607   0.434   2.267   2.100 -1.0999 -0.4694  0.9074
   89MOL    C3226608   0.552   2.531   2.473  0.7983  0.1860 -0.3260
   89MOL    C3326609   0.683   2.613   2.475 -0.4185  0.2230 -0.5591
   89MOL    C3426610   0.812   2.536   2.439 -0.0188 -0.2214 -0.6641
   89MOL    O3526611   0.900   2.588   2.379 -0.0117  0.0334  0.1447
   89MOL    O3626612   0.833   2.417   2.499  0.1884 -0.1362 -0.4095
   89MOL    C3726613   0.940   2.335   2.478  0.1404  0.3607 -0.4687
   89MOL    C3826614   0.945   2.226   2.589  0.5084  0.0760 -0.8750
   89MOL    H3926615   0.525   2.485   2.567 -1.3884  0.3958 -0.8185
   89MOL    H4026616   0.577   2.445   2.412  1.3818 -0.4371  0.7859
   89MOL    H4126617   0.675   2.685   2.394  1.5176  1.6359  0.4700
   89MOL    H4226618   0.914   2.290   2.382 -1.9201  0.8065 -0.1574
   89MOL    H4326619   1.032   2.391   2.464  1.2473 -0.8509  1.6279
   89MOL    H4426620   1.033   2.166   2.568 -0.5681 -1.8617  0.0084
   89MOL    H4526621   0.862   2.155   2.584 -0.3804  0.9720  0.9982
   89MOL    H4626622   0.976   2.270   2.683 -0.1620  0.3697 -0.7928
   89MOL    C4726623   0.699   2.700   2.606 -0.7546 -0.0191 -0.0506
   89MOL    C4826624   0.820   2.783   2.613 -0.8716 -0.8935  1.1433
   89MOL    C4926625   0.828   2.841   2.754 -0.4077 -1.0962  0.5078
   89MOL    O5026626   0.725   2.876   2.813 -0.5164  0.5236  0.0994
   89MOL    O5126627   0.956   2.848   2.812 -0.3557 -0.1257 -0.1517
   89MOL    C5226628   0.977   2.893   2.946 -0.3754  0.1042  0.6873
   89MOL    C5326629   1.049   2.778   3.025 -0.4945  0.0102 -0.5483
   89MOL    H5426630   0.612   2.763   2.625 -0.0711  0.8784  0.1300
   89MOL    H5526631   0.710   2.638   2.696 -1.9595  0.2375  0.2900
   89MOL    H5626632   0.911   2.725   2.595  0.8555  2.4636 -1.6671
   89MOL    H5726633   1.036   2.984   2.937  1.0338 -0.9607 -1.2418
   89MOL    H5826634   0.882   2.919   2.993 -0.8015 -0.8255  0.3634
   89MOL    H5926635   1.139   2.749   2.970  0.6933  2.2177  0.1730
   89MOL    H6026636   0.973   2.702   3.044 -0.7719  0.7986  1.6890
   89MOL    H6126637   1.091   2.819   3.117 -0.8539 -0.3246 -0.2349
   89MOL    C6226638   0.822   2.898   2.513  0.6757 -0.1603  0.0247
   89MOL    C6326639   0.956   2.968   2.512  0.1251 -0.4262  0.7366
   89MOL    C6426640   0.933   3.120   2.532 -0.3608 -0.7521  0.7220
   89MOL    O6526641   0.890   3.201   2.448 -0.3907 -0.3155  0.1946
   89MOL    O6626642   0.953   3.152   2.663 -0.1021  0.0916  0.4094
   89MOL    C6726643   0.904   3.276   2.726  0.4996  0.5592 -0.1866
   89MOL    C6826644   0.803   3.243   2.838 -0.4686  0.4342  0.0546
   89MOL    H6926645   0.802   2.875   2.409 -0.8518  0.5597  0.1512
   89MOL    H7026646   0.738   2.963   2.538  1.3802 -0.3237  3.1317
   89MOL    H7126647   1.000   2.954   2.611  0.2607  2.9778  1.2487
   89MOL    H7226648   0.991   3.335   2.755 -1.0395  2.5913  0.4226
   89MOL    H7326649   0.856   3.348   2.660  0.6736  0.3258 -0.5738
   89MOL    H7426650   0.740   3.167   2.792  1.0791  0.6108 -2.4883
   89MOL    H7526651   0.753   3.332   2.876 -1.1134 -0.1535  0.5971
   89MOL    H7626652   0.854   3.184   2.915 -1.3769  0.1139  0.4175
   89MOL    C7726653   1.057   2.929   2.405 -0.0217  0.4426 -0.1165
   89MOL    C7826654   1.204   2.943   2.449  0.3198 -0.1929 -0.3749
   89MOL    C7926655   1.299   2.938   2.324 -0.1322 -0.0406 -0.2153
   89MOL    O8026656   1.259   2.901   2.215  0.3026 -0.4663 -0.1983
   89MOL    O8126657   1.426   2.977   2.349  0.3374  0.1598 -0.5177
   89MOL    C8226658   1.509   2.983   2.235 -0.0057  0.9070 -0.0823
   89MOL    C8326659   1.645   2.990   2.278  0.3034 -0.3355 -0.4122
   89MOL    H8426660   1.035   2.825   2.380  0.4234  0.1010  0.9173
   89MOL    H8526661   1.025   2.996   2.325 -0.7274  0.5797  0.2785
   89MOL    H8626662   1.231   3.045   2.473  1.0164  0.2258 -2.7718
   89MOL    H8726663   1.484   2.889   2.186 -2.0753  1.2389  0.2822
   89MOL    H8826664   1.488   3.066   2.168 -0.3884  0.8052 -0.0915
   89MOL    H8926665   1.680   2.900   2.329  0.0772  0.0763  0.4682
   89MOL    H9026666   1.656   3.086   2.329  1.4424  0.0870 -1.4223
   89MOL    H9126667   1.719   3.000   2.199  2.4656 -1.3363  1.4243
   89MOL    C9226668   1.258   2.839   2.538  0.1814 -0.1856  0.0783
   89MOL    C9326669   1.357   2.885   2.651  0.3631  0.0453  0.4332
   89MOL    C9426670   1.422   2.756   2.712 -0.0964  0.5888  0.1043
   89MOL    O9526671   1.536   2.728   2.671  0.1447 -0.6571 -0.7481
   89MOL    O9626672   1.341   2.686   2.796 -0.1970  0.4441 -0.3324
   89MOL    C9726673   1.390   2.555   2.851  0.3588  0.7725  0.1900
   89MOL    C9826674   1.287   2.451   2.816 -0.0250  0.4173 -0.3367
   89MOL    H9926675   1.169   2.801   2.589 -0.6632  0.9930 -0.4895
   89MOL   H10026676   1.305   2.753   2.491  0.2120  0.3214 -0.8392
   89MOL   H10126677   1.443   2.931   2.602  0.0246 -0.3978 -0.5856
   89MOL   H10226678   1.487   2.542   2.803 -0.3821  2.1738 -1.7370
   89MOL   H10326679   1.401   2.560   2.959 -0.3512 -1.6805  0.4121
   89MOL   H10426680   1.331   2.358   2.850  0.1909  0.2250 -1.1247
   89MOL   H10526681   1.280   2.429   2.709 -0.1478  0.5450 -0.3546
   89MOL   H10626682   1.187   2.465   2.857  0.0415  1.0115 -0.3752
   89MOL   C10726683   1.293   2.984   2.757 -0.2697  0.0025  0.6279
   89MOL   C10826684   1.368   3.109   2.790 -0.0296 -0.7140 -0.0834
   89MOL   C10926685   1.331   3.162   2.932  0.1524  0.2476 -0.4133
   89MOL   O11026686   1.406   3.145   3.027 -0.1915  0.0110  0.7270
   89MOL   O11126687   1.210   3.224   2.935 -0.1707  0.7399  0.5635
   89MOL   C11226688   1.167   3.277   3.059 -0.6058 -0.3477  0.1097
   89MOL   C11326689   1.063   3.185   3.121 -0.0472  0.6049 -0.0329
   89MOL   H11426690   1.200   3.020   2.713 -0.6467 -0.9155  0.6707
   89MOL   H11526691   1.272   2.936   2.852  1.0979  0.5975  1.2425
   89MOL   H11626692   1.472   3.079   2.804  0.2484 -0.5327 -1.7052
   89MOL   H11726693   1.248   3.307   3.125 -0.1738 -1.6825  0.2223
   89MOL   H11826694   1.113   3.367   3.031 -0.3429  0.0626  0.9393
   89MOL   H11926695   1.100   3.087   3.149 -3.5324 -1.0456 -0.8511
   89MOL   H12026696   0.977   3.170   3.054  1.5151  0.7416 -2.1105
   89MOL   H12126697   1.033   3.227   3.217 -1.5444  1.0105 -0.6564
   89MOL   C12226698   1.372   3.212   2.673  0.2164 -0.0618  0.2368
   89MOL   C12326699   1.480   3.323   2.691 -0.4546  0.6827  0.7551
   89MOL   C12426700   1.621   3.273   2.637 -1.0978 -0.4168 -0.2591
   89MOL   O12526701   1.669   3.331   2.536 -0.0980  0.1834 -0.7593
   89MOL   O12626702   1.674   3.175   2.708  0.2853  0.5724 -0.7684
   89MOL   C12726703   1.789   3.106   2.669 -0.0203 -0.0266 -0.2500
   89MOL   C12826704   1.820   2.997   2.778  0.1456  0.0743  0.1586
   89MOL   H12926705   1.383   3.167   2.575 -1.9583 -0.8245  0.3054
   89MOL   H13026706   1.272   3.255   2.681  1.0652  2.4434 -1.8065
   89MOL   H13126707   1.450   3.397   2.618  1.3464 -1.3316 -2.1153
   89MOL   H13226708   1.765   3.058   2.574 -0.2262  0.8468 -0.6371
   89MOL   H13326709   1.872   3.175   2.651 -1.5591  2.3520  1.4939
   89MOL   H13426710   1.737   2.928   2.797  0.6538 -0.4142  0.6182
   89MOL   H13526711   1.832   3.050   2.872 -1.4605  0.2303  0.2943
   89MOL   H13626712   1.912   2.947   2.748 -0.8557 -1.6195 -0.1985
   89MOL   C13726713   1.491   3.415   2.816 -0.5120  0.0997  0.2716
   89MOL   C13826714   1.538   3.555   2.788  0.7469 -0.1523 -0.4993
   89MOL   C13926715   1.535   3.635   2.916 -0.0286 -0.4601  0.4249
   89MOL   O14026716   1.465   3.600   3.010  0.0079 -0.0056 -0.4273
   89MOL   O14126717   1.615   3.746   2.910  0.1747 -0.7687  0.1764
   89MOL   C14226718   1.630   3.822   3.031  0.2064 -0.0129  0.3414
   89MOL   C14326719   1.713   3.947   3.002 -0.0579  0.2367  0.3584
   89MOL   H14426720   1.391   3.426   2.859 -0.2031 -1.9774  1.6245
   89MOL   H14526721   1.554   3.362   2.888 -1.8708 -3.5454 -1.1141
   89MOL   H14626722   1.641   3.542   2.754  1.2123  2.0927 -0.0377
   89MOL   H14726723   1.536   3.863   3.067 -0.6926 -1.7057 -0.0708
   89MOL   H14826724   1.684   3.764   3.106 -1.3321 -2.2978 -0.2627
   89MOL   H14926725   1.725   4.010   3.090 -0.0591 -1.2565  1.4609
   89MOL   H15026726   1.680   4.004   2.915  1.5388  0.4179 -0.1483
   89MOL   H15126727   1.816   3.916   2.980 -0.2601  1.5049 -2.6725
   89MOL   C15226728   1.462   3.638   2.680  0.8626  0.0436 -0.1172
   89MOL   C15326729   1.315   3.688   2.709  0.1699 -0.6132  0.8139
   89MOL   C15426730   1.197   3.587   2.685  0.0749  0.5120  0.4144
   89MOL   O15526731   1.149   3.512   2.769  0.2130  0.1711 -0.3975
   89MOL   O15626732   1.153   3.591   2.559 -0.7009 -0.5686  0.7000
   89MOL   C15726733   1.068   3.486   2.521  0.3371  0.5573  0.4087
   89MOL   C15826734   1.004   3.525   2.397 -1.0068 -0.2019  1.0641
   89MOL   H15926735   1.529   3.722   2.663 -0.0082  0.6839 -0.4075
   89MOL   H16026736   1.457   3.593   2.581 -2.7892  2.7200 -1.2539
   89MOL   H16126737   1.317   3.709   2.816  3.7726 -0.2503  0.7181
   89MOL   H16226738   1.111   3.387   2.511 -0.3475  0.2582  0.3896
   89MOL   H16326739   0.988   3.480   2.595 -0.1791  0.1021 -0.1831
   89MOL   H16426740   1.075   3.558   2.321  1.3530  2.3924  4.2572
   89MOL   H16526741   0.936   3.608   2.414 -1.3748 -0.0730 -1.0003
   89MOL   H16626742   0.954   3.434   2.365  1.5517 -1.8491  1.5860
   89MOL   C16726743   1.297   3.820   2.633  0.4328  0.1096  0.3048
   89MOL   C16826744   1.328   3.952   2.704  0.1687  0.2678  0.1115
   89MOL   C16926745   1.256   3.954   2.837  0.3973 -0.1860 -0.4258
   89MOL   O17026746   1.134   3.972   2.841  0.2675 -0.0089  0.1574
   89MOL   O17126747   1.342   3.971   2.940  0.0272 -0.4228 -0.0721
   89MOL   C17226748   1.294   3.963   3.075  0.0408 -0.0837 -0.0115
   89MOL   C17326749   1.333   4.098   3.138 -0.2086  0.1885  0.0812
   89MOL   H17426750   1.351   3.822   2.538 -0.6869 -0.3476 -0.3409
   89MOL   H17526751   1.192   3.825   2.604 -0.3373 -0.3340  2.8408
   89MOL   H17626752   1.433   3.935   2.730  0.1003 -0.6167 -0.1827
   89MOL   H17726753   1.186   3.952   3.063 -0.0044  1.0134 -0.6381
   89MOL   H17826754   1.319   3.873   3.131  1.5080  1.7197  2.2974
   89MOL   H17926755   1.441   4.103   3.151 -0.4278  0.5408  1.8460
   89MOL   H18026756   1.283   4.105   3.234  0.8470  1.6928  0.5280
   89MOL   H18126757   1.298   4.174   3.069 -0.4206 -0.8716 -0.9978
   89MOL   C18226758   1.310   4.082   2.630 -0.1837 -0.5992  1.0784
   89MOL   C18326759   1.371   4.215   2.695  0.0910  0.0742 -0.5173
   89MOL   C18426760   1.321   4.339   2.629 -0.8192  0.1993 -0.5592
   89MOL   O18526761   1.313   4.446   2.688  0.1998  0.3532 -0.9291
   89MOL   O18626762   1.287   4.319   2.498  0.4248 -0.0166 -0.3891
   89MOL   C18726763   1.235   4.428   2.417  0.2115 -0.1807  0.4371
   89MOL   C18826764   1.081   4.429   2.417  0.2225 -0.1852  0.5752
   89MOL   H18926765   1.355   4.067   2.532 -0.0323  0.2727  1.0145
   89MOL   H19026766   1.203   4.099   2.621 -0.3292 -1.5279  0.9403
   89MOL   H19126767   1.354   4.223   2.802  2.5099 -0.6429 -0.0302
   89MOL   H19226768   1.271   4.529   2.436 -1.5405  0.6171 -0.3621
   89MOL   H19326769   1.266   4.407   2.314  1.3238  1.0796  0.4953
   89MOL   H19426770   1.027   4.335   2.401 -3.0069  1.8024 -0.6526
   89MOL   H19526771   1.045   4.509   2.352 -1.0516  0.6550  2.2868
   89MOL   H19626772   1.048   4.468   2.513  0.4883  0.4659  0.4069
   89MOL   C19726773   1.526   4.199   2.666  0.3253 -0.2332  0.2279
   89MOL   C19826774   1.620   4.317   2.699  0.0707 -0.1180  0.0444
   89MOL   C19926775   1.756   4.298   2.635 -0.1237  0.0470 -0.0061
   89MOL   O20026776   1.815   4.377   2.565  0.1651 -0.4451 -0.2809
   89MOL   O20126777   1.819   4.197   2.688  0.5335  0.2724  0.0612
   89MOL   C20226778   1.947   4.164   2.647  0.0344 -0.0353 -0.5076
   89MOL   C20326779   2.006   4.058   2.743  0.8191  0.5671  0.0112
   89MOL   H20426780   1.563   4.109   2.715  2.4798  0.4546 -0.1047
   89MOL   H20526781   1.538   4.172   2.561  1.7570 -1.7282  0.7543
   89MOL   H20626782   1.573   4.393   2.636  1.0948 -2.3195 -3.5283
   89MOL   H20726783   1.944   4.126   2.545  0.8323 -2.7064  0.4270
   89MOL   H20826784   2.015   4.249   2.656  0.2201 -0.2032 -0.3155
   89MOL   H20926785   1.957   3.962   2.726 -0.5919  1.1627  0.6158
   89MOL   H21026786   2.019   4.078   2.849 -0.8558 -3.0178  0.9828
   89MOL   H21126787   2.107   4.037   2.708  0.6101  1.4447 -1.1703
   89MOL   C21226788   1.614   4.363   2.849 -0.4726  0.0564 -0.1579
   89MOL   C21326789   1.696   4.495   2.877  0.3936 -0.7574 -0.4109
   89MOL   C21426790   1.851   4.497   2.899  0.4787 -0.3360  0.6120
   89MOL   O21526791   1.919   4.402   2.932 -0.6440  0.2465  0.6427
   89MOL   O21626792   1.901   4.613   2.869 -0.1596 -0.3724  0.3499
   89MOL   C21726793   2.042   4.626   2.876 -1.1466 -0.9499 -0.6303
   89MOL   C21826794   2.073   4.761   2.807 -0.1591  0.7846 -0.6664
   89MOL   H21926795   1.511   4.378   2.883 -0.5355 -0.6665 -0.0234
   89MOL   H22026796   1.653   4.277   2.903 -1.4824 -1.0878 -1.2154
   89MOL   H22126797   1.687   4.567   2.796  0.0945  2.1684  2.1485
   89MOL   H22226798   2.066   4.637   2.982 -2.4832 -0.1582 -0.3994
   89MOL   H22326799   2.090   4.542   2.827  0.0291 -0.1161 -0.9175
   89MOL   H22426800   2.179   4.787   2.808  0.0967 -0.0743 -2.4814
   89MOL   H22526801   2.016   4.841   2.855 -0.2755  0.5026 -0.3274
   89MOL   H22626802   2.043   4.762   2.702 -0.7133 -0.5552 -0.5366
   89MOL   C22726803   1.629   4.565   2.996  0.1436 -0.0091  0.1655
   89MOL   C22826804   1.680   4.524   3.137  0.5636 -0.1959  0.0523
   89MOL   C22926805   1.616   4.393   3.194 -0.1993  0.8610 -0.0438
   89MOL   O23026806   1.502   4.354   3.161 -0.4869 -0.5243  0.2185
   89MOL   O23126807   1.681   4.343   3.304  0.1085 -0.3168 -0.4301
   89MOL   C23226808   1.620   4.255   3.402  0.1313 -0.5147 -0.5552
   89MOL   C23326809   1.720   4.215   3.504  0.0754 -0.3007 -0.1989
   89MOL   H23426810   1.666   4.668   2.987  2.3955 -0.9087 -1.3581
   89MOL   H23526811   1.521   4.570   2.999  0.1121 -0.4941 -0.2301
   89MOL   H23626812   1.788   4.510   3.139  0.2431 -2.8364 -0.1110
   89MOL   H23726813   1.535   4.308   3.447  1.2236  2.2268 -1.5693
   89MOL   H23826814   1.576   4.172   3.347 -1.1724 -0.4175  0.3057
   89MOL   H23926815   1.664   4.167   3.585 -2.6339  1.5582 -0.9191
   89MOL   H24026816   1.774   4.294   3.557  1.4641 -2.0027  0.9974
   89MOL   H24126817   1.785   4.136   3.465 -0.9893 -1.2504 -0.0889
   89MOL   C24226818   1.650   4.647   3.220 -0.3587  0.9083  0.1846
   89MOL   C24326819   1.770   4.744   3.241 -0.4280 -0.7473 -0.3707
   89MOL   C24426820   1.880   4.685   3.331  0.6999 -0.8405 -0.7542
   89MOL   O24526821   1.871   4.684   3.454  0.4459  0.5530  0.4760
   89MOL   O24626822   1.973   4.621   3.259  0.3544 -0.2217 -0.5475
   89MOL   C24726823   2.082   4.567   3.326 -0.5575  0.1275 -0.1691
   89MOL   C24826824   2.047   4.416   3.340  0.4747  0.2320  0.2000
   89MOL   H24926825   1.563   4.701   3.182 -0.8362 -1.6374 -2.5466
   89MOL   H25026826   1.627   4.612   3.320  0.8530  0.0179  0.1528
   89MOL   H25126827   1.818   4.764   3.145  1.9423 -0.9438  0.7275
   89MOL   H25226828   2.171   4.578   3.264 -0.5190 -1.5387 -0.4191
   89MOL   H25326829   2.102   4.624   3.417 -0.9909  0.2479 -0.1499
   89MOL   H25426830   2.092   4.361   3.257  0.8672 -0.6977  1.0079
   89MOL   H25526831   1.940   4.395   3.333  0.2079  2.1722 -2.3080
   89MOL   H25626832   2.092   4.363   3.424  0.6324 -0.4934 -0.3391
   89MOL   C25726833   1.725   4.885   3.291  0.1443 -0.1823 -0.0480
   89MOL   C25826834   1.815   5.015   3.281  0.3965  0.3802  0.2324
   89MOL   C25926835   1.932   5.014   3.376  0.7551 -0.1539  0.6252
   89MOL   O26026836   2.043   4.983   3.334  0.6676 -0.4728 -0.4826
   89MOL   O26126837   1.897   5.041   3.502  0.4072  0.3473 -0.4831
   89MOL   C26226838   1.997   5.022   3.610  0.0545 -0.2482 -0.7237
   89MOL   C26326839   2.012   5.145   3.706 -0.3028 -0.6052 -0.4066
   89MOL   H26426840   1.630   4.912   3.245  0.1133  0.2623  0.2735
   89MOL   H26526841   1.690   4.873   3.394 -0.1908  0.9416 -0.0207
   89MOL   H26626842   1.860   5.018   3.182  0.0054  0.3472  0.0515
   89MOL   H26726843   1.947   4.947   3.671  0.7962 -0.4826 -0.4009
   89MOL   H26826844   2.100   4.997   3.583  0.3274  1.6112 -1.4787
   89MOL   H26926845   2.065   5.126   3.799  0.7690  0.8152 -0.7098
   89MOL   H27026846   1.912   5.180   3.731 -0.2396 -0.0704 -0.8763
   89MOL   H27126847   2.054   5.231   3.653 -0.2769 -1.4044 -1.7134
   89MOL   C27226848   1.725   5.134   3.310 -0.7061  0.3683  0.0697
   89MOL   C27326849   1.631   5.181   3.200  0.7842  0.4041  0.0004
   89MOL   C27426850   1.690   5.203   3.061 -0.2292 -0.6497 -1.2055
   89MOL   O27526851   1.741   5.311   3.041  0.7649  0.0975  0.5034
   89MOL   O27626852   1.676   5.100   2.976  0.0423 -0.4583  0.1009
   89MOL   C27726853   1.733   5.114   2.845 -0.0408 -0.5100 -0.1017
   89MOL   C27826854   1.769   4.976   2.797 -0.1562 -0.0626 -0.0069
   89MOL   H27926855   1.665   5.109   3.397  1.4838  0.7761  1.7482
   89MOL   H28026856   1.781   5.225   3.333 -1.2421  0.6218  0.3848
   89MOL   H28126857   1.558   5.100   3.192  0.5894  0.3707  1.8914
   89MOL   H28226858   1.657   5.170   2.789  1.3052  1.9831  0.4928
   89MOL   H28326859   1.820   5.179   2.845 -0.0210 -0.5326  0.7194
   89MOL   H28426860   1.838   4.998   2.715  1.7591 -0.3191  1.4946
   89MOL   H28526861   1.677   4.931   2.761 -0.7377  0.7223  0.5065
   89MOL   H28626862   1.806   4.911   2.877 -0.2123  0.5910  0.5512
   89MOL   C28726863   1.556   5.306   3.257  0.2877  0.3414  0.4171
   89MOL   C28826864   1.417   5.355   3.196  0.4392  0.3141  0.2314
   89MOL   C28926865   1.326   5.240   3.162  0.7792  0.2177  0.6167
   89MOL   O29026866   1.216   5.235   3.218  0.5730 -0.5507 -0.1347
   89MOL   O29126867   1.367   5.157   3.063  0.0670 -0.7561  0.0369
   89MOL   C29226868   1.279   5.060   3.017  0.7800  0.0578  0.2799
   89MOL   C29326869   1.366   4.939   2.978 -0.3810 -1.2035 -0.5812
   89MOL   H29426870   1.530   5.293   3.362  0.8938  1.4422  0.7162
   89MOL   H29526871   1.619   5.394   3.269  0.1127  0.6815 -1.0650
   89MOL   H29626872   1.376   5.429   3.265  3.6688  1.2214  1.3110
   89MOL   H29726873   1.202   5.024   3.085 -0.2456  0.3238 -0.7200
   89MOL   H29826874   1.232   5.089   2.923 -0.9651  0.0886  1.1349
   89MOL   H29926875   1.419   4.909   3.069  0.0635  0.8349 -0.1482
   89MOL   H30026876   1.439   4.968   2.903 -1.9263 -0.5164 -1.8472
   89MOL   H30126877   1.303   4.868   2.924 -1.8497  0.3188 -0.9229
   89MOL   H30226878   1.437   5.412   3.105 -0.3267  1.0323  0.5078
   90MOL     C126879   3.342   7.061   7.563 -0.2924  0.2750 -0.0949
   90MOL     C226880   3.402   7.193   7.598  0.5869  0.4891 -0.0368
   90MOL     C326881   3.356   7.313   7.504 -0.0207  0.2829  0.9363
   90MOL     O426882   3.434   7.395   7.456  0.2977  0.3628  0.3978
   90MOL     O526883   3.223   7.332   7.496 -0.5833  0.1364 -0.1540
   90MOL     C626884   3.165   7.436   7.422  0.3306  0.0243  0.5340
   90MOL     C726885   3.170   7.402   7.270  0.3625  0.2164 -0.0390
   90MOL     H826886   3.375   6.979   7.627  2.1669  0.3895 -1.1567
   90MOL     H926887   3.355   7.031   7.459 -2.4965 -1.5646  0.1258
   90MOL    H1026888   3.364   7.216   7.698  0.5721 -0.7536  0.2432
   90MOL    H1126889   3.059   7.445   7.445 -0.0095 -0.2891 -0.8249
   90MOL    H1226890   3.206   7.532   7.454  0.1525  0.4468 -0.4651
   90MOL    H1326891   3.108   7.464   7.206  0.5067 -1.5098 -1.9197
   90MOL    H1426892   3.131   7.302   7.251 -1.3942  0.8374  0.2041
   90MOL    H1526893   3.267   7.408   7.219  0.4142  1.1691  0.1605
   90MOL    H1626894   3.233   7.061   7.563 -0.2966 -1.4353 -0.0180
   90MOL    C1726895   3.558   7.190   7.601  0.0060 -0.8395 -0.2079
   90MOL    C1826896   3.626   7.071   7.672 -0.0964 -0.4182  0.3663
   90MOL    C1926897   3.602   7.086   7.829  0.5679 -0.3561 -0.6551
   90MOL    O2026898   3.487   7.076   7.877  0.4154  0.0254  0.3345
   90MOL    O2126899   3.708   7.121   7.898 -0.2358 -0.0296 -0.3364
   90MOL    C2226900   3.706   7.177   0.121 -0.9189 -0.3373  0.5196
   90MOL    C2326901   3.745   7.315   0.111 -0.1989 -0.3100  0.5820
   90MOL    H2426902   3.580   7.176   7.495 -2.4294  1.4405 -1.0541
   90MOL    H2526903   3.604   7.282   7.637 -0.2160 -0.4758 -0.8490
   90MOL    H2626904   3.575   6.978   7.644  0.3795 -0.8388  0.8963
   90MOL    H2726905   3.608   7.175   0.169 -0.7282  0.2937  0.9465
   90MOL    H2826906   3.763   7.109   0.183 -1.3989 -1.0743  0.1696
   90MOL    H2926907   3.683   7.387   0.056 -0.1338 -0.0036  0.9072
   90MOL    H3026908   3.838   7.312   0.053 -2.4038 -0.3972 -3.1542
   90MOL    H3126909   3.767   7.362   0.207  0.4700 -3.2614  1.9086
   90MOL    C3226910   3.773   7.050   7.622 -0.3895 -0.5783  0.1983
   90MOL    C3326911   3.834   6.909   7.632  0.7052 -0.6693 -0.4749
   90MOL    C3426912   3.890   6.884   7.771  0.1680 -0.1286 -0.2364
   90MOL    O3526913   3.846   6.789   7.845 -0.1237  0.7173  0.0150
   90MOL    O3626914   3.984   6.976   7.806 -0.0683  0.2839  0.4566
   90MOL    C3726915   4.038   6.974   0.028  0.5199 -0.4148 -0.5705
   90MOL    C3826916   4.191   6.994   0.008 -0.5242 -0.7922 -0.4688
   90MOL    H3926917   3.771   7.077   7.516  0.3777 -2.1792 -0.2390
   90MOL    H4026918   3.833   7.130   7.666  0.6893 -1.5235  0.4563
   90MOL    H4126919   3.755   6.834   7.624 -0.3222  0.4245 -0.6152
   90MOL    H4226920   3.999   7.055   0.089  2.6763  1.7785 -1.9988
   90MOL    H4326921   4.006   6.882   0.078  1.5193  1.1259  3.0577
   90MOL    H4426922   4.216   7.079   7.853  1.1937 -0.0452  1.1770
   90MOL    H4526923   4.226   6.900   7.875  1.2000 -1.5387  2.5589
   90MOL    H4626924   4.252   7.007   0.097 -0.9691  0.5426 -0.3440
   90MOL    C4726925   3.943   6.891   7.526 -0.7364  0.3904 -0.2750
   90MOL    C4826926   4.006   6.763   7.491  0.0578  0.2559 -0.3468
   90MOL    C4926927   4.075   6.686   7.612  0.0386 -0.3328  0.2896
   90MOL    O5026928   4.162   6.737   7.677 -0.5808  0.1683  0.2549
   90MOL    O5126929   4.022   6.566   7.632 -0.1468 -0.3605 -0.4232
   90MOL    C5226930   4.073   6.492   7.741  0.1311 -0.6503  0.3133
   90MOL    C5326931   4.011   6.360   7.729  0.4561  0.1902 -0.0025
   90MOL    H5426932   3.893   6.913   7.432 -1.2280 -0.6822 -0.2823
   90MOL    H5526933   4.016   6.970   7.542 -0.0840 -0.3069  0.2399
   90MOL    H5626934   3.917   6.704   7.469 -1.3242  2.5987 -1.1762
   90MOL    H5726935   4.181   6.491   7.733  0.2149 -1.2548  1.4910
   90MOL    H5826936   4.060   6.532   7.842 -0.4039 -0.6230  0.2373
   90MOL    H5926937   4.025   6.303   7.637  1.4390 -0.7784  0.7213
   90MOL    H6026938   3.904   6.370   7.747  0.0600 -2.5562 -0.5348
   90MOL    H6126939   4.064   6.301   7.804  0.2969  1.3253  1.0185
   90MOL    C6226940   4.107   6.780   7.378  0.5830 -0.3666  0.0397
   90MOL    C6326941   4.101   6.673   7.266 -0.2755 -0.2479 -0.5987
   90MOL    C6426942   4.200   6.560   7.294 -0.7488  0.5184  0.1626
   90MOL    O6526943   4.321   6.564   7.269 -0.2806 -0.3132  0.2737
   90MOL    O6626944   4.137   6.455   7.346 -0.2294  0.1329 -0.5493
   90MOL    C6726945   4.208   6.339   7.385  0.0378  0.0892  0.0785
   90MOL    C6826946   4.162   6.222   7.295  0.3447  0.1246 -0.1178
   90MOL    H6926947   4.084   6.873   7.325 -1.5526 -0.8453  0.1066
   90MOL    H7026948   4.209   6.789   7.416  0.0487 -1.3443  1.7238
   90MOL    H7126949   4.001   6.631   7.284  0.1256 -0.7635  0.4912
   90MOL    H7226950   4.316   6.354   7.380 -0.0722  0.2777 -2.6717
   90MOL    H7326951   4.175   6.317   7.486  3.3496  2.5285  1.7622
   90MOL    H7426952   4.238   6.145   7.310  2.0358  1.7302 -0.2343
   90MOL    H7526953   4.157   6.246   7.189 -0.2700  0.8764  0.0741
   90MOL    H7626954   4.069   6.180   7.333  0.8647 -1.9433 -1.1057
   90MOL    C7726955   4.091   6.709   7.115  0.2533  0.4939 -0.3536
   90MOL    C7826956   3.965   6.649   7.047  0.0847  0.1114  0.7196
   90MOL    C7926957   3.991   6.505   7.010  0.1639  0.1450  0.6279
   90MOL    O8026958   4.101   6.454   7.015  0.2862  0.4191  0.1492
   90MOL    O8126959   3.876   6.440   6.976  0.2948 -0.4301  0.1768
   90MOL    C8226960   3.877   6.297   6.967  0.0752 -0.1687  0.2136
   90MOL    C8326961   3.744   6.238   6.931 -0.4816 -0.5074 -0.1945
   90MOL    H8426962   4.088   6.817   7.100  2.3536  0.5616 -0.5101
   90MOL    H8526963   4.182   6.676   7.064 -0.5527 -0.7986 -0.9811
   90MOL    H8626964   3.888   6.663   7.122 -1.2835 -1.3054 -0.3864
   90MOL    H8726965   3.960   6.262   6.906 -1.5995 -0.1417 -2.1240
   90MOL    H8826966   3.909   6.264   7.066  1.0256 -0.3603 -0.1563
   90MOL    H8926967   3.739   6.134   6.898 -2.0654 -1.0413  1.6628
   90MOL    H9026968   3.710   6.296   6.846  1.0755 -0.6193 -0.9244
   90MOL    H9126969   3.686   6.261   7.020 -0.2626  0.9192 -0.4070
   90MOL    C9226970   3.924   6.724   6.927 -0.7730  0.3770  0.3752
   90MOL    C9326971   3.805   6.822   6.954  1.0304  0.1427  0.0315
   90MOL    C9426972   3.854   6.933   7.057  0.2423 -0.1543 -1.0400
   90MOL    O9526973   3.835   6.927   7.183  0.0954  0.0317 -0.1263
   90MOL    O9626974   3.929   7.026   6.998 -0.0097  0.0730  0.3650
   90MOL    C9726975   3.986   7.129   7.070 -0.0799  0.0446 -0.4245
   90MOL    C9826976   4.137   7.113   7.100 -0.1924 -0.8227 -0.2500
   90MOL    H9926977   4.016   6.766   6.886 -0.8874  1.4592  1.2231
   90MOL   H10026978   3.889   6.651   6.853  0.1748  0.1332  0.1654
   90MOL   H10126979   3.779   6.862   6.856 -1.3418 -0.5429  0.3614
   90MOL   H10226980   3.976   7.224   7.019  2.2797  1.1310  1.0501
   90MOL   H10326981   3.940   7.141   7.168 -0.3225 -1.4016 -0.3401
   90MOL   H10426982   4.184   7.194   7.157  2.3824 -1.5645 -1.2810
   90MOL   H10526983   4.197   7.112   7.009 -1.3308 -2.0929 -0.9950
   90MOL   H10626984   4.163   7.024   7.156  0.2506  0.1953  1.1956
   90MOL   C10726985   3.674   6.742   7.003 -0.4548  0.2181  0.5081
   90MOL   C10826986   3.549   6.824   6.973  0.8729 -0.1051 -0.8644
   90MOL   C10926987   3.438   6.784   7.077 -0.0309 -0.6114  0.9426
   90MOL   O11026988   3.332   6.731   7.040 -0.0169 -0.3923 -0.5370
   90MOL   O11126989   3.483   6.811   7.206  0.1510 -0.0675  0.0428
   90MOL   C11226990   3.412   6.774   7.322 -0.0089  0.0994  0.6876
   90MOL   C11326991   3.463   6.644   7.379 -0.0980  0.5921 -0.1960
   90MOL   H11426992   3.669   6.649   6.947  0.5835  0.5863 -0.2063
   90MOL   H11526993   3.694   6.728   7.110 -0.5317  0.7911  0.5984
   90MOL   H11626994   3.572   6.924   7.011 -0.6119  0.1313 -0.5488
   90MOL   H11726995   3.425   6.855   7.393 -1.1117 -0.2005  1.2481
   90MOL   H11826996   3.305   6.766   7.301  0.5219 -0.9636 -1.9039
   90MOL   H11926997   3.441   6.576   7.297  0.6200 -0.5935  0.5828
   90MOL   H12026998   3.421   6.606   7.472  0.4043  1.1953  0.2853
   90MOL   H12126999   3.572   6.635   7.384 -0.1772  0.1796  0.8894
   90MOL   C12227000   3.497   6.839   6.821 -0.0535  0.4597  0.0640
   90MOL   C12327001   3.478   6.979   6.766  0.5229 -0.4534  0.1474
   90MOL   C12427002   3.613   7.054   6.761  0.9062 -0.6614 -0.5785
   90MOL   O12527003   3.641   7.142   6.844  0.4622  0.2146  0.2271
   90MOL   O12627004   3.701   7.006   6.672  0.0217  0.6978 -0.4703
   90MOL   C12727005   3.825   7.071   6.654  0.8073  0.4739 -0.5608
   90MOL   C12827006   3.890   7.013   6.527  0.2136 -0.0273 -0.2509
   90MOL   H12927007   3.563   6.779   6.759  1.9449  0.4399  2.1554
   90MOL   H13027008   3.399   6.792   6.809  0.0140  0.5106 -0.7710
   90MOL   H13127009   3.445   6.976   6.662  0.0349  2.8049  0.1569
   90MOL   H13227010   3.815   7.178   6.637 -1.8120  0.7399  2.2992
   90MOL   H13327011   3.886   7.053   6.742  0.2795  1.0383 -0.0797
   90MOL   H13427012   3.843   7.044   6.434 -1.0500  0.5546  0.5682
   90MOL   H13527013   3.885   6.904   6.520 -2.7186  0.1577 -1.7633
   90MOL   H13627014   3.994   7.045   6.521  0.2287  0.0733  0.5285
   90MOL   C13727015   3.368   7.054   6.846 -0.4115  0.2516 -0.3756
   90MOL   C13827016   3.299   7.171   6.776  0.3730 -0.0957  0.7927
   90MOL   C13927017   3.270   7.296   6.866  0.2910  0.6960 -0.7008
   90MOL   O14027018   3.287   7.296   6.983  0.5851 -0.0918 -0.4345
   90MOL   O14127019   3.228   7.395   6.789  0.2180 -0.6553  0.1431
   90MOL   C14227020   3.190   7.519   6.841  0.2186  0.7116 -1.0962
   90MOL   C14327021   3.146   7.610   6.726  0.2474 -0.0541  0.7028
   90MOL   H14427022   3.289   6.991   6.886 -0.6306  1.1249  0.5873
   90MOL   H14527023   3.411   7.094   6.938 -0.1680 -0.1201 -0.3249
   90MOL   H14627024   3.375   7.216   6.713 -1.4557 -0.3756 -1.6937
   90MOL   H14727025   3.104   7.505   6.906 -0.7346 -0.5106 -2.5719
   90MOL   H14827026   3.267   7.577   6.892 -0.2059 -1.0371  1.6271
   90MOL   H14927027   3.049   7.579   6.687  1.7021 -1.4393 -1.9885
   90MOL   H15027028   3.219   7.622   6.646  0.5667  1.0929  1.1554
   90MOL   H15127029   3.132   7.712   6.762  1.9428  0.0937  0.9659
   90MOL   C15227030   3.181   7.124   6.681 -0.5570 -0.3650  0.6206
   90MOL   C15327031   3.036   7.115   6.740 -0.1463  0.2250  0.2688
   90MOL   C15427032   3.020   7.000   6.854  0.4221  0.3169 -0.0488
   90MOL   O15527033   2.993   6.883   6.822  0.4855 -0.1672 -0.8420
   90MOL   O15627034   3.030   7.043   6.980  0.2610  0.6196 -0.0859
   90MOL   C15727035   3.046   6.951   7.081  0.0082  0.0311 -0.4993
   90MOL   C15827036   3.073   7.021   7.207 -0.3919  0.0268  0.4532
   90MOL   H15927037   3.182   7.202   6.605  0.1825  0.9232  1.9116
   90MOL   H16027038   3.206   7.028   6.636 -1.3291 -1.1565  1.8593
   90MOL   H16127039   3.015   7.209   6.791  0.7197 -0.3204  1.6653
   90MOL   H16227040   2.963   6.881   7.084  2.3021 -2.9223 -2.2873
   90MOL   H16327041   3.130   6.884   7.065  0.0411  0.2862 -1.4436
   90MOL   H16427042   3.074   6.968   7.302 -1.5121 -0.8795 -0.0230
   90MOL   H16527043   3.001   7.101   7.226  1.7122  1.3961  3.0156
   90MOL   H16627044   3.164   7.081   7.201 -1.1770  1.4985  2.5322
   90MOL   C16727045   2.933   7.105   6.627 -0.2559  0.2416  0.4366
   90MOL   C16827046   2.789   7.141   6.645 -0.6782  0.0111 -0.2042
   90MOL   C16927047   2.724   7.027   6.718  0.5889  0.6203 -0.6741
   90MOL   O17027048   2.673   7.055   6.826 -0.0068  0.1125  0.1265
   90MOL   O17127049   2.725   6.916   6.639  0.3215  0.0710 -0.4270
   90MOL   C17227050   2.676   6.789   6.679 -0.6256 -0.3957 -0.5827
   90MOL   C17327051   2.705   6.689   6.563  0.9036 -0.6335 -0.5699
   90MOL   H17427052   2.963   7.178   6.551 -1.4840  0.3519  0.0555
   90MOL   H17527053   2.951   7.008   6.581 -0.6103 -0.6254  2.0966
   90MOL   H17627054   2.774   7.227   6.710 -2.1696  0.4589 -1.1111
   90MOL   H17727055   2.747   6.745   6.750 -0.5186  0.0612 -0.3982
   90MOL   H17827056   2.572   6.799   6.709 -0.1610  0.1748  0.9095
   90MOL   H17927057   2.806   6.708   6.527  0.5720  1.1003 -0.6426
   90MOL   H18027058   2.627   6.711   6.490  0.4353 -2.0275 -0.5124
   90MOL   H18127059   2.696   6.591   6.610  1.2521  0.7237  2.4489
   90MOL   C18227060   2.714   7.167   6.509 -0.4179  0.9420 -0.0205
   90MOL   C18327061   2.758   7.293   6.438 -0.0369 -0.0215 -0.0119
   90MOL   C18427062   2.717   7.415   6.527  0.5166 -0.3447  0.0222
   90MOL   O18527063   2.797   7.496   6.571 -0.0353 -0.0012  0.0589
   90MOL   O18627064   2.589   7.419   6.564  0.0399  0.4012  0.1713
   90MOL   C18727065   2.538   7.516   6.661 -0.2184  0.6024  1.0416
   90MOL   C18827066   2.462   7.635   6.599  0.2068 -0.4457 -0.0181
   90MOL   H18927067   2.723   7.091   6.431  3.2929  1.0190  0.2709
   90MOL   H19027068   2.607   7.169   6.531 -0.4922  0.0880 -0.2885
   90MOL   H19127069   2.867   7.295   6.436 -0.0350 -0.0720  0.0674
   90MOL   H19227070   2.464   7.462   6.720 -0.2886  0.9994  1.3184
   90MOL   H19327071   2.615   7.553   6.728  1.3241  0.4106 -0.5905
   90MOL   H19427072   2.400   7.593   6.520 -0.1140  1.3375 -0.7357
   90MOL   H19527073   2.535   7.701   6.552 -0.9624  0.7799 -0.1487
   90MOL   H19627074   2.414   7.701   6.672  0.1355  0.8368 -1.2054
   90MOL   C19727075   2.706   7.314   6.291  0.6662 -0.3153 -0.4838
   90MOL   C19827076   2.789   7.411   6.195 -0.1960  0.7506 -0.0986
   90MOL   C19927077   2.717   7.454   6.065 -0.5212  0.1219 -0.8812
   90MOL   O20027078   2.595   7.442   6.055 -0.1584 -0.9818  0.2201
   90MOL   O20127079   2.796   7.508   5.971 -0.4923 -0.1467  0.1471
   90MOL   C20227080   2.743   7.578   5.863  0.1946 -0.6626  0.0107
   90MOL   C20327081   2.852   7.620   5.767 -0.1443  0.3583 -0.0979
   90MOL   H20427082   2.690   7.218   6.240 -0.7200 -0.8976  1.0114
   90MOL   H20527083   2.601   7.342   6.300 -0.0346 -2.5746 -1.3608
   90MOL   H20627084   2.813   7.503   6.248 -0.7128  0.9649 -0.2317
   90MOL   H20727085   2.682   7.509   5.805 -0.7623 -0.7080  1.0448
   90MOL   H20827086   2.680   7.652   5.913 -0.4620 -0.7986 -0.6114
   90MOL   H20927087   2.803   7.678   5.690 -1.1338  0.0959  0.3296
   90MOL   H21027088   2.895   7.530   5.723  1.0781  1.4919 -1.2556
   90MOL   H21127089   2.936   7.673   5.813  0.5229  0.5992 -1.5861
   90MOL   C21227090   2.924   7.342   6.163 -0.6486  0.0535 -0.1284
   90MOL   C21327091   2.931   7.237   6.049  0.1835  0.2395  0.3318
   90MOL   C21427092   2.831   7.118   6.071  0.6995 -0.3288  0.1352
   90MOL   O21527093   2.722   7.118   6.013 -0.1801  0.3337  0.6592
   90MOL   O21627094   2.871   7.047   6.163 -0.5766  0.0193  0.7684
   90MOL   C21727095   2.805   6.924   6.200  0.0476 -1.1177 -0.1906
   90MOL   C21827096   2.857   6.810   6.113 -0.1783 -0.1445  0.4702
   90MOL   H21927097   2.984   7.427   6.131  1.7219 -1.7567 -0.5727
   90MOL   H22027098   2.976   7.299   6.249 -0.4118 -0.1559 -0.3782
   90MOL   H22127099   2.890   7.280   5.958  0.3454 -2.1677 -0.9289
   90MOL   H22227100   2.833   6.921   6.306 -0.8282  0.4160  0.0976
   90MOL   H22327101   2.697   6.926   6.190  0.2408  1.8738 -2.1970
   90MOL   H22427102   2.823   6.715   6.155 -0.7792 -0.1481 -0.0171
   90MOL   H22527103   2.965   6.797   6.114 -0.1960 -0.2663  0.9803
   90MOL   H22627104   2.829   6.809   6.007 -0.9104  0.7598  0.6535
   90MOL   C22727105   3.076   7.198   6.011 -0.6625 -0.2298 -0.4241
   90MOL   C22827106   3.179   7.311   5.971  0.4842  0.2671 -0.7745
   90MOL   C22927107   3.177   7.368   5.830  0.2514 -0.1881 -0.6369
   90MOL   O23027108   3.130   7.307   5.739  0.1857  0.1669  0.0243
   90MOL   O23127109   3.231   7.489   5.826 -0.2567  0.2740 -0.0517
   90MOL   C23227110   3.246   7.548   5.698 -0.0906 -0.6409 -0.1036
   90MOL   C23327111   3.361   7.654   5.691  0.8924 -0.0346 -0.1431
   90MOL   H23427112   3.107   7.147   6.102 -0.5275 -1.1081 -0.9596
   90MOL   H23527113   3.088   7.122   5.934  0.3725  1.5106 -2.0361
   90MOL   H23627114   3.167   7.397   6.037  0.7860  0.3121 -0.7790
   90MOL   H23727115   3.262   7.468   5.626 -0.0328 -0.1529 -0.6386
   90MOL   H23827116   3.146   7.591   5.688  0.7314  1.4426  0.4595
   90MOL   H23927117   3.328   7.739   5.751 -0.8473 -0.5231 -0.3846
   90MOL   H24027118   3.360   7.701   5.593  0.6441  2.9522  1.2114
   90MOL   H24127119   3.457   7.614   5.724  1.2245  0.7629 -0.1374
   90MOL   C24227120   3.326   7.251   6.007 -0.5144  0.0970 -0.3963
   90MOL   C24327121   3.370   7.288   6.145 -0.3566  0.2223  0.4302
   90MOL   C24427122   3.405   7.437   6.174 -0.2071 -0.3770 -1.1638
   90MOL   O24527123   3.522   7.476   6.193 -0.2024 -0.0667 -0.0547
   90MOL   O24627124   3.293   7.512   6.196  0.0465 -0.3614  0.0277
   90MOL   C24727125   3.300   7.652   6.224  0.1706 -1.0191 -0.5726
   90MOL   C24827126   3.278   7.735   6.098 -0.4540 -0.2199  0.1955
   90MOL   H24927127   3.328   7.147   5.974  1.5465 -0.4278  1.2760
   90MOL   H25027128   3.399   7.289   5.936  1.2756 -1.6645  0.4496
   90MOL   H25127129   3.284   7.264   6.207  0.2531 -2.5030  0.2776
   90MOL   H25227130   3.230   7.686   6.300  2.4915 -1.2307  1.7162
   90MOL   H25327131   3.395   7.670   6.274 -0.1112  1.4702 -0.8344
   90MOL   H25427132   3.181   7.712   6.054 -1.0393 -1.0287  1.8628
   90MOL   H25527133   3.356   7.700   6.031 -0.4708  0.2071 -0.0474
   90MOL   H25627134   3.285   7.842   6.116  2.3038 -0.1974 -0.6557
   90MOL   C25727135   3.491   7.200   6.186  0.4402  0.7403 -0.4703
   90MOL   C25827136   3.470   7.049   6.202  0.8149  0.5393 -0.3673
   90MOL   C25927137   3.374   7.022   6.316 -0.4153 -0.6312  0.3526
   90MOL   O26027138   3.378   7.079   6.424 -0.3225  0.5159 -0.4336
   90MOL   O26127139   3.278   6.944   6.280  0.5858  0.1891  0.1870
   90MOL   C26227140   3.169   6.926   6.359  0.2377  0.0173 -0.3901
   90MOL   C26327141   3.187   6.805   6.446 -0.5830  0.2910  0.4862
   90MOL   H26427142   3.563   7.217   6.106 -1.6015  0.7828 -2.3449
   90MOL   H26527143   3.539   7.245   6.273  2.2541 -1.3158 -0.3420
   90MOL   H26627144   3.424   7.009   6.112  0.1993  0.9161 -0.2238
   90MOL   H26727145   3.131   7.016   6.407  0.2844  0.8562 -1.8806
   90MOL   H26827146   3.094   6.900   6.284  1.5124 -1.9031 -1.0473
   90MOL   H26927147   3.238   6.727   6.389 -2.6432 -1.1022  0.5057
   90MOL   H27027148   3.090   6.777   6.486 -0.8692 -0.1610 -0.4949
   90MOL   H27127149   3.248   6.830   6.532  0.7204  0.5881 -0.5057
   90MOL   C27227150   3.605   6.976   6.206  0.4657  0.1889 -0.4115
   90MOL   C27327151   3.612   6.824   6.224 -0.4938 -0.1101  0.1778
   90MOL   C27427152   3.546   6.751   6.110  0.1332  0.0359 -0.1350
   90MOL   O27527153   3.605   6.714   6.011 -0.7237 -0.6478  0.4693
   90MOL   O27627154   3.413   6.737   6.118  0.2501  0.8376  0.1007
   90MOL   C27727155   3.347   6.658   6.027 -0.5156  0.2536  0.5935
   90MOL   C27827156   3.364   6.504   6.042 -0.4991  0.1940 -0.3606
   90MOL   H27927157   3.666   7.001   6.119 -1.1946 -0.2172 -1.7210
   90MOL   H28027158   3.656   7.023   6.291  0.6227  1.4284 -1.1725
   90MOL   H28127159   3.717   6.800   6.206 -0.6953 -0.6900 -0.2345
   90MOL   H28227160   3.241   6.681   6.040 -0.9393 -1.8047  0.9288
   90MOL   H28327161   3.376   6.678   5.924 -1.3189  0.8386  0.4733
   90MOL   H28427162   3.293   6.455   5.976  0.4821 -0.4110 -0.9834
   90MOL   H28527163   3.350   6.471   6.145 -0.7228  1.3686 -0.0040
   90MOL   H28627164   3.466   6.473   6.016 -0.0757 -0.9056  2.3683
   90MOL   C28727165   3.581   6.771   6.358 -0.3582 -0.4317  0.1982
   90MOL   C28827166   3.650   6.638   6.395 -0.6418 -0.6789  0.2951
   90MOL   C28927167   3.562   6.529   6.460 -0.5799  0.8294  0.2302
   90MOL   O29027168   3.468   6.475   6.394  0.0765  0.5473 -0.0708
   90MOL   O29127169   3.581   6.514   6.590  0.2470 -1.0018 -0.3676
   90MOL   C29227170   3.500   6.426   6.661 -0.5800  0.0141  0.8490
   90MOL   C29327171   3.471   6.472   6.805 -0.4786  0.2171  0.1470
   90MOL   H29427172   3.626   6.835   6.434 -2.9002  0.7601  0.7682
   90MOL   H29527173   3.475   6.761   6.384 -0.1412 -1.7562  0.6316
   90MOL   H29627174   3.690   6.588   6.307  0.4052  1.3534 -0.4165
   90MOL   H29727175   3.407   6.414   6.607  0.6314 -1.9218 -0.8908
   90MOL   H29827176   3.554   6.332   6.655  0.2933  0.6082 -1.2281
   90MOL   H29927177   3.569   6.472   6.854 -0.3771 -0.7220 -0.0303
   90MOL   H30027178   3.401   6.412   6.863 -0.5127  0.2177  0.1062
   90MOL   H30127179   3.441   6.576   6.815  0.5233  0.5168  0.1099
   90MOL   H30227180   3.735   6.663   6.459 -1.4887 -1.4874  1.7481
   91MOL     C127181   1.567   7.836   1.105 -0.0090 -0.5693 -0.4351
   91MOL     C227182   1.554   7.739   0.985 -0.9491 -0.7424 -0.1105
   91MOL     C327183   1.605   7.599   1.027  0.0228 -0.1478 -0.8178
   91MOL     O427184   1.718   7.560   1.003  0.0952 -0.0196 -1.0027
   91MOL     O527185   1.522   7.538   1.109  0.0744 -0.3500  0.1394
   91MOL     C627186   1.547   7.409   1.163  0.0269  0.2583  0.1846
   91MOL     C727187   1.525   7.292   1.068 -0.2988 -0.1477 -0.0908
   91MOL     H827188   1.510   7.783   1.181  0.4589  0.1200  0.4076
   91MOL     H927189   1.521   0.024   1.081 -0.9347 -0.4063  1.8838
   91MOL    H1027190   1.446   7.737   0.979 -1.0117  1.3958  0.1059
   91MOL    H1127191   1.646   7.399   1.207  1.3849 -0.2491 -2.8709
   91MOL    H1227192   1.474   7.392   1.242 -0.5364 -1.6969 -0.7234
   91MOL    H1327193   1.544   7.203   1.129 -0.8160  0.3688  0.8437
   91MOL    H1427194   1.599   7.303   0.989  0.8043 -0.4869  0.8851
   91MOL    H1527195   1.424   7.295   1.027 -0.6381 -0.5428  0.7020
   91MOL    H1627196   1.671   7.842   1.138 -0.5728 -0.7997  1.4204
   91MOL    C1727197   1.630   7.793   0.858 -0.3072 -0.2248  0.0613
   91MOL    C1827198   1.627   7.710   0.732  0.2454  0.1578 -0.1694
   91MOL    C1927199   1.716   7.762   0.612  0.4655  0.4041 -0.5530
   91MOL    O2027200   1.724   7.880   0.581  0.2882 -0.4802  0.3104
   91MOL    O2127201   1.780   7.664   0.555  0.0869  0.8434  0.5329
   91MOL    C2227202   1.855   7.686   0.433 -0.1650 -0.5036 -0.2970
   91MOL    C2327203   1.762   7.701   0.313 -0.0855  0.4451 -0.0234
   91MOL    H2427204   1.602   7.896   0.835 -0.2932  0.1021  1.4131
   91MOL    H2527205   1.735   7.797   0.887 -0.3752  2.1739  0.0955
   91MOL    H2627206   1.664   7.610   0.758  0.2589  0.5124  1.2146
   91MOL    H2727207   1.913   7.778   0.438 -1.7170  0.5275 -0.7152
   91MOL    H2827208   1.922   7.603   0.413 -1.2137 -1.7571  1.3328
   91MOL    H2927209   1.707   7.607   0.313  0.7337 -0.0936  3.1925
   91MOL    H3027210   1.823   7.715   0.224 -0.5248 -0.3967 -0.4679
   91MOL    H3127211   1.683   7.774   0.333 -4.2639 -3.1292 -2.5811
   91MOL    C3227212   1.479   7.701   0.686 -0.2280  0.7336  0.0773
   91MOL    C3327213   1.452   7.567   0.605 -0.3474  0.5118 -0.6148
   91MOL    C3427214   1.362   7.604   0.490 -0.3276 -0.0274 -0.6508
   91MOL    O3527215   1.251   7.640   0.512 -0.1503 -0.0113 -0.6010
   91MOL    O3627216   1.421   7.599   0.367  0.5327  0.3500 -0.5973
   91MOL    C3727217   1.354   7.640   0.252  0.3464  0.6855 -0.4110
   91MOL    C3827218   1.437   7.758   0.186 -0.0872  0.0816  0.1286
   91MOL    H3927219   1.413   7.690   0.771 -0.5360  1.2949 -0.0935
   91MOL    H4027220   1.458   7.790   0.626  2.0331  2.8565  2.3128
   91MOL    H4127221   1.554   7.546   0.573  0.2964  0.6145  1.3096
   91MOL    H4227222   1.361   7.557   0.182 -2.0868 -0.1530  0.3047
   91MOL    H4327223   1.249   7.663   0.268  0.7324  2.6471 -0.6673
   91MOL    H4427224   1.543   7.732   0.189  0.0683  0.8479  1.6643
   91MOL    H4527225   1.419   7.856   0.230  0.3605 -0.4284  1.4844
   91MOL    H4627226   1.410   7.774   0.082 -3.1809 -0.3908  0.7800
   91MOL    C4727227   1.404   7.444   0.697  0.7680 -0.1173 -0.3464
   91MOL    C4827228   1.342   7.325   0.618 -0.4124 -0.0460  1.1026
   91MOL    C4927229   1.277   7.220   0.713  0.0959  0.0672  0.0197
   91MOL    O5027230   1.292   7.228   0.837  0.8499 -0.4317  0.6347
   91MOL    O5127231   1.213   7.120   0.650  0.1072 -0.8460  0.5014
   91MOL    C5227232   1.134   7.025   0.727 -0.2906  0.5973  0.6647
   91MOL    C5327233   1.013   7.096   0.801 -0.3681  0.2631  0.2779
   91MOL    H5427234   1.468   7.418   0.782  1.1001 -0.9266 -0.8392
   91MOL    H5527235   1.310   7.480   0.738  1.3325  0.5621  0.3773
   91MOL    H5627236   1.261   7.369   0.560  0.9315  2.3459  0.9700
   91MOL    H5727237   1.099   6.951   0.655 -3.5405  0.7559  2.0067
   91MOL    H5827238   1.201   6.989   0.805  1.3205  0.1011 -0.9329
   91MOL    H5927239   0.943   7.125   0.723  0.2163  0.0843 -0.3163
   91MOL    H6027240   1.039   7.170   0.877 -0.0386  3.2501 -2.6334
   91MOL    H6127241   0.960   7.021   0.859 -1.0451  0.6380  0.1393
   91MOL    C6227242   1.430   7.259   0.505  0.0491 -0.2776  0.0346
   91MOL    C6327243   1.535   7.151   0.547  1.0072  0.1799  0.0579
   91MOL    C6427244   1.650   7.204   0.639 -0.0745 -0.4520  0.3295
   91MOL    O6527245   1.631   7.199   0.757 -0.4106 -0.1786  0.3320
   91MOL    O6627246   1.763   7.237   0.575 -0.0794  0.1075 -0.0930
   91MOL    C6727247   1.864   7.290   0.656  1.1787 -0.0672 -0.2203
   91MOL    C6827248   1.951   7.171   0.697 -0.2010  0.7278  0.1705
   91MOL    H6927249   1.356   7.209   0.444 -0.0287  1.6122 -1.4996
   91MOL    H7027250   1.474   7.332   0.436 -1.0734 -0.4805 -0.9079
   91MOL    H7127251   1.486   7.074   0.607  0.0674 -1.7043 -3.0358
   91MOL    H7227252   1.924   7.359   0.596 -0.0076  1.5078  0.3750
   91MOL    H7327253   1.829   7.360   0.731 -1.6271  0.4711 -1.9686
   91MOL    H7427254   2.032   7.201   0.764  2.0887 -0.0772 -2.1737
   91MOL    H7527255   2.000   7.122   0.613 -0.7280  0.6602 -0.0933
   91MOL    H7627256   1.903   7.096   0.759 -0.9149  0.5258 -0.6258
   91MOL    C7727257   1.588   7.063   0.429  0.2390 -0.0247  0.2457
   91MOL    C7827258   1.493   6.947   0.394 -0.6369  0.7280  0.3834
   91MOL    C7927259   1.472   6.840   0.506 -0.6280 -0.1201 -0.1686
   91MOL    O8027260   1.358   6.826   0.557 -0.7448  0.1560 -0.0787
   91MOL    O8127261   1.581   6.778   0.545 -0.9309 -0.6446  0.5837
   91MOL    C8227262   1.582   6.694   0.662 -0.3712  0.4624  0.3107
   91MOL    C8327263   1.537   6.552   0.602  0.1668 -0.1350  0.4546
   91MOL    H8427264   1.599   7.121   0.337  1.5223  2.5752  1.9657
   91MOL    H8527265   1.687   7.022   0.449  0.4165 -0.3723 -1.2781
   91MOL    H8627266   1.405   7.011   0.385  0.8575  2.6159 -1.3632
   91MOL    H8727267   1.682   6.684   0.706 -0.3812 -0.4650  0.1295
   91MOL    H8827268   1.514   6.734   0.737 -0.3648 -0.2345  0.6864
   91MOL    H8927269   1.621   6.509   0.548 -1.2752 -0.0807 -1.8939
   91MOL    H9027270   1.445   6.539   0.545  1.0021 -0.8128 -0.7641
   91MOL    H9127271   1.514   6.499   0.695 -2.2657  0.6434  0.3370
   91MOL    C9227272   1.523   6.881   0.260 -0.0522 -0.8667  0.3123
   91MOL    C9327273   1.396   6.840   0.171  0.6814 -0.3167  0.7426
   91MOL    C9427274   1.417   6.737   0.056  0.2261  0.0230 -0.1051
   91MOL    O9527275   1.523   6.727   7.902 -0.3382  0.1373 -0.0821
   91MOL    O9627276   1.308   6.679   0.013 -0.0424 -0.0101 -0.4663
   91MOL    C9727277   1.304   6.590   7.813 -0.6999  0.8164 -0.8405
   91MOL    C9827278   1.203   6.478   7.820  0.4853 -0.4297 -1.2063
   91MOL    H9927279   1.568   6.950   0.188 -0.2966  1.3323  2.2219
   91MOL   H10027280   1.582   6.790   0.277 -0.6486 -1.7257 -2.0271
   91MOL   H10127281   1.322   6.794   0.237  1.6699 -0.0895  2.0187
   91MOL   H10227282   1.285   6.640   7.718  1.8646 -0.5392 -2.0870
   91MOL   H10327283   1.406   6.557   7.796 -0.3758  0.1462  2.2189
   91MOL   H10427284   1.196   6.413   7.733 -0.0931 -0.1221 -1.3941
   91MOL   H10527285   1.104   6.522   7.810  0.3145 -0.4714  0.1644
   91MOL   H10627286   1.207   6.415   0.000 -1.0964 -0.2585 -0.9926
   91MOL   C10727287   1.316   6.961   0.106  0.4633 -0.6020  0.4622
   91MOL   C10827288   1.391   7.057   0.005  0.3349  0.7281  0.1746
   91MOL   C10927289   1.423   7.193   0.074  0.7671  0.1630  0.0430
   91MOL   O11027290   1.336   7.262   0.132  0.5126 -0.1958 -0.4163
   91MOL   O11127291   1.555   7.226   0.064 -0.0370  0.2914 -0.8044
   91MOL   C11227292   1.607   7.349   0.120 -0.4153  0.4144  0.2663
   91MOL   C11327293   1.584   7.454   0.018 -0.5617 -0.0774  0.1174
   91MOL   H11427294   1.229   6.915   0.058 -1.1660  1.3076  1.5058
   91MOL   H11527295   1.267   7.011   0.189 -0.5578  1.8489 -1.5267
   91MOL   H11627296   1.491   7.019   7.895  0.8230  1.4803  1.2041
   91MOL   H11727297   1.550   7.379   0.208  1.4520  1.4385  1.1523
   91MOL   H11827298   1.709   7.332   0.155  0.1004  1.1170 -0.8544
   91MOL   H11927299   1.641   7.543   0.047  1.6003 -1.0998 -0.8714
   91MOL   H12027300   1.478   7.480   0.011 -0.3736  0.3400 -1.4008
   91MOL   H12127301   1.606   7.431   7.822  0.6426 -0.8984  0.5495
   91MOL   C12227302   1.302   7.084   7.789 -0.5442  0.1693  0.6794
   91MOL   C12327303   1.311   6.994   7.663  0.5587  1.1791 -0.9204
   91MOL   C12427304   1.448   6.987   7.599  0.1169 -0.1118  0.0531
   91MOL   O12527305   1.531   7.076   7.612 -0.0094  0.1739  1.0324
   91MOL   O12627306   1.474   6.871   7.552 -0.2825 -0.0918  0.1085
   91MOL   C12727307   1.591   6.833   7.494  0.0736  0.3041  0.1894
   91MOL   C12827308   1.667   6.730   7.589  0.3258 -0.9377  0.7768
   91MOL   H12927309   1.200   7.100   7.825 -0.9793 -0.8316 -0.0815
   91MOL   H13027310   1.326   7.185   7.756 -1.7594 -0.0456 -0.9389
   91MOL   H13127311   1.278   6.897   7.700  1.8533  1.1130  0.1111
   91MOL   H13227312   1.571   6.785   7.398  1.7508 -2.1328  1.0060
   91MOL   H13327313   1.647   6.923   7.470 -0.6801  0.6898 -0.1531
   91MOL   H13427314   1.595   6.679   7.653  0.5123 -0.7461  1.1443
   91MOL   H13527315   1.715   6.785   7.671  2.2815 -1.3304 -0.0670
   91MOL   H13627316   1.750   6.677   7.543 -1.9357 -1.6187 -2.6790
   91MOL   C13727317   1.206   7.031   7.558  0.2353 -0.0143  0.1762
   91MOL   C13827318   1.190   6.932   7.434  0.7351  0.1009  0.2593
   91MOL   C13927319   1.112   6.997   7.317  0.0257  0.1668  0.3233
   91MOL   O14027320   1.175   7.027   7.218  0.1119 -0.5533 -0.1664
   91MOL   O14127321   0.983   7.017   7.344  0.1264  0.2285  0.8972
   91MOL   C14227322   0.894   7.094   7.261 -0.9492 -0.6815 -0.5325
   91MOL   C14327323   0.924   7.242   7.284  0.7466 -0.5963 -0.1751
   91MOL   H14427324   1.111   7.037   7.611 -0.3438  1.9348 -1.0434
   91MOL   H14527325   1.210   7.133   7.520 -0.6470  0.3383  1.0302
   91MOL   H14627326   1.289   6.937   7.390  1.0321  1.6095  1.0618
   91MOL   H14727327   0.906   7.088   7.153 -3.6757 -0.0386 -0.9064
   91MOL   H14827328   0.794   7.061   7.289 -1.0370  1.1563  1.4155
   91MOL   H14927329   1.029   7.270   7.281  0.4855  0.2501 -2.9989
   91MOL   H15027330   0.886   7.272   7.382 -0.7954 -2.7175 -0.0896
   91MOL   H15127331   0.878   7.305   7.207 -0.7500  0.0120  1.1937
   91MOL   C15227332   1.156   6.787   7.476 -0.6353  0.3575  1.0426
   91MOL   C15327333   1.162   6.676   7.363  0.1998  0.5841 -0.5536
   91MOL   C15427334   1.120   6.541   7.400  0.9295  0.2841 -0.4787
   91MOL   O15527335   1.110   6.511   7.519  0.0712  0.9701 -0.7198
   91MOL   O15627336   1.079   6.461   7.295  0.0074 -0.2770  0.1355
   91MOL   C15727337   1.039   6.329   7.321 -0.1017 -0.1090  0.3376
   91MOL   C15827338   1.070   6.243   7.195 -0.5649 -0.4515 -0.0566
   91MOL   H15927339   1.225   6.753   7.553 -1.4604 -2.9223  0.4225
   91MOL   H16027340   1.063   6.770   7.529 -0.2212  0.2471  1.7295
   91MOL   H16127341   1.096   6.707   7.282  0.2049  2.2648  0.0825
   91MOL   H16227342   1.078   6.293   7.416 -1.3603  0.4268  1.0754
   91MOL   H16327343   0.931   6.347   7.320 -0.1350 -0.3144 -0.0189
   91MOL   H16427344   1.003   6.282   7.118 -0.4879  0.2531  0.2250
   91MOL   H16527345   1.043   6.138   7.198  1.5042 -0.9727  1.0167
   91MOL   H16627346   1.170   6.254   7.154 -1.2855 -0.8466 -1.9735
   91MOL   C16727347   1.302   6.670   7.300  0.5309 -0.3507  0.6691
   91MOL   C16827348   1.318   6.718   7.153 -0.1712 -0.6091 -1.0369
   91MOL   C16927349   1.217   6.664   7.044  0.1250 -0.0635  0.0692
   91MOL   O17027350   1.229   6.555   6.983  0.2840 -0.1747 -0.3634
   91MOL   O17127351   1.112   6.739   7.044 -0.3756  0.0270  0.1077
   91MOL   C17227352   1.001   6.701   6.968  0.1482  0.3414  0.2998
   91MOL   C17327353   0.883   6.656   7.061  0.1145 -0.4334 -0.7599
   91MOL   H17427354   1.372   6.718   7.369  0.9889 -0.4145  0.2497
   91MOL   H17527355   1.340   6.569   7.284  0.2475 -0.1902 -1.0623
   91MOL   H17627356   1.316   6.826   7.158  0.1601 -0.6739  0.8421
   91MOL   H17727357   0.973   6.791   6.913  2.5585  0.3185 -1.0538
   91MOL   H17827358   1.016   6.621   6.896  0.2529 -0.0073  0.7082
   91MOL   H17927359   0.794   6.648   6.999  1.7216 -1.7117 -2.9431
   91MOL   H18027360   0.859   6.728   7.140  1.0053  1.5313 -2.2755
   91MOL   H18127361   0.892   6.558   7.108 -0.0150 -0.0806  0.0101
   91MOL   C18227362   1.465   6.680   7.110  0.5212  0.3352  0.0668
   91MOL   C18327363   1.506   6.764   6.984  0.0024  0.4482 -0.1750
   91MOL   C18427364   1.506   6.675   6.855 -0.5181 -0.9251  0.1180
   91MOL   O18527365   1.540   6.557   6.870 -0.3665  0.0889  0.3300
   91MOL   O18627366   1.456   6.732   6.749  0.1017  0.6027 -0.7625
   91MOL   C18727367   1.404   6.653   6.647  0.2971 -0.1658 -0.4758
   91MOL   C18827368   1.264   6.700   6.610 -0.5712  1.0050  0.1363
   91MOL   H18927369   1.544   6.688   7.184  0.6337 -0.4302  0.0336
   91MOL   H19027370   1.460   6.573   7.087 -0.8760  0.1230  1.2347
   91MOL   H19127371   1.449   6.855   6.970 -0.3654  0.3487  0.6678
   91MOL   H19227372   1.476   6.672   6.568  2.3026 -1.6286  0.9433
   91MOL   H19327373   1.406   6.551   6.684  0.4862 -0.7004 -1.9321
   91MOL   H19427374   1.258   6.807   6.590 -0.1729  1.7472  3.5800
   91MOL   H19527375   1.195   6.691   6.694 -0.0825  0.4150  0.4817
   91MOL   H19627376   1.213   6.641   6.534 -0.0989 -0.2567  0.7716
   91MOL   C19727377   1.644   6.844   6.986  0.0673 -0.0724  0.1195
   91MOL   C19827378   1.659   6.943   7.100  0.2994 -0.6340 -0.6526
   91MOL   C19927379   1.543   7.039   7.126  0.8250 -0.0475  0.1334
   91MOL   O20027380   1.497   7.059   7.238 -0.3139  0.5403 -0.1765
   91MOL   O20127381   1.512   7.107   7.015  0.3285 -0.3171  0.3078
   91MOL   C20227382   1.396   7.195   7.017 -0.1995 -0.2791 -0.0146
   91MOL   C20327383   1.282   7.132   6.945 -0.3510 -0.1960 -1.0361
   91MOL   H20427384   1.738   6.790   6.974  1.8594  2.1018  3.4321
   91MOL   H20527385   1.660   6.896   6.892  3.5715 -2.4290 -0.6619
   91MOL   H20627386   1.674   6.893   7.196 -0.8242 -0.5262 -0.4176
   91MOL   H20727387   1.376   7.229   7.119  2.5930 -0.0868  0.5079
   91MOL   H20827388   1.415   7.290   6.968  1.4953  1.1105  3.1404
   91MOL   H20927389   1.287   7.026   6.972  2.1020 -0.0957 -1.0074
   91MOL   H21027390   1.290   7.132   6.836 -1.3973 -1.3097 -1.1313
   91MOL   H21127391   1.185   7.182   6.950  0.4156  1.1884  0.1368
   91MOL   C21227392   1.784   7.034   7.073 -0.0033 -0.5448  0.2021
   91MOL   C21327393   1.902   7.019   7.173 -0.0931 -0.2534 -0.5400
   91MOL   C21427394   1.958   6.875   7.177  0.5467 -0.6724  0.4192
   91MOL   O21527395   2.058   6.845   7.115  0.1304  0.6212 -0.4830
   91MOL   O21627396   1.899   6.788   7.269  0.4923  0.0970 -0.3674
   91MOL   C21727397   1.925   6.653   7.266  0.3045 -0.0053 -0.2471
   91MOL   C21827398   1.796   6.567   7.251  0.5994 -0.4276  0.1868
   91MOL   H21927399   1.821   7.011   6.973 -2.1193  0.6956 -0.8804
   91MOL   H22027400   1.754   7.138   7.070  0.8884 -0.3155 -1.3972
   91MOL   H22127401   1.978   7.079   7.123 -0.6844  2.8027  2.0917
   91MOL   H22227402   2.006   6.636   7.195  1.6802 -1.6326  1.6701
   91MOL   H22327403   1.958   6.625   7.366 -0.6492  2.5187  0.8190
   91MOL   H22427404   1.760   6.571   7.148  2.4915 -1.0465 -0.4997
   91MOL   H22527405   1.712   6.599   7.314  2.3173  1.6971  1.4425
   91MOL   H22627406   1.812   6.462   7.274  0.5862 -0.4202  0.2302
   91MOL   C22727407   1.871   7.089   7.307 -0.0673  0.1519 -0.1347
   91MOL   C22827408   1.968   7.185   7.378 -0.2353  0.7152 -0.9051
   91MOL   C22927409   2.101   7.111   7.409  0.7517 -0.6054  0.1779
   91MOL   O23027410   2.195   7.132   7.334  0.3840  0.6395 -0.0316
   91MOL   O23127411   2.102   7.023   7.504 -0.6810  0.1273 -1.6272
   91MOL   C23227412   2.224   6.991   7.576  0.0937  0.2320  0.0490
   91MOL   C23327413   2.294   6.883   7.490 -0.1618 -0.2799  0.2056
   91MOL   H23427414   1.790   7.160   7.292  0.4291  0.7051 -0.1922
   91MOL   H23527415   1.845   7.015   7.384  0.4709 -0.8210 -0.8834
   91MOL   H23627416   1.991   7.273   7.318  0.7907  1.0764  0.0118
   91MOL   H23727417   2.289   7.077   7.588  0.9991 -0.5347  0.6739
   91MOL   H23827418   2.198   6.956   7.676  0.0489  1.8583  0.6130
   91MOL   H23927419   2.311   6.915   7.387  0.1298 -0.0384  0.3241
   91MOL   H24027420   2.231   6.795   7.485  1.2101 -1.3664  1.6546
   91MOL   H24127421   2.390   6.843   7.523  0.2433  0.7101  0.2792
   91MOL   C24227422   1.913   7.254   7.505 -0.3038  0.1280  0.2919
   91MOL   C24327423   1.818   7.368   7.474  0.0391 -0.5845  0.6902
   91MOL   C24427424   1.896   7.500   7.475  0.3674  0.3540 -0.0251
   91MOL   O24527425   1.914   7.552   7.363  0.3811 -0.1306  0.1951
   91MOL   O24627426   1.933   7.540   7.590  0.0837  0.0451  0.7088
   91MOL   C24727427   2.025   7.644   7.603  0.3085  0.1054  0.4624
   91MOL   C24827428   1.982   7.727   7.726 -0.0480 -0.5445 -0.7539
   91MOL   H24927429   1.864   7.177   7.565  1.4093 -1.6261 -0.5336
   91MOL   H25027430   1.995   7.286   7.570 -0.5459  1.4036 -0.0195
   91MOL   H25127431   1.764   7.355   7.380 -1.2783  0.3887  1.2968
   91MOL   H25227432   2.124   7.601   7.619  1.2738  2.6139  1.3337
   91MOL   H25327433   2.030   7.704   7.512  1.1181 -0.2847  0.2409
   91MOL   H25427434   1.991   7.662   7.813 -1.5977 -0.8122 -0.7716
   91MOL   H25527435   1.885   7.773   7.709 -0.3580 -0.6648  0.6440
   91MOL   H25627436   2.050   7.810   7.742  1.0643 -1.7997  1.1082
   91MOL   C25727437   1.698   7.386   7.566 -0.0673  0.1114 -0.1931
   91MOL   C25827438   1.586   7.463   7.501  0.0833 -0.2377 -0.4800
   91MOL   C25927439   1.591   7.618   7.532 -0.6279  0.5002  0.7419
   91MOL   O26027440   1.618   7.699   7.443 -0.4184  0.6454  0.3155
   91MOL   O26127441   1.560   7.648   7.656 -0.1866  0.2974  0.4429
   91MOL   C26227442   1.546   7.784   7.689  0.3107 -0.6083 -0.0634
   91MOL   C26327443   1.398   7.822   7.645 -0.4679  0.1536  0.4703
   91MOL   H26427444   1.673   7.281   7.583  2.4027 -0.2438  1.4592
   91MOL   H26527445   1.715   7.426   7.666 -1.0460 -0.6590  0.2866
   91MOL   H26627446   1.593   7.448   7.394 -0.0187  1.6696 -0.7677
   91MOL   H26727447   1.566   7.802   7.795  0.2094 -0.0057 -0.1489
   91MOL   H26827448   1.617   7.847   7.636 -1.1699 -0.0468 -1.4070
   91MOL   H26927449   1.370   0.009   7.689 -0.2106  0.3425  0.2209
   91MOL   H27027450   1.319   7.748   7.657 -1.5212  1.1755 -0.0278
   91MOL   H27127451   1.388   7.831   7.537 -0.3049 -0.2086  0.4241
   91MOL   C27227452   1.445   7.405   7.531  0.0864  0.1849  0.1889
   91MOL   C27327453   1.321   7.465   7.466  0.2110  0.7904 -0.0739
   91MOL   C27427454   1.198   7.441   7.551 -0.3521 -1.0239  0.1539
   91MOL   O27527455   1.104   7.380   7.514 -0.4710  0.7429  0.4293
   91MOL   O27627456   1.213   7.511   7.670 -0.0786  0.0231 -0.4135
   91MOL   C27727457   1.120   7.495   7.770  0.2111 -0.1667 -0.1987
   91MOL   C27827458   1.187   7.523   7.898  0.1331 -0.2205  0.0972
   91MOL   H27927459   1.444   7.298   7.508 -0.3917  0.0915  0.6250
   91MOL   H28027460   1.433   7.420   7.639 -0.0066  1.5911 -0.0106
   91MOL   H28127461   1.327   7.573   7.480  1.2670  0.4627  2.1081
   91MOL   H28227462   1.036   7.561   7.749  1.6383  1.7773  0.0581
   91MOL   H28327463   1.067   7.399   7.766 -0.4373 -0.0055  2.9350
   91MOL   H28427464   1.229   7.624   7.901 -2.0636  0.8529 -2.8657
   91MOL   H28527465   1.267   7.451   0.005  0.1975 -0.5733 -1.8118
   91MOL   H28627466   1.113   7.507   0.068  0.8013  2.9045  1.4506
   91MOL   C28727467   1.298   7.428   7.314  0.1255  0.0112 -0.0067
   91MOL   C28827468   1.201   7.517   7.227 -0.7721  0.0367 -0.0271
   91MOL   C28927469   1.264   7.644   7.173 -0.2638  0.3664 -0.4912
   91MOL   O29027470   1.301   7.662   7.056  0.7639 -0.8089 -0.4584
   91MOL   O29127471   1.266   7.733   7.271 -0.6061  0.5573 -0.0543
   91MOL   C29227472   1.274   7.880   7.244  0.4701  0.7103 -0.4336
   91MOL   C29327473   1.414   0.015   7.203  0.5233 -0.2524  0.5016
   91MOL   H29427474   1.389   7.415   7.256  0.8634 -0.1858  1.1864
   91MOL   H29527475   1.251   7.329   7.317  0.8031 -0.3177 -0.1045
   91MOL   H29627476   1.169   7.452   7.147 -0.0071  1.2137 -1.3185
   91MOL   H29727477   1.206   7.902   7.161 -0.8774  0.1972  0.5081
   91MOL   H29827478   1.244   0.031   7.330  0.3846 -1.4684  1.0997
   91MOL   H29927479   1.490   7.891   7.274 -0.3934 -1.7323  0.8460
   91MOL   H30027480   1.428   0.122   7.191  1.5900 -0.4347  0.0896
   91MOL   H30127481   1.430   7.884   7.103  0.2885 -2.1984  1.2005
   91MOL   H30227482   1.110   7.547   7.279 -0.3026  0.6556  0.4632
   92MOL     C127483   1.091   5.469   4.108 -0.0865 -0.2429 -0.0359
   92MOL     C227484   1.163   5.592   4.158  0.4551  0.0479 -0.0696
   92MOL     C327485   1.085   5.669   4.267 -0.5494  0.1960 -0.4660
   92MOL     O427486   0.990   5.613   4.324  0.0920 -0.0054 -0.3768
   92MOL     O527487   1.147   5.784   4.301 -0.4159  0.3173  0.2639
   92MOL     C627488   1.095   5.875   4.398  0.4232 -0.2677 -0.0908
   92MOL     C727489   1.170   5.843   4.532  0.5057  0.1710  0.0948
   92MOL     H827490   1.126   5.422   4.017  0.1128 -0.6965  0.2743
   92MOL     H927491   0.982   5.472   4.102 -0.4526 -0.6311  4.4483
   92MOL    H1027492   1.252   5.542   4.197 -0.1904 -0.8473  0.2750
   92MOL    H1127493   1.103   5.974   4.353  1.3094  0.3871  1.4706
   92MOL    H1227494   0.989   5.859   4.415  0.8699 -1.5829  1.6665
   92MOL    H1327495   1.164   5.737   4.558  0.5170  0.0831 -0.2472
   92MOL    H1427496   1.137   5.907   4.613  0.0678  1.2735 -0.9425
   92MOL    H1527497   1.275   5.868   4.518  0.4551  0.1737 -0.2887
   92MOL    H1627498   1.109   5.392   4.183  0.9949 -1.4360 -1.5027
   92MOL    C1727499   1.211   5.686   4.044  0.5672 -0.0309 -0.6052
   92MOL    C1827500   1.107   5.788   3.980  0.0046 -0.1658  0.2112
   92MOL    C1927501   0.972   5.716   3.940 -0.4315  0.4299  0.3432
   92MOL    O2027502   0.872   5.735   4.011 -0.3098  0.1848 -0.3999
   92MOL    O2127503   0.985   5.640   3.832  0.7669  0.4060  0.4728
   92MOL    C2227504   0.865   5.574   3.789 -0.2677  0.3100  0.2275
   92MOL    C2327505   0.860   5.424   3.837  0.1646 -0.1015  0.1524
   92MOL    H2427506   1.298   5.743   4.079  0.7623 -1.0594  0.6265
   92MOL    H2527507   1.245   5.616   3.968 -1.1189 -1.8063  0.2317
   92MOL    H2627508   1.072   5.858   4.055 -0.7267 -0.9724  0.6362
   92MOL    H2727509   0.772   5.620   3.824 -1.0859 -1.7507  0.8597
   92MOL    H2827510   0.879   5.569   3.681  1.8010  0.5286  0.4695
   92MOL    H2927511   0.963   5.393   3.816  1.1690  3.3458 -0.3399
   92MOL    H3027512   0.784   5.362   3.791  0.1166 -1.0709  1.5055
   92MOL    H3127513   0.853   5.411   3.945 -4.1551  0.4084  0.0077
   92MOL    C3227514   1.182   5.862   3.869  0.0179 -0.0215  0.7392
   92MOL    C3327515   1.126   5.999   3.824  0.2534  0.0186 -0.0869
   92MOL    C3427516   1.171   6.035   3.684 -0.5531  0.2465  0.2826
   92MOL    O3527517   1.093   6.056   3.589  0.2514 -0.2533 -0.4396
   92MOL    O3627518   1.307   6.043   3.673  0.2970  0.5149 -0.2386
   92MOL    C3727519   1.379   6.108   3.573 -0.0342  0.0963 -0.3301
   92MOL    C3827520   1.511   6.034   3.546  0.6170 -0.6873 -0.6897
   92MOL    H3927521   1.281   5.879   3.911  0.0135 -2.8363  1.9946
   92MOL    H4027522   1.204   5.804   3.779  1.1626  1.0250  0.3317
   92MOL    H4127523   1.017   5.994   3.814  0.4081  0.7052 -2.2046
   92MOL    H4227524   1.318   6.126   3.485  1.2645  1.0674 -1.0496
   92MOL    H4327525   1.412   6.204   3.612  0.6296 -1.4813  3.2946
   92MOL    H4427526   1.505   5.933   3.504  0.7232 -1.0361  0.1287
   92MOL    H4527527   1.540   6.016   3.649 -1.2073  1.0408  0.1417
   92MOL    H4627528   1.582   6.102   3.499 -1.0523 -0.1752 -2.5434
   92MOL    C4727529   1.160   6.108   3.928  0.5999 -0.0632 -0.6999
   92MOL    C4827530   1.123   6.256   3.888  0.7804  0.8623  0.4920
   92MOL    C4927531   1.183   6.361   3.988 -0.2590 -0.3655 -0.1306
   92MOL    O5027532   1.113   6.418   4.072 -0.7982  0.0429  0.0881
   92MOL    O5127533   1.318   6.379   3.979  0.3183 -0.1813  0.3001
   92MOL    C5227534   1.377   6.461   4.079  0.5160 -0.0267 -0.0511
   92MOL    C5327535   1.507   6.398   4.129 -0.2358 -0.0724  0.1863
   92MOL    H5427536   1.107   6.092   4.022  0.4130 -1.9011 -1.1095
   92MOL    H5527537   1.264   6.114   3.961  0.3349  0.9780 -0.0177
   92MOL    H5627538   1.171   6.278   3.793 -0.3834  0.2024 -0.2642
   92MOL    H5727539   1.389   6.565   4.047  0.8872  0.2688  1.0042
   92MOL    H5827540   1.317   6.478   4.169  1.3643  0.8051  0.3750
   92MOL    H5927541   1.548   6.482   4.186  2.3791 -0.9581 -0.3366
   92MOL    H6027542   1.586   6.374   4.059 -0.7889 -0.5376 -0.2802
   92MOL    H6127543   1.494   6.310   4.191 -1.8708  1.0639  1.5225
   92MOL    C6227544   0.974   6.278   3.870 -0.5609 -0.0034 -0.4950
   92MOL    C6327545   0.926   6.417   3.832 -0.3009 -0.2357 -0.5845
   92MOL    C6427546   0.805   6.465   3.915 -0.7545 -0.2859 -0.0250
   92MOL    O6527547   0.717   6.528   3.856  0.0151  0.8579 -0.6761
   92MOL    O6627548   0.798   6.432   4.050 -0.1502 -0.4731  0.1441
   92MOL    C6727549   0.686   6.472   4.127 -0.2831 -0.4020  0.8274
   92MOL    C6827550   0.712   6.613   4.188 -0.0496  0.9247  0.1810
   92MOL    H6927551   0.920   6.212   3.802 -3.3894  1.6701  0.0330
   92MOL    H7027552   0.931   6.256   3.968  1.9745  0.1809  0.7013
   92MOL    H7127553   1.015   6.476   3.855 -1.1945  0.3366  1.5361
   92MOL    H7227554   0.597   6.479   4.065 -0.8367 -0.3704  1.6178
   92MOL    H7327555   0.663   6.401   4.206  0.5607 -0.8009  0.7278
   92MOL    H7427556   0.809   6.621   4.236  0.8620 -0.7824 -1.3271
   92MOL    H7527557   0.627   6.636   4.253  0.0025  0.0511  0.5685
   92MOL    H7627558   0.714   6.685   4.106 -2.5208  0.1051 -0.6346
   92MOL    C7727559   0.907   6.431   3.681  0.0081 -0.0177  0.0350
   92MOL    C7827560   1.026   6.413   3.582 -0.6840 -0.1857  0.2082
   92MOL    C7927561   1.158   6.482   3.621  0.3996 -0.0582 -0.9568
   92MOL    O8027562   1.266   6.420   3.631  0.1505  0.1224 -0.9887
   92MOL    O8127563   1.145   6.613   3.647  0.2239  0.3964  0.0229
   92MOL    C8227564   1.256   6.691   3.677 -0.4280 -0.0214 -0.3652
   92MOL    C8327565   1.206   6.837   3.672  0.2104  0.4766  0.3288
   92MOL    H8427566   0.829   6.371   3.635  0.3673  1.1067 -2.0878
   92MOL    H8527567   0.879   6.537   3.679  1.5130  0.3728 -1.5804
   92MOL    H8627568   1.049   6.307   3.596 -0.3541  0.2048  2.8350
   92MOL    H8727569   1.299   6.659   3.773 -0.3774  0.1294 -0.3386
   92MOL    H8827570   1.333   6.669   3.602 -0.6522 -1.5103 -0.1843
   92MOL    H8927571   1.286   6.905   3.700  0.3997  0.8927 -1.1441
   92MOL    H9027572   1.120   6.858   3.735 -1.2099  1.4504 -1.8471
   92MOL    H9127573   1.184   6.864   3.568  2.5954  0.3117 -0.2488
   92MOL    C9227574   0.988   6.440   3.433  0.0459  0.1046 -0.5956
   92MOL    C9327575   0.928   6.568   3.386  0.6507 -0.2353 -0.8152
   92MOL    C9427576   0.791   6.604   3.444 -0.1561  1.0251  0.1076
   92MOL    O9527577   0.767   6.715   3.478 -0.4513 -0.2041 -0.1584
   92MOL    O9627578   0.705   6.504   3.432 -0.3823 -0.7936  0.1678
   92MOL    C9727579   0.570   6.526   3.466  0.1233 -0.6791  0.2775
   92MOL    C9827580   0.495   6.624   3.374 -0.2629 -0.4279  0.3789
   92MOL    H9927581   1.082   6.429   3.379  0.4330  1.2961 -0.1733
   92MOL   H10027582   0.924   6.358   3.402  0.3386  0.2293 -1.5499
   92MOL   H10127583   0.996   6.646   3.422 -0.0290  0.3911 -0.8801
   92MOL   H10227584   0.511   6.436   3.452  1.0573 -0.9754 -2.0165
   92MOL   H10327585   0.560   6.558   3.570 -2.1730  2.9759 -0.9847
   92MOL   H10427586   0.499   6.599   3.268  2.4306  1.7788 -0.1282
   92MOL   H10527587   0.534   6.725   3.390 -2.4082  0.5176 -0.2204
   92MOL   H10627588   0.391   6.637   3.402  0.4269  1.4892  2.1879
   92MOL   C10727589   0.927   6.586   3.235  0.5197  0.2601  0.1858
   92MOL   C10827590   1.060   6.603   3.168  0.7711 -0.3409 -0.1653
   92MOL   C10927591   1.136   6.722   3.212 -0.1649 -0.3704 -0.6122
   92MOL   O11027592   1.247   6.716   3.268  0.1334 -0.3125  0.2632
   92MOL   O11127593   1.062   6.836   3.196 -0.6753 -0.6929  0.6138
   92MOL   C11227594   1.107   6.967   3.227 -0.0196 -0.1024  0.2928
   92MOL   C11327595   1.020   7.029   3.340  0.3176 -0.1084 -0.5292
   92MOL   H11427596   0.896   6.488   3.199  1.9841 -0.3661  0.6022
   92MOL   H11527597   0.853   6.659   3.201 -0.1438 -0.6452 -0.3606
   92MOL   H11627598   1.129   6.521   3.187  0.6722 -0.3012  0.3769
   92MOL   H11727599   1.204   6.953   3.274 -0.7811 -0.3037  1.8073
   92MOL   H11827600   1.118   7.018   3.131 -1.8871 -3.7129 -1.9747
   92MOL   H11927601   1.061   7.123   3.375 -0.2710 -0.1727  0.3375
   92MOL   H12027602   1.003   6.965   3.427  1.8368  1.3337  0.8567
   92MOL   H12127603   0.922   7.041   3.293  1.8314 -1.3900 -4.2500
   92MOL   C12227604   1.045   6.605   3.010  0.2341  0.0275  0.0906
   92MOL   C12327605   0.969   6.488   2.935 -0.0506  0.2689  0.1649
   92MOL   C12427606   1.040   6.357   2.959 -0.1926 -0.0716  0.1151
   92MOL   O12527607   1.092   6.297   2.867 -0.2128 -0.4109  0.2545
   92MOL   O12627608   1.015   6.301   3.083 -0.1446  0.5663 -0.3604
   92MOL   C12727609   1.065   6.174   3.116 -0.0695  0.6641 -0.0364
   92MOL   C12827610   1.043   6.139   3.260  1.1453 -0.2625  0.4390
   92MOL   H12927611   0.993   6.696   2.980 -0.3129 -0.6124 -0.9328
   92MOL   H13027612   1.150   6.609   2.982  0.3244  2.3974  0.6527
   92MOL   H13127613   0.878   6.471   2.992  0.3433 -0.4364  0.6006
   92MOL   H13227614   1.029   6.101   3.042 -1.6632 -0.4562  1.8027
   92MOL   H13327615   1.172   6.188   3.101  0.1008 -0.9086 -0.3915
   92MOL   H13427616   0.942   6.147   3.301  1.6278  0.3479  1.5409
   92MOL   H13527617   1.110   6.199   3.321 -0.9680  1.8135  0.8024
   92MOL   H13627618   1.073   6.037   3.280 -0.3603 -0.8365 -0.1475
   92MOL   C13727619   0.932   6.509   2.784 -0.1153  0.3511 -0.1047
   92MOL   C13827620   1.047   6.524   2.677 -0.0603  0.7141  0.0138
   92MOL   C13927621   1.055   6.672   2.641  0.5786 -0.6882 -0.6887
   92MOL   O14027622   1.029   6.716   2.527  0.6142  0.4720 -0.4683
   92MOL   O14127623   1.084   6.745   2.750 -0.2790  0.4672  0.0708
   92MOL   C14227624   1.096   6.882   2.733 -0.2095  0.1217 -0.0978
   92MOL   C14327625   1.133   6.941   2.862  0.7452 -0.0999 -0.1547
   92MOL   H14427626   0.885   6.415   2.752 -1.6107  1.3971 -1.0684
   92MOL   H14527627   0.853   6.584   2.780 -1.1974 -0.5673  2.5459
   92MOL   H14627628   1.136   6.493   2.732 -1.6597  1.7378  3.3385
   92MOL   H14727629   1.174   6.900   2.659  0.4903  2.5382  1.1921
   92MOL   H14827630   0.996   6.917   2.705  0.1057  2.4556  1.5552
   92MOL   H14927631   1.050   6.944   2.932  0.6946  1.7504 -0.2569
   92MOL   H15027632   1.173   7.042   2.850  1.8678 -0.7016 -1.7117
   92MOL   H15127633   1.216   6.885   2.903  1.2273  2.0398  1.9282
   92MOL   C15227634   1.032   6.439   2.546  0.2383 -0.4863  0.2512
   92MOL   C15327635   1.155   6.451   2.456  0.2504  0.5284  0.6157
   92MOL   C15427636   1.126   6.423   2.309  0.4747 -0.5079  0.3950
   92MOL   O15527637   1.032   6.350   2.272  0.5845 -0.2216 -0.0122
   92MOL   O15627638   1.222   6.464   2.217  0.2927 -0.0601 -0.0881
   92MOL   C15727639   1.196   6.416   2.084 -0.7892 -0.2040 -0.5042
   92MOL   C15827640   1.306   6.466   1.989  0.7113  0.0716 -0.0833
   92MOL   H15927641   1.005   6.340   2.583 -0.5739 -0.3297  0.0923
   92MOL   H16027642   0.946   6.473   2.488 -1.3506 -0.4213  2.5642
   92MOL   H16127643   1.208   6.545   2.470  1.2750  0.0057  0.3254
   92MOL   H16227644   1.188   6.307   2.085 -1.7730 -0.2007 -2.9610
   92MOL   H16327645   1.099   6.454   2.053 -0.8344  2.0245  2.1566
   92MOL   H16427646   1.290   6.572   1.972  2.7330  0.4434  0.2467
   92MOL   H16527647   1.303   6.422   1.889  0.9670  0.3794 -0.2279
   92MOL   H16627648   1.401   6.459   2.042  1.1025  0.3477 -0.7449
   92MOL   C16727649   1.256   6.349   2.511  0.0411  0.3335  0.0083
   92MOL   C16827650   1.403   6.357   2.450  0.0356  0.2638  0.0151
   92MOL   C16927651   1.426   6.267   2.326 -0.8519  0.7331  0.2285
   92MOL   O17027652   1.353   6.173   2.306 -0.7786  0.7024  0.2093
   92MOL   O17127653   1.527   6.302   2.248 -0.1684  0.6823 -0.0852
   92MOL   C17227654   1.600   6.199   2.172 -0.4091  0.7739 -0.4413
   92MOL   C17327655   1.535   6.165   2.030  0.1712 -0.5874  0.1000
   92MOL   H17427656   1.265   6.356   2.619  1.1071  1.8365 -0.1671
   92MOL   H17527657   1.210   6.252   2.491 -1.0259  0.8928 -0.2973
   92MOL   H17627658   1.398   6.458   2.409 -1.8607 -0.1698 -0.9139
   92MOL   H17727659   1.702   6.236   2.163 -0.6632  1.3352 -1.0496
   92MOL   H17827660   1.601   6.105   2.227 -0.0737 -1.3393 -3.8725
   92MOL   H17927661   1.566   6.075   1.977 -0.8320 -2.2523  2.2554
   92MOL   H18027662   1.542   6.251   1.964 -1.7420 -0.0115  0.6069
   92MOL   H18127663   1.426   6.157   2.041 -0.1682  1.6089 -1.4573
   92MOL   C18227664   1.517   6.350   2.549 -0.0396 -0.2138 -1.0076
   92MOL   C18327665   1.533   6.483   2.623 -0.3160 -0.1245  0.8316
   92MOL   C18427666   1.576   6.596   2.531 -0.5594  0.5624 -0.3135
   92MOL   O18527667   1.507   6.692   2.509 -0.5931  0.9424 -0.2097
   92MOL   O18627668   1.696   6.568   2.478 -0.3791 -0.1753 -1.2873
   92MOL   C18727669   1.747   6.631   2.360 -0.1134  0.3864 -0.1806
   92MOL   C18827670   1.675   6.585   2.231 -0.8851  0.3533  0.4764
   92MOL   H18927671   1.504   6.273   2.625 -0.2016 -0.1634 -0.9841
   92MOL   H19027672   1.609   6.326   2.495  0.5889  1.6025 -0.7892
   92MOL   H19127673   1.441   6.516   2.671  0.5967  0.9599  1.8777
   92MOL   H19227674   1.732   6.738   2.369 -0.4747  0.2100  1.5023
   92MOL   H19327675   1.855   6.621   2.350 -0.3747 -3.0612 -0.3987
   92MOL   H19427676   1.724   6.503   2.179  1.0269  2.3696 -0.9670
   92MOL   H19527677   1.678   6.665   2.158  2.8341  1.9550  2.2662
   92MOL   H19627678   1.567   6.569   2.240 -0.7211 -0.4890  1.0472
   92MOL   C19727679   1.641   6.461   2.734  0.0755  0.3878 -0.2730
   92MOL   C19827680   1.579   6.408   2.868  0.0844 -0.0698  1.0168
   92MOL   C19927681   1.487   6.502   2.936  0.3548  0.0386 -0.3625
   92MOL   O20027682   1.372   6.470   2.950  0.6563 -1.1809  0.7122
   92MOL   O20127683   1.545   6.612   2.984  0.0965  0.2498 -0.2846
   92MOL   C20227684   1.452   6.711   3.026 -1.1047  0.6346  0.4032
   92MOL   C20327685   1.518   6.815   3.112 -0.6113 -0.0051  0.2881
   92MOL   H20427686   1.717   6.395   2.692 -0.2476  0.2517 -0.6507
   92MOL   H20527687   1.688   6.558   2.751  0.5280 -0.0822  1.2186
   92MOL   H20627688   1.509   6.329   2.841  0.6502 -0.6268  1.1484
   92MOL   H20727689   1.390   6.745   2.943  0.0216  0.1029 -0.6901
   92MOL   H20827690   1.386   6.653   3.090 -1.5488 -1.9627 -2.3071
   92MOL   H20927691   1.608   6.857   3.069 -3.3524  2.3129 -3.4890
   92MOL   H21027692   1.543   6.764   3.205  2.8106  0.8063 -0.1175
   92MOL   H21127693   1.442   6.889   3.137 -1.9315 -1.5954  1.1183
   92MOL   C21227694   1.683   6.350   2.968  0.4102 -0.5390  0.8024
   92MOL   C21327695   1.738   6.211   2.935 -0.2863  0.4097  0.3226
   92MOL   C21427696   1.735   6.118   3.067 -0.0190 -0.0642 -0.0002
   92MOL   O21527697   1.647   6.035   3.080 -0.1271 -0.6011  0.3764
   92MOL   O21627698   1.834   6.143   3.157 -0.3938 -0.4578 -0.3635
   92MOL   C21727699   1.838   6.069   3.278 -0.1386  0.2293  0.0878
   92MOL   C21827700   1.817   6.162   3.396  0.1102 -0.4258 -0.0185
   92MOL   H21927701   1.761   6.425   2.987  0.3010 -0.6684  1.7490
   92MOL   H22027702   1.644   6.346   3.069 -0.0625  0.3516  0.6618
   92MOL   H22127703   1.670   6.171   2.860 -1.0772  0.3442  1.0738
   92MOL   H22227704   1.754   5.999   3.278  1.2262 -1.4538  1.6907
   92MOL   H22327705   1.936   6.021   3.287 -1.2334 -1.9640  0.7242
   92MOL   H22427706   1.728   6.217   3.365  1.1224  1.3182  0.1391
   92MOL   H22527707   1.903   6.226   3.416  0.2047 -0.2731 -0.9143
   92MOL   H22627708   1.802   6.099   3.484  0.4702 -2.6425 -1.5012
   92MOL   C22727709   1.878   6.209   2.871  0.2791 -0.0382  0.4118
   92MOL   C22827710   1.916   6.072   2.804  0.2367  0.1629 -0.0414
   92MOL   C22927711   2.070   6.064   2.770 -0.8249  0.1185  0.1252
   92MOL   O23027712   2.155   6.146   2.813  0.0163 -0.1099  0.0028
   92MOL   O23127713   2.109   5.955   2.694 -0.0984 -0.2035 -0.1108
   92MOL   C23227714   2.243   5.914   2.663 -0.0037  0.3899  0.2546
   92MOL   C23327715   2.292   5.998   2.550 -0.1383  0.0084  0.6607
   92MOL   H23427716   1.887   6.286   2.793 -1.1229  0.2184  0.4818
   92MOL   H23527717   1.955   6.237   2.942  1.2330  0.6529 -0.8598
   92MOL   H23627718   1.902   6.003   2.887 -2.3458  1.4247  0.6138
   92MOL   H23727719   2.306   5.924   2.752  2.0590  0.2577 -1.1355
   92MOL   H23827720   2.248   5.812   2.625 -1.7063  1.0386 -1.7781
   92MOL   H23927721   2.381   5.965   2.498 -0.0157  2.2199 -0.6242
   92MOL   H24027722   2.300   6.105   2.571  0.4907  0.2823 -0.9157
   92MOL   H24127723   2.220   6.000   2.469  0.4226 -0.1432  0.1582
   92MOL   C24227724   1.825   6.041   2.684 -0.2482 -1.1783  0.3244
   92MOL   C24327725   1.810   5.899   2.634  0.0485  0.0019  0.1859
   92MOL   C24427726   1.723   5.882   2.514  0.4499 -0.4076 -0.4092
   92MOL   O24527727   1.761   5.819   2.413 -0.3648 -0.4699  0.9008
   92MOL   O24627728   1.604   5.930   2.533 -0.3143  0.0309  0.0371
   92MOL   C24727729   1.495   5.883   2.445 -0.4430 -0.3731  0.7768
   92MOL   C24827730   1.358   5.933   2.513  0.1634 -0.8933 -0.1746
   92MOL   H24927731   1.721   6.072   2.696  0.0087 -0.9071  1.9404
   92MOL   H25027732   1.861   6.102   2.601  0.6736  0.1242  1.6416
   92MOL   H25127733   1.906   5.862   2.598 -0.6067  0.8166 -2.5379
   92MOL   H25227734   1.512   5.931   2.349 -2.0479 -0.3880  0.4671
   92MOL   H25327735   1.495   5.776   2.428 -0.7686 -0.2946  0.2586
   92MOL   H25427736   1.371   6.032   2.557 -0.6490 -0.3802 -1.0448
   92MOL   H25527737   1.329   5.877   2.602  0.3070 -1.3490 -0.4162
   92MOL   H25627738   1.272   5.951   2.448 -2.2218  0.8795  3.3066
   92MOL   C25727739   1.759   5.803   2.742  0.0877 -0.2376 -0.0022
   92MOL   C25827740   1.862   5.699   2.778 -0.4541 -0.9724  0.6668
   92MOL   C25927741   1.897   5.598   2.669 -0.3476 -0.9266  0.1576
   92MOL   O26027742   2.011   5.572   2.647  0.6702  0.2819 -0.2724
   92MOL   O26127743   1.791   5.546   2.607 -0.7143  0.0588 -0.4360
   92MOL   C26227744   1.808   5.498   2.477  0.1991  0.0041 -0.0595
   92MOL   C26327745   1.666   5.453   2.429  0.5043 -0.2831 -0.2310
   92MOL   H26427746   1.732   5.859   2.831  2.3046  1.4093 -0.3529
   92MOL   H26527747   1.661   5.759   2.721  0.0488 -0.7415  1.1833
   92MOL   H26627748   1.952   5.755   2.804 -0.5238 -0.7677  0.4722
   92MOL   H26727749   1.835   5.577   2.408 -1.2505  0.1838 -0.4509
   92MOL   H26827750   1.880   5.418   2.463  0.6513  0.1165  1.5343
   92MOL   H26927751   1.660   5.433   2.322 -0.4500  1.7073 -0.5727
   92MOL   H27027752   1.600   5.531   2.467  2.2114  0.2752  1.6901
   92MOL   H27127753   1.635   5.366   2.486  1.0567  0.4426  1.1887
   92MOL   C27227754   1.830   5.621   2.906 -0.4431 -0.2303 -0.6740
   92MOL   C27327755   1.843   5.700   3.036  0.1154  0.3230 -0.5870
   92MOL   C27427756   1.988   5.751   3.060 -0.0179  0.4499 -0.5826
   92MOL   O27527757   2.008   5.873   3.055 -0.1652 -0.3892 -0.3374
   92MOL   O27627758   2.077   5.651   3.067  0.2664  1.0832  0.3053
   92MOL   C27727759   2.216   5.674   3.044 -0.3046 -0.0475 -0.5706
   92MOL   C27827760   2.222   5.665   2.892  0.1281  0.3890 -0.1375
   92MOL   H27927761   1.729   5.584   2.887 -1.1749  1.3196  0.1417
   92MOL   H28027762   1.894   5.533   2.901  1.0383  0.9150 -2.5788
   92MOL   H28127763   1.771   5.782   3.029  0.5369  0.8790  1.2300
   92MOL   H28227764   2.244   5.772   3.082 -2.0153  0.2933 -0.1302
   92MOL   H28327765   2.284   5.611   3.101  1.2104  0.7057 -1.5181
   92MOL   H28427766   2.163   5.740   2.839  1.6753  0.6000 -1.6039
   92MOL   H28527767   2.186   5.568   2.857  1.9452  0.1971 -1.5624
   92MOL   H28627768   2.328   5.674   2.871  0.3091 -0.7402  0.2364
   92MOL   C28727769   1.784   5.628   3.162  0.5560 -0.1113 -0.0368
   92MOL   C28827770   1.784   5.717   3.282  0.0896 -0.0281  0.0802
   92MOL   C28927771   1.735   5.643   3.403  0.7446 -0.2465 -0.1031
   92MOL   O29027772   1.641   5.690   3.470  0.0045 -0.0777  0.1580
   92MOL   O29127773   1.809   5.533   3.426  0.5014 -0.2390 -0.1795
   92MOL   C29227774   1.760   5.445   3.531  0.2774 -0.4880 -0.2160
   92MOL   C29327775   1.835   5.476   3.662  0.2966  0.4453 -1.4084
   92MOL   H29427776   1.685   5.584   3.147  0.7519 -0.4096 -0.4487
   92MOL   H29527777   1.847   5.541   3.180 -0.7005 -1.5359 -2.2833
   92MOL   H29627778   1.882   5.758   3.308 -0.2482  0.2174  0.9839
   92MOL   H29727779   1.653   5.451   3.550  0.5362  0.0772  1.1014
   92MOL   H29827780   1.784   5.341   3.509 -1.1328 -1.2177  1.5235
   92MOL   H29927781   1.794   5.425   3.748  1.1837  1.2415 -0.4986
   92MOL   H30027782   1.827   5.583   3.683  0.6477  0.2968 -0.4880
   92MOL   H30127783   1.940   5.446   3.662 -0.3854 -2.0119 -0.8840
   92MOL   H30227784   1.720   5.805   3.268  1.9381  1.1799 -1.0898
   93MOL     C127785   5.643   2.294   2.273  0.4507  0.0595  0.6373
   93MOL     C227786   5.709   2.388   2.174 -0.6611 -0.0771  0.2591
   93MOL     C327787   5.775   2.513   2.234  0.6833 -0.1817 -0.0352
   93MOL     O427788   5.894   2.525   2.228 -0.0278  0.1272  0.1999
   93MOL     O527789   5.685   2.600   2.279 -0.0576 -0.3286 -0.4652
   93MOL     C627790   5.727   2.733   2.313  0.3508 -0.3895 -0.3286
   93MOL     C727791   5.605   2.814   2.281 -0.0689  0.5131 -0.0905
   93MOL     H827792   5.705   2.263   2.357 -1.6416 -0.1142  2.1749
   93MOL     H927793   5.602   2.207   2.223  2.0476 -0.3747  0.0700
   93MOL    H1027794   5.797   2.340   2.130 -0.0989  0.2778  0.9869
   93MOL    H1127795   5.749   2.742   2.419  1.6680  0.4900 -0.6616
   93MOL    H1227796   5.810   2.760   2.248  0.2916  2.2267  0.5804
   93MOL    H1327797   5.525   2.782   2.347  0.2667 -1.2895 -0.5497
   93MOL    H1427798   5.569   2.782   2.183  0.2406 -1.3191  0.3900
   93MOL    H1527799   5.628   2.920   2.295  2.3290 -0.0777  0.7024
   93MOL    H1627800   5.562   2.340   2.331 -1.8068  0.1845 -2.5012
   93MOL    C1727801   5.612   2.419   2.064  0.0977  0.0402 -0.4896
   93MOL    C1827802   5.656   2.511   1.949 -0.3656 -0.5272 -0.1046
   93MOL    C1927803   5.541   2.578   1.878 -0.5038 -0.7715  0.2876
   93MOL    O2027804   5.520   2.563   1.755 -0.0744  0.0013  0.8244
   93MOL    O2127805   5.480   2.657   1.965  0.2215 -0.6318 -0.5152
   93MOL    C2227806   5.367   2.730   1.923 -0.1515  0.4311  0.3194
   93MOL    C2327807   5.344   2.852   2.016  0.2753 -0.4317  0.0012
   93MOL    H2427808   5.568   2.330   2.019 -0.5740 -0.4976  1.1735
   93MOL    H2527809   5.526   2.471   2.106  0.6449 -0.7950  1.7188
   93MOL    H2627810   5.704   2.589   2.008  1.0655 -0.8711 -0.7866
   93MOL    H2727811   5.376   2.760   1.819  0.2143  0.5938  0.3938
   93MOL    H2827812   5.285   2.658   1.917  1.2972 -1.3163  0.8975
   93MOL    H2927813   5.343   2.838   2.124 -1.4151  0.3204  0.0967
   93MOL    H3027814   5.256   2.902   1.976  0.1990 -0.4538  0.1459
   93MOL    H3127815   5.419   2.928   1.992 -0.0036 -0.2475 -0.2980
   93MOL    C3227816   5.763   2.457   1.856  0.3438  0.4716 -0.7184
   93MOL    C3327817   5.855   2.566   1.798 -0.4399  0.4903  0.5004
   93MOL    C3427818   5.883   2.536   1.649 -0.0597  0.1652 -0.0476
   93MOL    O3527819   5.864   2.627   1.568 -0.1693  0.3000  0.4608
   93MOL    O3627820   5.925   2.404   1.629 -0.1852  0.0575  0.3010
   93MOL    C3727821   5.958   2.358   1.493 -0.3070  0.0494  0.4689
   93MOL    C3827822   6.111   2.376   1.473  0.0754  0.1298 -0.2889
   93MOL    H3927823   5.817   2.379   1.911 -0.6702  0.0835 -0.2744
   93MOL    H4027824   5.709   2.405   1.777  0.0065 -1.9278  1.0426
   93MOL    H4127825   5.804   2.662   1.806 -0.0243  0.8163 -0.6443
   93MOL    H4227826   5.927   2.254   1.486 -1.0671  0.2675  0.4629
   93MOL    H4327827   5.895   2.416   1.426 -3.3287 -1.4441  1.9056
   93MOL    H4427828   6.148   2.313   1.392 -3.3912 -0.8816 -1.1768
   93MOL    H4527829   6.172   2.337   1.554 -0.7685 -0.4997  0.0518
   93MOL    H4627830   6.132   2.483   1.464  1.0972 -0.1925 -1.9198
   93MOL    C4727831   5.993   2.585   1.875  0.1505  0.1863  0.2429
   93MOL    C4827832   6.072   2.712   1.832  0.3462 -0.4551 -0.4386
   93MOL    C4927833   6.227   2.682   1.835 -0.0376 -0.7488  0.0305
   93MOL    O5027834   6.272   2.595   1.912 -0.3413 -0.3087  0.0438
   93MOL    O5127835   6.291   2.771   1.773  0.1877 -0.6940  0.4936
   93MOL    C5227836   6.420   2.811   1.823  0.4406  0.0787  0.0747
   93MOL    C5327837   6.459   2.952   1.770 -0.4966  0.4665 -0.2714
   93MOL    H5427838   5.966   2.576   1.980  0.4602 -0.0324  0.3075
   93MOL    H5527839   6.047   2.491   1.861 -0.3768 -0.0859  0.0213
   93MOL    H5627840   6.037   2.744   1.735 -0.0807 -1.5756 -0.6600
   93MOL    H5727841   6.404   2.809   1.931  2.2351 -0.0818  0.3459
   93MOL    H5827842   6.495   2.739   1.790 -0.5727 -0.6894 -0.6036
   93MOL    H5927843   6.538   2.994   1.832  1.8756 -0.6139 -2.4494
   93MOL    H6027844   6.370   3.015   1.778 -1.0458 -0.1345 -1.5605
   93MOL    H6127845   6.496   2.941   1.668  0.6924  0.6134  0.1378
   93MOL    C6227846   6.057   2.829   1.930  1.0526 -0.5789 -0.0122
   93MOL    C6327847   5.911   2.883   1.943 -0.7777  0.3834 -0.6471
   93MOL    C6427848   5.855   2.957   1.823 -0.3166 -0.6412  0.9493
   93MOL    O6527849   5.929   2.996   1.730  0.5837 -0.1483 -0.0324
   93MOL    O6627850   5.727   2.975   1.827  0.1317 -0.1781 -0.6202
   93MOL    C6727851   5.648   3.014   1.717 -0.0282  0.2662  0.2666
   93MOL    C6827852   5.595   2.885   1.647 -0.1331  0.1280 -0.4532
   93MOL    H6927853   6.081   2.795   2.031  0.8833 -0.5892  0.0247
   93MOL    H7027854   6.126   2.910   1.905 -2.6776  2.4487 -0.8675
   93MOL    H7127855   5.846   2.796   1.955 -0.2856  0.2706  1.2507
   93MOL    H7227856   5.571   3.088   1.735  0.3316  0.4699  1.0159
   93MOL    H7327857   5.720   3.062   1.650  0.8799 -0.0726  0.9765
   93MOL    H7427858   5.530   2.831   1.715 -0.2763  2.3433  1.2152
   93MOL    H7527859   5.680   2.816   1.648 -0.1953  0.0613  0.3507
   93MOL    H7627860   5.561   2.890   1.543  0.3657 -1.6802 -0.7231
   93MOL    C7727861   5.903   2.975   2.067 -0.3632  0.8795  0.0878
   93MOL    C7827862   5.971   3.115   2.041 -0.6471 -0.0577 -0.3403
   93MOL    C7927863   6.105   3.140   2.106  0.2351 -0.2485  0.3710
   93MOL    O8027864   6.164   3.051   2.166 -0.1265  0.3803 -0.2640
   93MOL    O8127865   6.155   3.259   2.097  0.0218 -0.3985  0.2230
   93MOL    C8227866   6.291   3.284   2.139  0.0864 -0.2978 -0.5262
   93MOL    C8327867   6.382   3.288   2.014 -0.0171 -0.1960  0.1716
   93MOL    H8427868   5.796   2.983   2.083 -0.6949  2.6189 -2.7145
   93MOL    H8527869   5.938   2.935   2.162  0.9829  2.2661  0.1917
   93MOL    H8627870   5.997   3.116   1.935 -0.6013  2.8289 -0.3250
   93MOL    H8727871   6.291   3.390   2.161 -1.6080 -0.0670 -1.5956
   93MOL    H8827872   6.322   3.242   2.235  1.9041  1.4095 -0.3346
   93MOL    H8927873   6.324   3.303   1.923  0.3394  0.5579  0.0673
   93MOL    H9027874   6.429   3.192   1.993  0.6392 -0.0756  1.0362
   93MOL    H9127875   6.456   3.368   2.025 -0.5687  0.1626  1.3741
   93MOL    C9227876   5.873   3.233   2.059  0.4334  0.1188  0.5052
   93MOL    C9327877   5.824   3.278   2.204 -0.6713  0.0001  0.2137
   93MOL    C9427878   5.683   3.216   2.236  0.1006 -0.2417 -0.0719
   93MOL    O9527879   5.619   3.160   2.147  0.3079  0.2977  0.4642
   93MOL    O9627880   5.636   3.233   2.359 -0.1138  0.5297  0.6572
   93MOL    C9727881   5.507   3.192   2.401  0.6089  0.2618  0.2637
   93MOL    C9827882   5.384   3.267   2.349 -0.6111  0.5107  0.4465
   93MOL    H9927883   5.925   3.322   2.023 -1.3298  1.2743  0.7385
   93MOL   H10027884   5.791   3.222   1.988  0.6234 -2.3799  0.6110
   93MOL   H10127885   5.897   3.242   2.277  2.5239  0.6546 -2.5569
   93MOL   H10227886   5.488   3.088   2.374 -0.1455  1.1214 -2.7258
   93MOL   H10327887   5.512   3.187   2.509  0.7812  0.5765  0.2718
   93MOL   H10427888   5.355   3.348   2.416 -0.4788  1.3740 -0.5317
   93MOL   H10527889   5.308   3.190   2.365  1.8690 -2.1159 -0.0117
   93MOL   H10627890   5.395   3.302   2.247 -0.6147 -0.2141  0.1942
   93MOL   C10727891   5.825   3.443   2.216  0.1838 -0.2195  0.2524
   93MOL   C10827892   5.966   3.505   2.226  0.0135 -0.3080 -0.0150
   93MOL   C10927893   6.020   3.477   2.368 -0.0004 -0.3256  0.0964
   93MOL   O11027894   5.953   3.527   2.465  1.1905  0.2962  0.5941
   93MOL   O11127895   6.139   3.410   2.369 -1.1906 -0.0218 -0.1690
   93MOL   C11227896   6.203   3.376   2.496  0.1810 -0.5740 -0.0776
   93MOL   C11327897   6.277   3.499   2.545  0.3660  0.5636  0.4365
   93MOL   H11427898   5.781   3.483   2.125  0.4977 -0.3871  0.0266
   93MOL   H11527899   5.756   3.466   2.297 -2.1803 -0.9819 -1.4876
   93MOL   H11627900   6.036   3.454   2.161 -0.3634 -1.4860  0.4872
   93MOL   H11727901   6.128   3.354   2.572  2.7433  0.1971  2.7401
   93MOL   H11827902   6.261   3.284   2.494 -1.5850 -1.8338  2.7420
   93MOL   H11927903   6.350   3.528   2.470  0.3414 -0.8305 -0.1556
   93MOL   H12027904   6.327   3.475   2.639  1.2274  2.5686  0.5072
   93MOL   H12127905   6.214   3.587   2.554  1.8487  1.7439 -0.5401
   93MOL   C12227906   5.965   3.654   2.194 -0.1020  0.1788  0.4818
   93MOL   C12327907   6.086   3.706   2.121  0.0078 -0.1904  0.1496
   93MOL   C12427908   6.109   3.648   1.985 -0.2286 -0.3903 -0.1436
   93MOL   O12527909   6.207   3.575   1.968 -0.2764 -0.7053 -0.3799
   93MOL   O12627910   6.021   3.684   1.897 -0.2274  0.6720  0.2000
   93MOL   C12727911   6.029   3.628   1.761  0.5412  0.5223 -0.6519
   93MOL   C12827912   5.976   3.740   1.663 -0.7054 -0.0780  0.2544
   93MOL   H12927913   5.879   3.673   2.129 -0.0669 -3.3379 -0.7106
   93MOL   H13027914   5.946   3.728   2.272 -2.6951  0.4479 -0.3641
   93MOL   H13127915   6.053   3.809   2.104 -2.2061 -0.6507  1.5581
   93MOL   H13227916   6.133   3.602   1.743  0.5384  1.2877 -1.8168
   93MOL   H13327917   5.960   3.544   1.749 -1.0049  1.4475  1.2943
   93MOL   H13427918   5.871   3.767   1.676 -0.9929  0.6853 -3.2013
   93MOL   H13527919   5.995   3.710   1.560 -1.6928  1.9050 -0.5429
   93MOL   H13627920   6.022   3.839   1.667 -1.2539  0.1770  0.3329
   93MOL   C13727921   6.220   3.718   2.198  0.0433  0.2524  0.1797
   93MOL   C13827922   6.331   3.805   2.131 -0.1829 -0.6774 -0.3990
   93MOL   C13927923   6.470   3.738   2.150  0.3644 -0.3628 -0.1290
   93MOL   O14027924   6.531   3.681   2.058  0.2022  0.4305 -0.0454
   93MOL   O14127925   6.520   3.742   2.278  0.0433 -0.6025 -0.0795
   93MOL   C14227926   6.640   3.678   2.318 -1.2867 -0.0884 -0.7239
   93MOL   C14327927   6.617   3.559   2.407 -0.3501  0.9355 -0.3997
   93MOL   H14427928   6.196   3.771   2.291 -1.3627  0.8915 -0.5252
   93MOL   H14527929   6.251   3.619   2.229  1.5742  0.5164 -0.4673
   93MOL   H14627930   6.334   3.800   2.022  0.0142  0.7242 -0.4680
   93MOL   H14727931   6.697   3.651   2.229 -1.0513 -3.1048  0.2672
   93MOL   H14827932   6.710   3.735   2.379  1.2727 -2.1070 -1.6903
   93MOL   H14927933   6.575   3.473   2.357 -0.0105  0.1037  0.7258
   93MOL   H15027934   6.565   3.588   2.498 -0.0785 -0.8229  0.3265
   93MOL   H15127935   6.713   3.524   2.445 -0.0558  3.3923  1.3002
   93MOL   C15227936   6.332   3.958   2.166 -0.3846  0.2492  0.6945
   93MOL   C15327937   6.222   4.046   2.089  0.6542 -0.3029 -0.0981
   93MOL   C15427938   6.251   4.044   1.936  0.4051  0.7460 -0.4705
   93MOL   O15527939   6.158   4.018   1.861  0.2931  0.0373  0.0791
   93MOL   O15627940   6.368   4.094   1.906 -0.0656  0.2576  0.0677
   93MOL   C15727941   6.392   4.120   1.767  0.1736 -0.8701  0.0610
   93MOL   C15827942   6.544   4.127   1.742 -0.1908  0.4041 -0.0335
   93MOL   H15927943   6.325   3.966   2.274  0.3243  1.3840  0.6730
   93MOL   H16027944   6.431   4.000   2.147 -0.2373 -0.3313  0.1688
   93MOL   H16127945   6.128   3.997   2.113  1.0875 -0.7408  0.7348
   93MOL   H16227946   6.343   4.053   1.696 -0.3348 -0.6624  0.2161
   93MOL   H16327947   6.349   4.217   1.745  0.8429 -0.5602  0.0937
   93MOL   H16427948   6.561   4.160   1.639  1.0980  2.4648  0.8130
   93MOL   H16527949   6.597   4.036   1.772  1.9644  1.6749  0.0915
   93MOL   H16627950   6.585   4.206   1.805 -0.2425 -1.1809  2.0462
   93MOL   C16727951   6.219   4.193   2.141  0.3832 -0.1308  0.5353
   93MOL   C16827952   6.206   4.214   2.291  0.3626 -0.2626 -0.8068
   93MOL   C16927953   6.072   4.156   2.329  0.1217 -0.7975 -0.0598
   93MOL   O17027954   5.969   4.195   2.273  0.0089 -0.3195 -0.0721
   93MOL   O17127955   6.072   4.059   2.408  0.2795  0.8864 -0.0604
   93MOL   C17227956   5.948   3.998   2.445 -0.6949 -0.0107  0.1489
   93MOL   C17327957   5.976   3.881   2.543 -0.5217  0.1638 -0.9742
   93MOL   H17427958   6.297   4.253   2.094  0.3346 -2.1284 -2.1939
   93MOL   H17527959   6.135   4.242   2.092  2.4566  1.7503 -1.2652
   93MOL   H17627960   6.289   4.163   2.341  0.2020  0.7192  0.4819
   93MOL   H17727961   5.882   4.064   2.502 -0.7041  0.4840 -0.4250
   93MOL   H17827962   5.909   3.949   2.356  1.2046 -1.6235  0.1808
   93MOL   H17927963   6.041   3.801   2.507 -1.3019 -1.2252  0.6054
   93MOL   H18027964   5.889   3.828   2.582 -1.0111  1.4348 -0.3198
   93MOL   H18127965   6.024   3.925   2.631 -2.7920  0.3530  0.2132
   93MOL   C18227966   6.205   4.357   2.331  0.1814 -0.8738 -0.5161
   93MOL   C18327967   6.346   4.423   2.361  0.6571  0.2813 -0.1858
   93MOL   C18427968   6.426   4.429   2.234  0.3047 -0.0135 -0.0201
   93MOL   O18527969   6.409   4.517   2.153  0.2873 -0.5602 -0.7381
   93MOL   O18627970   6.513   4.325   2.219 -0.6273  0.2657 -0.5875
   93MOL   C18727971   6.601   4.322   2.108 -0.2248  0.5459  0.0454
   93MOL   C18827972   6.736   4.351   2.181 -0.0825  0.7973  0.4684
   93MOL   H18927973   6.157   4.412   2.250  0.7725 -1.1551 -1.0648
   93MOL   H19027974   6.144   4.379   2.419 -1.3806  0.6314 -1.9538
   93MOL   H19127975   6.312   4.525   2.382  0.3792 -0.6290  4.2659
   93MOL   H19227976   6.609   4.223   2.064 -2.0686  0.7767 -0.8402
   93MOL   H19327977   6.571   4.398   2.035  2.3450  2.9213  1.3763
   93MOL   H19427978   6.730   4.446   2.233  2.4139 -0.2761  2.9054
   93MOL   H19527979   6.824   4.359   2.117 -0.5034  0.1529 -0.1944
   93MOL   H19627980   6.747   4.272   2.256 -0.3605  1.1537  0.8893
   93MOL   C19727981   6.418   4.371   2.491 -0.6230 -0.6401  0.3940
   93MOL   C19827982   6.349   4.409   2.625 -0.3935 -0.0198 -0.5379
   93MOL   C19927983   6.368   4.561   2.657 -0.3670 -0.4520  0.5686
   93MOL   O20027984   6.270   4.641   2.664 -0.3697 -0.7622 -0.1646
   93MOL   O20127985   6.493   4.589   2.670 -0.0321  0.0715 -0.4152
   93MOL   C20227986   6.538   4.722   2.675 -0.1822 -0.3268 -0.3485
   93MOL   C20327987   6.663   4.719   2.767  0.3278 -0.3003 -0.4081
   93MOL   H20427988   6.432   4.264   2.477  0.7297 -0.1060 -2.7792
   93MOL   H20527989   6.522   4.402   2.499 -1.1947  1.2044  0.8092
   93MOL   H20627990   6.242   4.391   2.621 -0.3724  0.0583 -1.8596
   93MOL   H20727991   6.554   4.750   2.571 -0.4354 -1.7353 -0.7827
   93MOL   H20827992   6.461   4.790   2.712 -0.2393 -1.6649  2.0338
   93MOL   H20927993   6.697   4.823   2.775 -1.7151  0.3037  0.5682
   93MOL   H21027994   6.739   4.645   2.744 -0.0734 -0.5347 -0.9882
   93MOL   H21127995   6.623   4.704   2.867 -1.5432 -0.7287 -1.1991
   93MOL   C21227996   6.421   4.327   2.742  0.0212 -0.2670 -0.0093
   93MOL   C21327997   6.342   4.200   2.771  0.5617  0.1357 -0.6662
   93MOL   C21427998   6.359   4.075   2.682 -0.8129  0.9254  0.1154
   93MOL   O21527999   6.280   3.981   2.671 -0.1187  0.2455 -0.1612
   93MOL   O21628000   6.479   4.075   2.626  0.4242  0.0555  0.2182
   93MOL   C21728001   6.527   3.983   2.533  0.2955  1.0744 -0.1310
   93MOL   C21828002   6.607   4.044   2.412  0.0237 -0.7525 -0.0426
   93MOL   H21928003   6.527   4.316   2.716  0.3333 -1.9467  1.8102
   93MOL   H22028004   6.436   4.389   2.830 -1.1217  0.5952 -0.4277
   93MOL   H22128005   6.404   4.166   2.854  1.8415  0.4521 -1.4653
   93MOL   H22228006   6.582   3.907   2.588 -0.7983  1.2549  1.2502
   93MOL   H22328007   6.437   3.934   2.496  0.5975  0.3607  0.0802
   93MOL   H22428008   6.672   3.969   2.367  2.0347 -0.5324  2.3492
   93MOL   H22528009   6.686   4.109   2.449 -0.2817 -1.7722  2.5193
   93MOL   H22628010   6.549   4.083   2.329 -0.3391 -0.6664  0.2514
   93MOL   C22728011   6.202   4.212   2.833  0.4633 -0.0737 -0.5078
   93MOL   C22828012   6.198   4.300   2.960 -0.0373  0.6445  0.0249
   93MOL   C22928013   6.272   4.245   3.089  0.1586 -0.1637  0.1967
   93MOL   O23028014   6.388   4.271   3.112 -0.6566 -0.0686 -0.1647
   93MOL   O23128015   6.199   4.168   3.160 -0.3126 -0.2630  0.0676
   93MOL   C23228016   6.248   4.113   3.278 -0.4059  0.4804  0.0673
   93MOL   C23328017   6.130   4.035   3.342  0.5862  0.3309  0.6345
   93MOL   H23428018   6.144   4.252   2.750 -0.1587 -0.2799 -0.1720
   93MOL   H23528019   6.159   4.113   2.853 -0.3706  0.0434 -1.7095
   93MOL   H23628020   6.256   4.391   2.946  1.5526 -0.2769  0.4913
   93MOL   H23728021   6.327   4.039   3.266 -0.8865 -0.3240  1.7110
   93MOL   H23828022   6.280   4.193   3.344 -1.1207  0.7684  0.0773
   93MOL   H23928023   6.089   3.965   3.269  1.8879  1.7819 -1.5644
   93MOL   H24028024   6.057   4.109   3.375  0.7380  1.1065 -0.7259
   93MOL   H24128025   6.160   3.981   3.432 -0.0961 -0.5639  0.3296
   93MOL   C24228026   6.046   4.348   3.001 -0.3513 -0.3655  0.3781
   93MOL   C24328027   5.984   4.448   2.905 -0.2528  0.2039 -0.4090
   93MOL   C24428028   6.057   4.586   2.914 -0.4322 -0.1009  0.9181
   93MOL   O24528029   6.134   4.612   3.005 -0.1134 -0.3588  0.1775
   93MOL   O24628030   6.009   4.676   2.828  0.0032  0.2153  0.1037
   93MOL   C24728031   6.050   4.811   2.830 -0.2923 -0.8599  0.6932
   93MOL   C24828032   5.963   4.910   2.920 -0.5659  0.4224  0.2171
   93MOL   H24928033   5.979   4.264   2.985 -0.7137 -0.1245  0.6332
   93MOL   H25028034   6.035   4.391   3.101  0.8740  0.7623  0.0464
   93MOL   H25128035   6.005   4.409   2.806 -1.2010  0.7839 -0.8362
   93MOL   H25228036   6.158   4.818   2.836 -0.3347 -0.6712  1.2195
   93MOL   H25328037   6.028   4.849   2.730 -0.1170 -1.6088  0.3661
   93MOL   H25428038   5.948   5.009   2.877 -2.0643 -0.1963 -0.7019
   93MOL   H25528039   6.003   4.916   3.022 -3.4242  0.1169  1.3845
   93MOL   H25628040   5.867   4.861   2.912 -0.0816 -0.6878  1.0911
   93MOL   C25728041   5.833   4.464   2.948  0.1103 -0.1122  0.4404
   93MOL   C25828042   5.733   4.357   2.892  1.2356  0.2547 -0.6071
   93MOL   C25928043   5.779   4.304   2.760 -0.0615 -0.1266 -0.3832
   93MOL   O26028044   5.801   4.184   2.747  0.0647  0.2829 -0.0153
   93MOL   O26128045   5.803   4.403   2.665 -0.3775 -0.3925 -0.5400
   93MOL   C26228046   5.875   4.385   2.543  0.2583  0.0587 -0.8349
   93MOL   C26328047   5.756   4.345   2.446 -0.2132  0.0172 -0.0283
   93MOL   H26428048   5.815   4.484   3.054  0.8267 -0.9389  0.7266
   93MOL   H26528049   5.802   4.559   2.905 -0.3330  0.0237  1.0499
   93MOL   H26628050   5.742   4.266   2.950  2.6536  1.5456  1.2716
   93MOL   H26728051   5.910   4.485   2.516  2.7924 -0.1818  1.4036
   93MOL   H26828052   5.951   4.308   2.548 -1.4886 -1.7354 -1.2106
   93MOL   H26928053   5.683   4.426   2.443  0.6036  0.7791  0.0631
   93MOL   H27028054   5.705   4.257   2.483 -0.2110 -0.3219 -0.8280
   93MOL   H27128055   5.783   4.320   2.343  0.3497 -3.1177  0.8304
   93MOL   C27228056   5.583   4.385   2.905  0.0881  0.4825  0.1399
   93MOL   C27328057   5.493   4.276   2.969  0.6347 -0.5594 -0.5983
   93MOL   C27428058   5.490   4.143   2.886  0.5173  0.4146  0.0297
   93MOL   O27528059   5.535   4.037   2.933  0.4934  0.5579  0.3375
   93MOL   O27628060   5.435   4.161   2.761 -0.2101 -0.0022 -0.2107
   93MOL   C27728061   5.412   4.050   2.675 -0.9841  0.7186  0.2232
   93MOL   C27828062   5.536   4.000   2.608  0.1912  0.3703 -0.9054
   93MOL   H27928063   5.575   4.468   2.975  1.6443 -0.1204  1.0765
   93MOL   H28028064   5.551   4.420   2.807 -1.4336  1.7761  1.0741
   93MOL   H28128065   5.526   4.266   3.072 -1.4243 -2.0444 -0.0534
   93MOL   H28228066   5.361   3.967   2.723  2.0450 -1.3216  0.0690
   93MOL   H28328067   5.336   4.091   2.608 -0.2135  0.8561 -0.5807
   93MOL   H28428068   5.588   4.073   2.545  0.7749  0.6622 -0.0913
   93MOL   H28528069   5.520   3.910   2.548  0.0597 -0.7608  0.7896
   93MOL   H28628070   5.603   3.963   2.685 -3.2208 -0.5698  1.6977
   93MOL   C28728071   5.350   4.339   2.989 -0.1939  0.0101  0.0905
   93MOL   C28828072   5.251   4.268   3.078  0.8453  0.2037  0.2392
   93MOL   C28928073   5.299   4.232   3.223 -0.0828  0.6626 -0.5268
   93MOL   O29028074   5.351   4.325   3.288 -0.4297 -0.1002  0.0825
   93MOL   O29128075   5.283   4.102   3.266 -0.2409  0.1973 -0.7169
   93MOL   C29228076   5.339   4.065   3.394 -0.4647 -1.0198 -0.3470
   93MOL   C29328077   5.239   4.081   3.508 -0.3274 -0.3782 -0.4638
   93MOL   H29428078   5.357   4.442   3.025 -0.4306 -0.1227  0.5194
   93MOL   H29528079   5.313   4.349   2.887  1.6671 -1.5866 -0.7748
   93MOL   H29628080   5.153   4.315   3.067 -0.0211 -1.4253  0.8323
   93MOL   H29728081   5.379   3.964   3.382 -1.9039 -1.7237  0.5642
   93MOL   H29828082   5.427   4.124   3.418 -0.7074 -0.3754 -1.0408
   93MOL   H29928083   5.280   4.041   3.601  0.4718  0.2125 -0.5500
   93MOL   H30028084   5.154   4.017   3.486 -0.4656 -0.1885 -0.4801
   93MOL   H30128085   5.208   4.184   3.525 -0.6298 -0.2345 -1.8132
   93MOL   H30228086   5.219   4.178   3.025 -0.6013  1.4600 -1.0924
   94MOL     C128087   6.834   7.486   2.016  0.4775 -0.2705 -0.0444
   94MOL     C228088   6.812   7.592   1.903 -0.7851  0.0547 -0.3698
   94MOL     C328089   6.675   7.653   1.909 -0.5240 -0.5522  0.5770
   94MOL     O428090   6.579   7.627   1.829  0.5069 -0.3926  0.5971
   94MOL     O528091   6.669   7.740   2.004  0.7333 -0.4141  0.0487
   94MOL     C628092   6.572   7.838   2.013  0.1613 -0.1997  0.4497
   94MOL     C728093   6.571   7.896   2.152  0.6287  0.1622 -0.1381
   94MOL     H828094   6.849   7.528   2.115  0.2633 -0.8440  0.2322
   94MOL     H928095   6.931   7.440   1.998 -0.6777 -2.3789 -1.1224
   94MOL    H1028096   6.871   7.681   1.922 -1.7804  0.7227 -0.3870
   94MOL    H1128097   6.595   0.010   1.943 -0.3706 -0.1102  0.3744
   94MOL    H1228098   6.474   7.799   1.989 -0.6170  1.5613  0.6557
   94MOL    H1328099   6.669   0.025   2.184  0.1206  0.6525  0.8769
   94MOL    H1428100   6.533   7.826   2.226 -0.5580  0.8154 -0.1173
   94MOL    H1528101   6.518   0.083   2.157  0.3459  0.0675 -1.2608
   94MOL    H1628102   6.751   7.415   2.011 -0.4365  0.7266  0.6469
   94MOL    C1728103   6.847   7.547   1.759  0.1712 -0.5177 -0.2874
   94MOL    C1828104   6.998   7.560   1.718  0.2431  0.0484 -0.1190
   94MOL    C1928105   7.060   7.701   1.718  0.0231 -0.6477 -0.0131
   94MOL    O2028106   6.988   7.793   1.682  0.0047 -0.1446 -0.0251
   94MOL    O2128107   7.190   7.704   1.748 -0.4479  0.2179 -0.2993
   94MOL    C2228108   7.266   7.826   1.742  0.6218  0.2266  0.2186
   94MOL    C2328109   7.335   7.836   1.603  0.1330  0.6395  0.0975
   94MOL    H2428110   6.800   7.449   1.751  0.6399 -0.7423 -0.3682
   94MOL    H2528111   6.792   7.604   1.684  2.6551  1.0313 -1.0108
   94MOL    H2628112   7.050   7.497   1.790 -1.4414 -0.6568  0.5232
   94MOL    H2728113   7.201   0.004   1.757  0.3140  0.2769 -1.3718
   94MOL    H2828114   7.347   7.820   1.815  1.3322 -0.0203 -0.5880
   94MOL    H2928115   7.382   7.740   1.579 -2.4847 -0.9926  1.1538
   94MOL    H3028116   7.409   0.007   1.604  0.4580  0.3295  1.1572
   94MOL    H3128117   7.263   7.861   1.525  0.3512  0.3259 -0.2061
   94MOL    C3228118   7.032   7.487   1.584  0.4116 -0.0653 -0.1221
   94MOL    C3328119   7.040   7.331   1.599 -0.5188  0.3271  0.4229
   94MOL    C3428120   7.182   7.291   1.652 -0.0649 -0.1435  0.2725
   94MOL    O3528121   7.201   7.247   1.767 -0.6873  0.1034  0.2598
   94MOL    O3628122   7.280   7.297   1.558 -0.1934 -0.0012 -0.0301
   94MOL    C3728123   7.414   7.269   1.605  0.2237 -0.3516 -0.6291
   94MOL    C3828124   7.488   7.400   1.562  0.4761 -0.1776  0.1708
   94MOL    H3928125   6.965   7.514   1.502 -0.4411 -0.8596  0.2999
   94MOL    H4028126   7.132   7.513   1.551  0.8455 -1.2554  0.2606
   94MOL    H4128127   6.971   7.312   1.682 -0.3478 -1.4834  0.1720
   94MOL    H4228128   7.436   7.242   1.709  1.3732  1.8160 -0.2830
   94MOL    H4328129   7.452   7.184   1.549  0.6440  0.2648 -1.2868
   94MOL    H4428130   7.443   7.492   1.597  0.2021 -0.2996  0.1361
   94MOL    H4528131   7.485   7.406   1.453  0.0681  1.1077  0.2495
   94MOL    H4628132   7.595   7.400   1.582  0.8331 -2.4905 -1.5131
   94MOL    C4728133   7.000   7.252   1.470  0.3258 -0.1061 -0.3990
   94MOL    C4828134   6.850   7.229   1.451  0.9388 -0.3839  0.3976
   94MOL    C4928135   6.783   7.113   1.536  0.1520 -0.4504 -0.1720
   94MOL    O5028136   6.715   7.021   1.494 -0.0948  0.8516 -0.0159
   94MOL    O5128137   6.818   7.118   1.665 -0.4636 -0.2302 -0.5555
   94MOL    C5228138   6.774   7.018   1.754  0.0055 -0.0957 -0.3394
   94MOL    C5328139   6.874   7.032   1.866  0.4076 -0.2111  0.1775
   94MOL    H5428140   7.038   7.306   1.383  0.7408 -2.4145 -1.6764
   94MOL    H5528141   7.059   7.161   1.464  2.5347  1.1435  1.4120
   94MOL    H5628142   6.801   7.321   1.480  0.2237 -0.5169 -0.3380
   94MOL    H5728143   6.672   7.043   1.780  0.5355  0.2293  1.4623
   94MOL    H5828144   6.783   6.921   1.704  1.2860 -0.4532  0.5645
   94MOL    H5928145   6.843   6.962   1.943 -0.0345 -0.7577 -0.4944
   94MOL    H6028146   6.877   7.133   1.908 -1.0629 -1.0154  2.2825
   94MOL    H6128147   6.969   7.013   1.817  0.3047 -0.7336  0.1814
   94MOL    C6228148   6.818   7.214   1.303 -0.2533  0.0765 -0.2577
   94MOL    C6328149   6.803   7.356   1.229  0.1757 -0.1019  0.2839
   94MOL    C6428150   6.687   7.447   1.279 -0.2214  0.1203 -0.2024
   94MOL    O6528151   6.694   7.538   1.360  0.0800 -0.2089 -0.6976
   94MOL    O6628152   6.568   7.409   1.233 -0.3762 -0.1156 -0.2229
   94MOL    C6728153   6.442   7.479   1.253 -0.2051 -0.6104 -0.6867
   94MOL    C6828154   6.376   7.492   1.116 -0.1408 -0.4398  0.4194
   94MOL    H6928155   6.889   7.146   1.257 -2.7269 -1.7716 -1.4747
   94MOL    H7028156   6.725   7.158   1.293 -0.1616 -0.4315  1.4563
   94MOL    H7128157   6.892   7.418   1.236 -0.4926  0.8612  0.3267
   94MOL    H7228158   6.391   7.421   1.329  0.7002 -2.1816 -1.2507
   94MOL    H7328159   6.455   7.582   1.288 -1.2151 -0.5161 -0.5882
   94MOL    H7428160   6.391   7.404   1.053 -0.4902  0.1696 -0.5165
   94MOL    H7528161   6.427   7.579   1.075 -0.6903 -0.1751  0.3008
   94MOL    H7628162   6.270   7.514   1.126 -0.0791 -0.2499  0.6709
   94MOL    C7728163   6.804   7.341   1.075  0.5778  0.5254 -0.2464
   94MOL    C7828164   6.952   7.308   1.021  0.8345  0.0334 -0.2392
   94MOL    C7928165   7.013   7.444   0.973 -0.1707  0.0947 -0.0120
   94MOL    O8028166   7.110   7.506   1.024  0.5199  0.4088 -0.2175
   94MOL    O8128167   6.945   7.474   0.863  0.0954 -0.1511 -0.5050
   94MOL    C8228168   6.971   7.592   0.792 -0.2501 -0.1450  0.0505
   94MOL    C8328169   6.934   7.574   0.645  0.0762  0.1447 -0.3058
   94MOL    H8428170   6.741   7.256   1.050  0.5711  1.3592 -3.1988
   94MOL    H8528171   6.757   7.424   1.023  1.4442  2.0352  1.3291
   94MOL    H8628172   7.013   7.273   1.104 -1.1024 -0.0164  1.1942
   94MOL    H8728173   6.909   7.665   0.845 -0.9032  0.2985 -1.2935
   94MOL    H8828174   7.077   7.614   0.794 -0.1953 -0.3626 -0.5011
   94MOL    H8928175   6.994   7.503   0.588 -2.4574 -2.7473  0.5088
   94MOL    H9028176   6.933   7.663   0.582  1.7511 -1.8459 -3.2724
   94MOL    H9128177   6.830   7.541   0.636  0.2406  0.1499 -2.6111
   94MOL    C9228178   6.961   7.199   0.913  0.3061 -0.2794  0.3580
   94MOL    C9328179   7.107   7.138   0.896  0.0908  0.4097 -0.4916
   94MOL    C9428180   7.197   7.236   0.823  0.8825  0.1663  0.9854
   94MOL    O9528181   7.173   7.291   0.718 -0.1278  0.2441  0.1287
   94MOL    O9628182   7.309   7.261   0.888  0.1486 -0.4644 -0.2360
   94MOL    C9728183   7.401   7.357   0.838 -0.5832  0.0686 -0.0954
   94MOL    C9828184   7.500   7.277   0.753  0.1615  0.1784  0.0554
   94MOL    H9928185   6.892   7.132   0.963 -0.2604  0.3867  0.4798
   94MOL   H10028186   6.929   7.236   0.815 -0.6726  0.4789  0.9522
   94MOL   H10128187   7.152   7.131   0.995  0.2757 -0.9176 -0.6574
   94MOL   H10228188   7.346   7.436   0.786 -2.1582 -1.0735 -0.2132
   94MOL   H10328189   7.456   7.407   0.918 -1.1811  0.3474  0.1435
   94MOL   H10428190   7.553   7.201   0.810 -0.2151  0.0648  0.2559
   94MOL   H10528191   7.565   7.356   0.715 -0.2733 -0.4829 -2.1011
   94MOL   H10628192   7.444   7.225   0.676 -1.1342  0.6645  0.6619
   94MOL   C10728193   7.129   6.999   0.833  0.0508 -0.2422  0.6506
   94MOL   C10828194   7.055   6.889   0.911  0.2865 -0.2046  0.1265
   94MOL   C10928195   7.108   6.864   1.048 -0.2928  0.6189  0.4636
   94MOL   O11028196   7.047   6.898   1.149 -0.6590 -0.2300  0.0816
   94MOL   O11128197   7.233   6.815   1.049 -1.1524  0.0030  0.5654
   94MOL   C11228198   7.291   6.757   1.158 -1.1627  0.4953 -0.1207
   94MOL   C11328199   7.440   6.758   1.142  0.1301  0.8528  1.3574
   94MOL   H11428200   7.088   7.000   0.732 -1.6990 -2.2893  1.2968
   94MOL   H11528201   7.234   6.976   0.821 -0.4127 -2.3940  0.5477
   94MOL   H11628202   6.949   6.911   0.924  0.3970  1.4732 -1.5213
   94MOL   H11728203   7.269   6.821   1.243  0.9421 -0.7709  1.4127
   94MOL   H11828204   7.261   6.654   1.174  0.7719 -0.1320 -0.4462
   94MOL   H11928205   7.477   6.679   1.077 -1.2474  1.0689  0.2779
   94MOL   H12028206   7.500   6.731   1.228  0.8502 -1.6603  0.0898
   94MOL   H12128207   7.477   6.860   1.128  1.0240 -0.0457 -4.0173
   94MOL   C12228208   7.051   6.759   0.826  0.5913  0.3326 -0.8746
   94MOL   C12328209   6.921   6.678   0.864  0.4084 -0.1604  0.1993
   94MOL   C12428210   6.959   6.528   0.851  0.3661 -0.4290  0.5487
   94MOL   O12528211   7.001   6.471   0.951 -0.1463  0.0344 -0.1472
   94MOL   O12628212   6.965   6.489   0.717 -0.0381  0.0183  0.2000
   94MOL   C12728213   7.039   6.374   0.683  0.5504 -0.6933  0.2629
   94MOL   C12828214   7.079   6.381   0.537  0.4072  0.1001  0.4905
   94MOL   H12928215   7.051   6.769   0.718 -0.6067 -1.0317 -1.0318
   94MOL   H13028216   7.135   6.695   0.851  0.8754  0.7393 -0.7873
   94MOL   H13128217   6.907   6.709   0.968 -0.0445 -2.6509  0.9072
   94MOL   H13228218   7.129   6.363   0.744  2.4512 -0.2054 -2.3668
   94MOL   H13328219   6.985   6.280   0.694 -0.4253 -0.2191 -0.4282
   94MOL   H13428220   7.161   6.453   0.523  0.5050 -0.4051 -1.6536
   94MOL   H13528221   7.002   6.412   0.467 -0.6396 -1.7229  0.8305
   94MOL   H13628222   7.109   6.284   0.498 -1.1769 -1.0740  2.1158
   94MOL   C13728223   6.802   6.727   0.779  0.5159  0.7685  0.5712
   94MOL   C13828224   6.661   6.732   0.844 -0.5596 -0.5499  0.4026
   94MOL   C13928225   6.657   6.842   0.951 -0.5005 -0.2949  0.8478
   94MOL   O14028226   6.688   6.961   0.922 -0.4592 -0.5381  0.1102
   94MOL   O14128227   6.641   6.798   1.080 -0.5055 -0.3115 -0.7909
   94MOL   C14228228   6.658   6.884   1.192  0.5410 -0.3384 -0.0120
   94MOL   C14328229   6.525   6.960   1.214 -0.2127  0.0543 -0.4878
   94MOL   H14428230   6.813   6.833   0.757 -1.1500  0.8218 -0.0739
   94MOL   H14528231   6.805   6.669   0.687  2.3889  2.1814 -0.2810
   94MOL   H14628232   6.597   6.744   0.756 -1.4557 -1.8669  0.8514
   94MOL   H14728233   6.682   6.814   1.272  1.2355  1.6821  1.5546
   94MOL   H14828234   6.739   6.954   1.174 -0.1906  0.4804 -0.1306
   94MOL   H14928235   6.501   6.959   1.320  0.6588 -2.0944 -0.2887
   94MOL   H15028236   6.441   6.914   1.162 -0.0312 -1.6298  0.6706
   94MOL   H15128237   6.523   7.063   1.177  0.2486  0.9084  1.7704
   94MOL   C15228238   6.617   6.597   0.905  0.6037  0.5045 -0.4323
   94MOL   C15328239   6.611   6.469   0.810 -0.1460  0.0839 -0.1171
   94MOL   C15428240   6.501   6.487   0.707 -0.3939 -0.0309  0.3225
   94MOL   O15528241   6.523   6.520   0.593 -0.4632  0.4157  0.1615
   94MOL   O15628242   6.383   6.466   0.756 -0.0278  0.0563  0.1560
   94MOL   C15728243   6.276   6.471   0.663  0.6095 -0.3822 -0.0315
   94MOL   C15828244   6.257   6.338   0.582 -0.3173 -0.2861 -0.0959
   94MOL   H15928245   6.676   6.565   0.991 -1.5791  0.1358  0.9679
   94MOL   H16028246   6.518   6.623   0.944  0.6261  1.5595 -1.0608
   94MOL   H16128247   6.713   6.465   0.770 -0.6808 -1.7095 -1.3407
   94MOL   H16228248   6.183   6.485   0.717  0.7222 -0.3831  0.1640
   94MOL   H16328249   6.286   6.565   0.610 -3.9092 -0.4397 -1.1787
   94MOL   H16428250   6.163   6.340   0.528 -1.8967  0.7816  2.6097
   94MOL   H16528251   6.259   6.253   0.650  1.3663  1.0688  1.6280
   94MOL   H16628252   6.330   6.319   0.504 -2.3145 -1.1044 -1.7977
   94MOL   C16728253   6.603   6.347   0.898 -0.0402  0.3556 -0.4555
   94MOL   C16828254   6.699   6.229   0.857 -0.2191 -0.0210 -0.4813
   94MOL   C16928255   6.668   6.160   0.715 -0.2319  0.4303  0.7316
   94MOL   O17028256   6.747   6.173   0.628 -0.1171  0.0889 -0.3493
   94MOL   O17128257   6.548   6.109   0.704 -0.3172 -0.2776 -0.1338
   94MOL   C17228258   6.511   6.050   0.583 -0.6214 -0.1926 -0.0754
   94MOL   C17328259   6.391   5.960   0.628 -0.0247  0.0486  0.1803
   94MOL   H17428260   6.611   6.381   1.001 -2.7675 -0.1370 -0.0419
   94MOL   H17528261   6.500   6.314   0.904  0.1256 -1.0658 -4.1564
   94MOL   H17628262   6.802   6.262   0.848  0.5978 -2.5436 -0.8828
   94MOL   H17728263   6.477   6.116   0.504 -1.1280  0.7530  0.9150
   94MOL   H17828264   6.596   5.995   0.542 -0.6148 -0.0505 -0.2486
   94MOL   H17928265   6.410   5.891   0.710 -0.6991  1.0418  1.1979
   94MOL   H18028266   6.355   5.899   0.545 -1.0556  0.3846  0.3702
   94MOL   H18128267   6.312   6.025   0.665  0.9073  1.1166  0.3195
   94MOL   C18228268   6.693   6.117   0.959  0.2631  0.5852 -0.4333
   94MOL   C18328269   6.752   6.159   1.096  0.1357 -0.4258 -0.3670
   94MOL   C18428270   6.895   6.108   1.107  0.8614  0.0394 -0.6811
   94MOL   O18528271   6.987   6.188   1.106  0.3692  0.3061 -0.0812
   94MOL   O18628272   6.909   5.970   1.121 -0.4157  0.3127 -0.2500
   94MOL   C18728273   7.043   5.915   1.141  0.1525 -0.2674  0.0190
   94MOL   C18828274   7.041   5.763   1.135 -0.7626 -0.2655 -0.1565
   94MOL   H18928275   6.590   6.083   0.974  0.0163  1.2022 -0.6756
   94MOL   H19028276   6.740   6.024   0.930 -2.3527 -1.4289  1.5427
   94MOL   H19128277   6.751   6.268   1.101 -0.0088 -0.3810 -1.3923
   94MOL   H19228278   7.104   5.945   1.056 -0.0767 -0.8100 -0.3338
   94MOL   H19328279   7.096   5.955   1.228  2.0695 -2.8740  0.0709
   94MOL   H19428280   7.146   5.737   1.139 -0.0801  2.1797 -1.7143
   94MOL   H19528281   7.000   5.726   1.041  0.0170 -1.0968 -0.1723
   94MOL   H19628282   6.976   5.719   1.211  0.8379 -0.2475  1.2296
   94MOL   C19728283   6.668   6.128   1.226  0.0293  0.3555 -0.8546
   94MOL   C19828284   6.541   6.213   1.234 -0.7767  0.1592 -0.0590
   94MOL   C19928285   6.555   6.362   1.273 -0.2673 -0.1278  0.2377
   94MOL   O20028286   6.661   6.410   1.314 -0.2590 -0.2419 -0.8539
   94MOL   O20128287   6.441   6.435   1.253  0.3084  0.3059  0.6778
   94MOL   C20228288   6.446   6.573   1.274 -0.7381 -0.6818 -0.5258
   94MOL   C20328289   6.380   6.598   1.412 -0.4226 -0.3083  0.1420
   94MOL   H20428290   6.636   6.024   1.232  0.9962  0.0030 -1.6210
   94MOL   H20528291   6.724   6.143   1.319 -1.3701  0.9633 -0.1023
   94MOL   H20628292   6.500   6.220   1.133 -1.4287 -1.8621  0.0403
   94MOL   H20728293   6.545   6.618   1.271 -0.5965 -1.0524 -2.0724
   94MOL   H20828294   6.386   6.624   1.198 -0.0542 -1.6720 -1.7460
   94MOL   H20928295   6.293   6.532   1.414 -0.0798 -0.8388 -1.4701
   94MOL   H21028296   6.343   6.701   1.416 -0.8921 -0.4207 -0.9957
   94MOL   H21128297   6.444   6.569   1.495 -0.9813  0.4297  0.8394
   94MOL   C21228298   6.422   6.159   1.314 -0.2131 -0.5490 -0.6808
   94MOL   C21328299   6.440   6.158   1.470  0.0574  0.6974 -0.2896
   94MOL   C21428300   6.549   6.061   1.518 -0.0674  0.5737  0.2047
   94MOL   O21528301   6.633   6.091   1.598  0.2143  0.1323  0.6178
   94MOL   O21628302   6.530   5.935   1.465 -0.3805  0.0008  0.7610
   94MOL   C21728303   6.624   5.834   1.495 -0.4987  0.3974 -0.2418
   94MOL   C21828304   6.753   5.850   1.406 -0.0268  0.2299  0.3934
   94MOL   H21928305   6.330   6.213   1.294 -0.5164 -0.2302  1.4967
   94MOL   H22028306   6.399   6.060   1.274 -1.9593 -0.9870  1.3581
   94MOL   H22128307   6.460   6.261   1.500 -0.7428  0.7675  0.0215
   94MOL   H22228308   6.651   5.841   1.600  0.7553  0.4179 -0.5569
   94MOL   H22328309   6.579   5.737   1.473 -0.7130  0.2606  0.7886
   94MOL   H22428310   6.725   5.854   1.300  0.8957  0.1813  0.1393
   94MOL   H22528311   6.808   5.758   1.429 -0.9606 -0.6227 -0.7237
   94MOL   H22628312   6.813   5.933   1.444  0.2041  0.3105 -0.1412
   94MOL   C22728313   6.300   6.126   1.531 -0.1261 -0.2561  0.2197
   94MOL   C22828314   6.293   6.172   1.678 -0.1982 -0.4816  1.1775
   94MOL   C22928315   6.179   6.096   1.740 -0.3710 -0.3442 -0.1427
   94MOL   O23028316   6.173   5.973   1.741  0.2139 -0.6982 -0.0076
   94MOL   O23128317   6.083   6.176   1.792 -0.0629  0.0060 -0.3655
   94MOL   C23228318   5.970   6.118   1.862  0.1444  0.3975 -0.1363
   94MOL   C23328319   5.864   6.226   1.890 -0.4903 -0.8188  0.0566
   94MOL   H23428320   6.218   6.171   1.475  0.0341 -0.1235  0.0932
   94MOL   H23528321   6.279   6.019   1.529  1.8173 -0.6273 -1.1446
   94MOL   H23628322   6.381   6.133   1.728  1.4408  1.3475 -0.2334
   94MOL   H23728323   5.916   6.039   1.810 -2.4488  1.8521  0.2198
   94MOL   H23828324   6.003   6.076   1.957 -0.4597  0.9858  0.3373
   94MOL   H23928325   5.908   6.311   1.941 -1.3358 -0.4923  0.2370
   94MOL   H24028326   5.789   6.184   1.956 -0.3702 -0.0780  0.6630
   94MOL   H24128327   5.819   6.269   1.800  0.0400  0.4882  0.4069
   94MOL   C24228328   6.290   6.330   1.683  0.1496 -0.2648  0.3345
   94MOL   C24328329   6.301   6.389   1.828  0.0962  0.0372  0.1957
   94MOL   C24428330   6.265   6.539   1.820  0.0635  0.2737  0.7111
   94MOL   O24528331   6.158   6.579   1.856  0.0196  0.7336  0.3689
   94MOL   O24628332   6.353   6.620   1.765  0.4535  0.0518  0.3557
   94MOL   C24728333   6.318   6.754   1.729  0.5007  0.1262 -0.2793
   94MOL   C24828334   6.417   6.849   1.662 -0.3040  0.2482  0.5795
   94MOL   H24928335   6.373   6.372   1.627  0.7645 -2.5292 -0.4829
   94MOL   H25028336   6.204   6.359   1.623 -0.0141  2.9301  1.9632
   94MOL   H25128337   6.223   6.360   1.899 -1.2017  1.0337 -0.8063
   94MOL   H25228338   6.222   6.775   1.680  0.0432 -1.8518 -0.2447
   94MOL   H25328339   6.297   6.806   1.822 -4.1376  0.7068 -1.4806
   94MOL   H25428340   6.516   6.855   1.708  0.8306 -0.8124 -1.6188
   94MOL   H25528341   6.380   6.950   1.676 -1.6201 -0.1657  0.1812
   94MOL   H25628342   6.439   6.833   1.556  1.9439  0.5238  0.9787
   94MOL   C25728343   6.432   6.355   1.898 -0.4423 -0.3692 -0.0477
   94MOL   C25828344   6.433   6.316   2.055 -0.2188  0.0322  0.1744
   94MOL   C25928345   6.375   6.168   2.081  0.4666 -0.2910  0.4635
   94MOL   O26028346   6.251   6.154   2.103 -0.2510 -0.1867 -1.4001
   94MOL   O26128347   6.461   6.066   2.060 -0.0702 -0.0443  0.2462
   94MOL   C26228348   6.411   5.932   2.070  0.8604 -0.0767  0.2436
   94MOL   C26328349   6.513   5.821   2.026  0.3771 -1.4176 -0.5788
   94MOL   H26428350   6.485   6.269   1.855 -2.1669 -2.0208  1.0581
   94MOL   H26528351   6.506   6.430   1.872 -0.4528 -0.8253 -1.4665
   94MOL   H26628352   6.536   6.309   2.091 -0.3648 -2.1705  0.1854
   94MOL   H26728353   6.377   5.917   2.172  1.3353  1.6477  0.6565
   94MOL   H26828354   6.314   5.931   2.019  1.5820 -0.2606 -1.1411
   94MOL   H26928355   6.600   5.835   2.090 -0.1393  0.5590 -0.2709
   94MOL   H27028356   6.532   5.830   1.919  1.6101 -1.4374 -0.3710
   94MOL   H27128357   6.469   5.726   2.056  0.7367 -1.9559 -1.7566
   94MOL   C27228358   6.354   6.424   2.137  0.1298  0.6399 -0.1686
   94MOL   C27328359   6.360   6.411   2.289  0.3828  0.2281 -0.1859
   94MOL   C27428360   6.249   6.496   2.352  1.1088 -0.2415  0.5168
   94MOL   O27528361   6.172   6.565   2.283 -0.1987 -0.5136  0.2802
   94MOL   O27628362   6.247   6.478   2.483 -0.1202  0.1841 -0.5039
   94MOL   C27728363   6.148   6.550   2.564  0.9070  0.4771  0.3577
   94MOL   C27828364   6.194   6.526   2.710  0.6878 -0.0114  0.5400
   94MOL   H27928365   6.384   6.527   2.116 -0.4401  0.9624  0.5960
   94MOL   H28028366   6.258   6.436   2.086  0.8333  1.0102 -1.4438
   94MOL   H28128367   6.329   6.307   2.303  2.0165 -0.2565 -0.1102
   94MOL   H28228368   6.134   6.654   2.535  3.3779  0.4344 -1.1603
   94MOL   H28328369   6.053   6.496   2.565  0.7822  0.6821 -0.4965
   94MOL   H28428370   6.140   6.583   2.785 -0.3114 -0.5560  0.2366
   94MOL   H28528371   6.300   6.552   2.716  1.1989 -1.7450 -0.6412
   94MOL   H28628372   6.198   6.420   2.732  1.6519  0.3215  2.0022
   94MOL   C28728373   6.503   6.437   2.351 -0.1484  0.0964  0.0921
   94MOL   C28828374   6.532   6.404   2.497  0.2180 -0.4009 -0.0972
   94MOL   C28928375   6.540   6.252   2.521  0.9673 -0.0247 -0.0298
   94MOL   O29028376   6.437   6.183   2.532  0.9740  1.0329 -0.3524
   94MOL   O29128377   6.663   6.204   2.512 -0.1108  0.4004  0.2618
   94MOL   C29228378   6.687   6.067   2.515  0.2954 -0.2252  0.1774
   94MOL   C29328379   6.711   5.999   2.651 -0.3518 -0.4019 -0.5725
   94MOL   H29428380   6.573   6.379   2.291 -0.1257 -0.0926  0.3033
   94MOL   H29528381   6.542   6.534   2.323 -0.9708 -0.0028 -1.4842
   94MOL   H29628382   6.634   6.437   2.515  0.9340  0.0396 -4.4113
   94MOL   H29728383   6.616   6.007   2.458 -0.6396  0.7575  0.2894
   94MOL   H29828384   6.778   6.063   2.455  0.3516 -0.9939  0.3106
   94MOL   H29928385   6.727   5.892   2.637  0.8941  0.0452 -2.8275
   94MOL   H30028386   6.624   6.007   2.716 -0.1045  1.0840 -0.4058
   94MOL   H30128387   6.804   6.032   2.697  0.4898 -1.4436 -1.4880
   94MOL   H30228388   6.459   6.448   2.565 -2.3313 -1.4558 -2.0744
   95MOL     C128389   2.996   1.981   3.611  0.4487 -0.3753  0.6092
   95MOL     C228390   3.082   1.903   3.720  1.4187 -0.4711 -0.1289
   95MOL     C328391   3.228   1.880   3.681 -0.2918  0.4431  0.3801
   95MOL     O428392   3.274   1.915   3.567 -0.0490 -0.4580  0.1027
   95MOL     O528393   3.309   1.847   3.786 -0.1937  0.4365  0.2100
   95MOL     C628394   3.444   1.881   3.778 -0.0971  0.0291  0.3800
   95MOL     C728395   3.514   1.789   3.872 -0.4278 -0.0566  0.5242
   95MOL     H828396   3.054   2.069   3.582  2.0216 -2.3573 -2.5256
   95MOL     H928397   2.898   2.011   3.647  0.5895 -0.6730  1.2505
   95MOL    H1028398   3.078   1.961   3.813 -2.6970  0.4119 -0.7303
   95MOL    H1128399   3.489   1.880   3.678 -0.1542 -0.5903  0.3622
   95MOL    H1228400   3.466   1.983   3.809 -1.2585 -0.3460  2.4924
   95MOL    H1328401   3.504   1.830   3.972 -0.2081 -0.3194  0.6571
   95MOL    H1428402   3.620   1.783   3.847 -0.2816  0.8537  0.9248
   95MOL    H1528403   3.464   1.693   3.860 -0.8413  0.4535 -2.0087
   95MOL    H1628404   2.982   1.911   3.528  0.7275 -1.4744  1.4816
   95MOL    C1728405   2.997   1.770   3.738  0.0442  0.0086 -0.1769
   95MOL    C1828406   3.056   1.681   3.856  0.0672 -0.5799  0.4215
   95MOL    C1928407   3.011   1.533   3.829 -0.0458 -0.3210  0.0341
   95MOL    O2028408   3.083   1.455   3.765  0.2475 -0.2510  0.1072
   95MOL    O2128409   2.881   1.496   3.863  0.1888  0.1582 -0.2910
   95MOL    C2228410   2.852   1.358   3.833  0.4409 -0.5894 -0.0176
   95MOL    C2328411   2.721   1.300   3.889  0.1868  0.2003 -0.4467
   95MOL    H2428412   2.895   1.783   3.774  0.4769  1.8853  0.4518
   95MOL    H2528413   3.002   1.700   3.654  0.1614 -0.9158  0.5999
   95MOL    H2628414   3.164   1.672   3.850  0.1415 -1.9864  3.1372
   95MOL    H2728415   2.848   1.352   3.724  0.6096 -1.4833  0.0154
   95MOL    H2828416   2.935   1.292   3.860  0.2329 -0.6956  0.3546
   95MOL    H2928417   2.705   1.196   3.863 -0.1138 -0.2948  1.6285
   95MOL    H3028418   2.647   1.364   3.841  0.2747  1.8981  1.5625
   95MOL    H3128419   2.713   1.317   3.997  1.1166  0.5244 -0.4266
   95MOL    C3228420   3.016   1.726   4.003  0.4824  0.0496  0.6264
   95MOL    C3328421   3.145   1.757   4.089  0.0590  0.4485  0.4669
   95MOL    C3428422   3.232   1.629   4.098 -1.1329 -0.5918 -0.4095
   95MOL    O3528423   3.348   1.626   4.055 -0.2885 -0.1918  0.1018
   95MOL    O3628424   3.167   1.524   4.154  0.2339 -0.0653  0.0216
   95MOL    C3728425   3.238   1.405   4.154  0.5508  0.8897 -0.4939
   95MOL    C3828426   3.134   1.296   4.136 -0.1062  0.2803 -0.4753
   95MOL    H3928427   2.946   1.809   3.998  1.2002  0.5435 -1.4838
   95MOL    H4028428   2.965   1.645   4.056 -0.9291 -0.5401 -1.5415
   95MOL    H4128429   3.204   1.825   4.028  1.0012 -1.7263 -1.0983
   95MOL    H4228430   3.311   1.378   4.078  0.6874 -2.5988  0.7743
   95MOL    H4328431   3.284   1.403   4.253  1.1365 -0.8671 -0.7713
   95MOL    H4428432   3.113   1.280   4.031 -2.0095 -1.5768  0.1290
   95MOL    H4528433   3.044   1.299   4.197  0.0182 -1.2451 -0.1856
   95MOL    H4628434   3.182   1.200   4.160  0.7325  0.6360 -0.7307
   95MOL    C4728435   3.115   1.811   4.224 -0.2284 -0.6680 -0.3587
   95MOL    C4828436   3.211   1.926   4.265  0.1106  0.2806  0.7337
   95MOL    C4928437   3.161   2.061   4.208 -0.3631 -0.2386 -0.2102
   95MOL    O5028438   3.118   2.147   4.285 -0.2583  0.4135 -0.5795
   95MOL    O5128439   3.180   2.079   4.074  0.2849  0.1664  0.0613
   95MOL    C5228440   3.127   2.186   4.002  0.4440 -0.1088  0.8940
   95MOL    C5328441   3.226   2.242   3.896  0.6644  0.2432 -0.2751
   95MOL    H5428442   3.009   1.838   4.217 -0.3446 -1.4280 -1.6445
   95MOL    H5528443   3.111   1.730   4.297  2.4504 -0.5354 -0.0466
   95MOL    H5628444   3.190   1.934   4.371 -0.3242  2.1609  0.5204
   95MOL    H5728445   3.034   2.154   3.956  1.5959 -0.1247 -1.5372
   95MOL    H5828446   3.103   2.268   4.070  2.0598  2.0335 -1.0214
   95MOL    H5928447   3.314   2.288   3.942  1.1273 -1.0699  0.1669
   95MOL    H6028448   3.168   2.321   3.849 -1.5365 -1.7329 -0.9459
   95MOL    H6128449   3.256   2.172   3.818 -1.0422 -0.5181 -0.2568
   95MOL    C6228450   3.367   1.902   4.255  0.1057  0.6372 -0.1212
   95MOL    C6328451   3.457   2.007   4.325 -0.4011  0.0516 -0.8382
   95MOL    C6428452   3.587   2.022   4.240  0.4584 -0.8281 -0.0398
   95MOL    O6528453   3.699   2.008   4.293  0.2668  0.6604  0.5005
   95MOL    O6628454   3.567   2.080   4.122  0.2244 -0.0597  0.0388
   95MOL    C6728455   3.668   2.140   4.047 -0.3756  0.5960 -0.3934
   95MOL    C6828456   3.597   2.255   3.979  0.3790  0.1212  0.3893
   95MOL    H6928457   3.400   1.806   4.294  0.7763  0.5263 -0.9573
   95MOL    H7028458   3.388   1.888   4.149  0.7814 -0.2881  0.1309
   95MOL    H7128459   3.411   2.105   4.326  1.5119  0.9635  1.3546
   95MOL    H7228460   3.750   2.166   4.113 -0.9250  1.5852 -0.1002
   95MOL    H7328461   3.703   2.062   3.979 -1.4749  0.1826 -0.5045
   95MOL    H7428462   3.532   2.204   3.908 -0.3491  0.4376  0.8272
   95MOL    H7528463   3.659   2.332   3.934  4.3679 -1.7586  2.3492
   95MOL    H7628464   3.538   2.308   4.054  0.4404 -0.3285  0.7642
   95MOL    C7728465   3.486   1.978   4.475 -0.0635  0.1412  0.1814
   95MOL    C7828466   3.367   2.001   4.572  0.0076 -0.7509 -0.7790
   95MOL    C7928467   3.362   2.150   4.613 -0.2160  0.2462 -0.2243
   95MOL    O8028468   3.444   2.209   4.681  0.4744  0.0730 -0.1633
   95MOL    O8128469   3.242   2.203   4.568 -0.4597 -0.1661 -0.1847
   95MOL    C8228470   3.204   2.329   4.605 -0.2181 -0.3113  0.0139
   95MOL    C8328471   3.057   2.347   4.563 -0.1349  0.0818 -0.8243
   95MOL    H8428472   3.511   1.872   4.480 -1.6085 -0.2752 -0.5044
   95MOL    H8528473   3.576   2.037   4.489  1.6931 -2.2773 -0.5930
   95MOL    H8628474   3.273   1.980   4.522 -1.7430  1.3275  1.4932
   95MOL    H8728475   3.221   2.359   4.708 -2.7385  1.5478 -0.0370
   95MOL    H8828476   3.266   2.397   4.547  0.9298  2.6710  4.5019
   95MOL    H8928477   3.029   2.450   4.581 -2.6024 -0.1843 -2.9684
   95MOL    H9028478   2.984   2.280   4.608 -0.0661  0.6392  0.1190
   95MOL    H9128479   3.050   2.342   4.454  1.4242  0.0012 -0.9379
   95MOL    C9228480   3.372   1.911   4.697  0.1783 -0.0966 -0.1871
   95MOL    C9328481   3.240   1.845   4.741 -0.5670 -0.9289 -0.0540
   95MOL    C9428482   3.200   1.733   4.642  0.0450  0.6605  0.2420
   95MOL    O9528483   3.090   1.738   4.580 -0.0133  0.1008  0.4637
   95MOL    O9628484   3.286   1.636   4.638  0.0663  0.2435 -0.5560
   95MOL    C9728485   3.270   1.527   4.551  0.0861 -0.4133  1.0165
   95MOL    C9828486   3.382   1.419   4.565 -0.4776  0.1256  0.6118
   95MOL    H9928487   3.451   1.836   4.689  0.6837  0.3559  0.5260
   95MOL   H10028488   3.413   1.970   4.779 -0.0151 -0.2738  0.0372
   95MOL   H10128489   3.260   1.781   4.827  2.8215 -0.5656 -0.5241
   95MOL   H10228490   3.169   1.489   4.562 -1.0959  2.1007 -0.5262
   95MOL   H10328491   3.281   1.569   4.451  1.3201  2.5098  2.3290
   95MOL   H10428492   3.376   1.378   4.666 -0.6099  0.9634  0.9470
   95MOL   H10528493   3.484   1.449   4.543 -1.0961 -0.3420 -3.2853
   95MOL   H10628494   3.352   1.343   4.493  1.6235 -0.4625  0.3426
   95MOL   C10728495   3.132   1.951   4.770 -0.2995 -0.2760 -0.8400
   95MOL   C10828496   2.999   1.897   4.822  0.5936 -0.8983 -0.5245
   95MOL   C10928497   2.883   2.003   4.814 -0.4684  0.2024  0.2858
   95MOL   O11028498   2.902   2.125   4.817 -0.4957 -0.0405  0.3301
   95MOL   O11128499   2.765   1.942   4.796 -0.1807  0.1918 -0.2015
   95MOL   C11228500   2.652   2.016   4.761  0.0325 -0.2506 -0.5400
   95MOL   C11328501   2.578   2.044   4.896  0.0639  0.6008  0.3977
   95MOL   H11428502   3.176   2.021   4.841 -1.6416  0.3894 -0.6459
   95MOL   H11528503   3.109   2.004   4.678  1.9547  0.2838 -1.0955
   95MOL   H11628504   2.958   1.836   4.741  0.7441 -0.6265 -0.8058
   95MOL   H11728505   2.677   2.114   4.721 -0.7993  0.2438  0.1349
   95MOL   H11828506   2.581   1.958   4.701  0.2950 -1.7316  0.5699
   95MOL   H11928507   2.493   2.108   4.875 -2.7461 -3.1164 -0.0376
   95MOL   H12028508   2.634   2.103   4.968  0.0252  0.4284  0.5716
   95MOL   H12128509   2.523   1.961   4.940  1.1826 -0.8343 -0.8338
   95MOL   C12228510   3.000   1.809   4.948 -0.2541 -0.5741  0.9716
   95MOL   C12328511   3.061   1.876   5.079  0.6940 -0.0779 -0.2431
   95MOL   C12428512   3.208   1.832   5.097  0.0386  0.3496  0.6216
   95MOL   O12528513   3.251   1.717   5.114 -0.5175 -0.3549  0.1959
   95MOL   O12628514   3.291   1.941   5.067  0.2446 -0.0483 -0.0612
   95MOL   C12728515   3.426   1.925   5.064 -0.7628  0.0300  0.1445
   95MOL   C12828516   3.514   2.051   5.074 -0.0183  0.1336  0.3974
   95MOL   H12928517   2.897   1.779   4.970 -0.1743 -2.0069 -0.6000
   95MOL   H13028518   3.056   1.721   4.920 -1.2528 -1.0262  0.3587
   95MOL   H13128519   3.065   1.985   5.080 -0.9389 -0.0030 -1.4667
   95MOL   H13228520   3.459   1.857   5.142 -0.3588  0.6139  0.4825
   95MOL   H13328521   3.454   1.876   4.971  0.5766 -2.9520  2.0526
   95MOL   H13428522   3.536   2.104   4.981 -0.4339  0.3354  0.4113
   95MOL   H13528523   3.607   2.040   5.129  0.6500  1.9441 -0.3429
   95MOL   H13628524   3.466   2.128   5.134 -1.5958  0.6191 -1.4398
   95MOL   C13728525   2.974   1.836   5.211 -0.1299 -0.7261 -0.5023
   95MOL   C13828526   2.835   1.905   5.232 -0.2619 -0.3038  0.1238
   95MOL   C13928527   2.844   2.059   5.226  0.0650 -0.1213  0.0511
   95MOL   O14028528   2.952   2.116   5.262  0.0124 -0.0073 -0.6953
   95MOL   O14128529   2.729   2.130   5.201  0.2917  0.1423 -0.5065
   95MOL   C14228530   2.733   2.265   5.224  0.0093 -0.7109  0.3646
   95MOL   C14328531   2.602   2.332   5.181 -0.6868  0.1362  0.4370
   95MOL   H14428532   2.969   1.728   5.199  0.7347 -0.8219 -0.0464
   95MOL   H14528533   3.032   1.851   5.302 -0.4792  4.4497 -0.9839
   95MOL   H14628534   2.767   1.887   5.149  0.2818  0.1400 -0.4260
   95MOL   H14728535   2.735   2.276   5.333 -1.3497  2.6543  0.1119
   95MOL   H14828536   2.813   2.317   5.171 -0.1725  2.3718  2.9860
   95MOL   H14928537   2.530   2.309   5.260 -1.0030 -0.1994  0.0619
   95MOL   H15028538   2.556   2.299   5.087  0.8532  0.6650 -0.5108
   95MOL   H15128539   2.614   2.440   5.178 -1.7225  0.3055  1.8956
   95MOL   C15228540   2.756   1.856   5.352 -0.0965  0.2567 -0.7729
   95MOL   C15328541   2.804   1.885   5.497 -0.3265 -0.1011  0.0478
   95MOL   C15428542   2.888   1.767   5.538  0.4391 -0.2668 -0.4317
   95MOL   O15528543   3.011   1.774   5.547 -0.3585 -0.6875  0.1377
   95MOL   O15628544   2.819   1.651   5.557 -0.3297 -0.6999 -0.4069
   95MOL   C15728545   2.880   1.523   5.568  0.1739  0.2877 -0.1916
   95MOL   C15828546   2.896   1.467   5.429 -0.2993  0.0795  0.4531
   95MOL   H15928547   2.653   1.891   5.348 -0.7554 -1.4805  0.3088
   95MOL   H16028548   2.740   1.748   5.339  0.0793 -0.1264  1.8128
   95MOL   H16128549   2.869   1.972   5.505  0.0596 -0.2389 -1.4364
   95MOL   H16228550   2.974   1.534   5.623 -0.2304 -0.3548  0.6395
   95MOL   H16328551   2.819   1.458   5.630 -1.3172  0.0176 -1.9212
   95MOL   H16428552   2.964   1.382   5.423  1.5001  1.6087 -1.6771
   95MOL   H16528553   2.936   1.528   5.348 -2.1648  0.8897  0.1184
   95MOL   H16628554   2.801   1.426   5.396 -0.8549  3.4649 -2.5170
   95MOL   C16728555   2.692   1.919   5.597 -0.1465 -0.1751  0.0068
   95MOL   C16828556   2.622   2.049   5.572  0.5091  0.4429 -0.4191
   95MOL   C16928557   2.706   2.172   5.604  0.0894  0.0822  0.1957
   95MOL   O17028558   2.816   2.164   5.661 -0.1313  0.7896 -0.0168
   95MOL   O17128559   2.642   2.280   5.571  0.2938 -0.2657 -0.1346
   95MOL   C17228560   2.702   2.399   5.611 -0.5717  0.6111 -0.2330
   95MOL   C17328561   2.682   2.502   5.494 -0.0067 -0.1103 -0.9614
   95MOL   H17428562   2.613   1.844   5.594 -1.5625  1.2631  0.7766
   95MOL   H17528563   2.736   1.909   5.696  0.9491 -1.6670 -0.6177
   95MOL   H17628564   2.618   2.056   5.463  1.8344 -0.0616 -0.5151
   95MOL   H17728565   2.657   2.445   5.699  0.6284  0.5455  0.4309
   95MOL   H17828566   2.807   2.381   5.632 -1.2815 -0.1472  2.9978
   95MOL   H17928567   2.582   2.490   5.452 -0.9738 -0.2516  1.3475
   95MOL   H18028568   2.758   2.492   5.416  1.9214 -0.8413  0.9808
   95MOL   H18128569   2.681   2.597   5.547  0.3079  0.3164 -1.6961
   95MOL   C18228570   2.478   2.054   5.633  0.5761  0.4485 -0.0533
   95MOL   C18328571   2.369   1.982   5.553  0.1572  0.0623  0.3558
   95MOL   C18428572   2.357   2.041   5.421 -0.0294 -0.4431 -0.6347
   95MOL   O18528573   2.313   2.152   5.401 -0.2506 -0.0304 -0.1354
   95MOL   O18628574   2.409   1.961   5.332 -0.2904  0.2907 -0.4194
   95MOL   C18728575   2.414   2.009   5.198 -0.1879 -0.2098 -0.0136
   95MOL   C18828576   2.288   1.968   5.119 -0.3414 -0.5109 -0.2027
   95MOL   H18928577   2.480   1.997   5.726  1.6557 -0.2582 -0.5029
   95MOL   H19028578   2.443   2.152   5.664 -2.1011  0.1491 -1.8886
   95MOL   H19128579   2.396   1.878   5.535 -1.0271 -0.0441 -0.8806
   95MOL   H19228580   2.453   2.108   5.173 -2.0286  0.6785  0.5554
   95MOL   H19328581   2.502   1.954   5.164  1.1963  0.9972  1.4987
   95MOL   H19428582   2.289   1.861   5.096  0.8152 -0.6493  0.4288
   95MOL   H19528583   2.289   2.031   5.030  1.4912  0.6750  0.6130
   95MOL   H19628584   2.200   1.999   5.175 -1.0438 -0.5379 -1.2793
   95MOL   C19728585   2.236   1.966   5.623 -0.4961  0.6505  0.0634
   95MOL   C19828586   2.131   1.868   5.547  0.0141 -0.0100  0.2129
   95MOL   C19928587   2.004   1.959   5.504 -0.2460  0.3928 -0.4176
   95MOL   O20028588   1.905   1.958   5.571 -0.1543  0.4426 -0.2861
   95MOL   O20128589   2.033   2.034   5.405  0.3944  0.3680  0.1453
   95MOL   C20228590   1.936   2.130   5.368 -0.0870  0.3746 -0.2039
   95MOL   C20328591   1.973   2.189   5.232 -0.1572 -0.3035 -0.0669
   95MOL   H20428592   2.251   1.927   5.724  1.5432  2.0545  0.3091
   95MOL   H20528593   2.196   2.067   5.626  0.6594  1.1176 -0.2181
   95MOL   H20628594   2.175   1.809   5.466 -4.3332  0.0096 -2.2926
   95MOL   H20728595   1.841   2.077   5.367  0.0134  0.1959 -1.3034
   95MOL   H20828596   1.936   2.204   5.448 -0.2331  0.4802 -0.3014
   95MOL   H20928597   1.910   2.274   5.205 -1.6578 -0.2474  3.2932
   95MOL   H21028598   1.968   2.117   5.151 -0.4028  0.3535 -0.6370
   95MOL   H21128599   2.072   2.235   5.237 -0.7935  0.9663  1.4795
   95MOL   C21228600   2.075   1.759   5.647 -0.0691  0.8112 -0.3079
   95MOL   C21328601   2.180   1.660   5.710 -0.4613 -0.6332  0.5290
   95MOL   C21428602   2.249   1.579   5.598  0.0522  0.3217  0.4474
   95MOL   O21528603   2.187   1.503   5.532  0.1558  0.8567 -0.4116
   95MOL   O21628604   2.377   1.617   5.572 -0.3229 -0.4356  0.0034
   95MOL   C21728605   2.463   1.541   5.489  0.5335 -0.4443 -0.1336
   95MOL   C21828606   2.460   1.607   5.353  0.2215 -0.1442 -0.4128
   95MOL   H21928607   2.043   1.803   5.742 -2.0768 -1.6281  0.1983
   95MOL   H22028608   1.994   1.700   5.605  1.9318 -2.1608 -0.1458
   95MOL   H22128609   2.260   1.723   5.751 -2.3388  2.0389  0.2206
   95MOL   H22228610   2.567   1.547   5.523  1.1487  3.4395 -2.3623
   95MOL   H22328611   2.445   1.435   5.503  0.2364 -0.1792  1.6056
   95MOL   H22428612   2.366   1.602   5.298  0.5999 -0.0634 -1.0811
   95MOL   H22528613   2.547   1.574   5.296 -0.1668 -2.1982  0.1729
   95MOL   H22628614   2.483   1.713   5.363  2.0446 -0.4970 -0.6002
   95MOL   C22728615   2.116   1.568   5.821  0.6825  0.5731  0.1777
   95MOL   C22828616   2.084   1.646   5.950 -0.0702  0.1631 -0.4682
   95MOL   C22928617   2.214   1.674   6.034 -0.4428  0.5292  0.9489
   95MOL   O23028618   2.295   1.586   6.053  0.6951 -0.2351 -0.4302
   95MOL   O23128619   2.223   1.796   6.076  0.2448 -0.0549 -0.0080
   95MOL   C23228620   2.348   1.847   6.130  0.7507 -0.0240 -0.1881
   95MOL   C23328621   2.341   2.000   6.110  0.2213 -0.4325  0.2288
   95MOL   H23428622   2.018   1.537   5.785  1.8282 -0.4663 -2.2034
   95MOL   H23528623   2.170   1.478   5.851  0.8223  1.0282  1.2964
   95MOL   H23628624   2.043   1.744   5.924  0.8091  0.6435 -0.0848
   95MOL   H23728625   2.337   1.825   6.236  0.0947  0.4032 -0.1626
   95MOL   H23828626   2.442   1.813   6.087 -0.6728 -1.4055 -2.4012
   95MOL   H23928627   2.257   2.044   6.163 -0.3312 -1.5816  0.3129
   95MOL   H24028628   2.330   2.026   6.005 -1.3845 -3.1616 -0.3094
   95MOL   H24128629   2.426   2.048   6.158  0.1960 -0.3737  0.2141
   95MOL   C24228630   1.977   1.573   6.029 -0.1837 -0.1124 -0.3213
   95MOL   C24328631   1.918   1.644   6.158  0.3644  0.0260 -0.5412
   95MOL   C24428632   1.817   1.551   6.231  0.7363 -0.1323 -0.6023
   95MOL   O24528633   1.852   1.511   6.343 -0.3338  0.4113  0.6656
   95MOL   O24628634   1.698   1.526   6.172  0.0447  0.2434  0.2251
   95MOL   C24728635   1.614   1.419   6.213 -0.2360 -0.1612  0.1694
   95MOL   C24828636   1.572   1.337   6.085  0.0185  0.0236 -0.3894
   95MOL   H24928637   1.893   1.545   5.964 -0.8794  2.7686 -0.7477
   95MOL   H25028638   2.011   1.476   6.065 -0.8394 -0.2652 -0.0964
   95MOL   H25128639   2.000   1.662   6.227  0.0820  2.5770 -0.7965
   95MOL   H25228640   1.646   1.354   6.294 -1.7633 -0.2859  0.7053
   95MOL   H25328641   1.518   1.452   6.254 -0.3673 -2.5151  1.8663
   95MOL   H25428642   1.533   1.402   6.007  0.0773  0.3598 -0.1366
   95MOL   H25528643   1.499   1.258   6.106  0.0937  0.1985  0.5293
   95MOL   H25628644   1.654   1.282   6.039  0.1742  1.3747 -1.7368
   95MOL   C25728645   1.839   1.775   6.129 -0.1076 -0.3569 -0.1828
   95MOL   C25828646   1.818   1.866   6.244  0.1634 -1.2267 -0.1111
   95MOL   C25928647   1.702   1.965   6.227 -0.5961  0.3850 -0.3291
   95MOL   O26028648   1.611   1.971   6.309 -0.5458 -0.3981 -0.0228
   95MOL   O26128649   1.716   2.036   6.116  0.3239 -0.4787  0.0675
   95MOL   C26228650   1.631   2.147   6.092 -0.2040  0.0156  0.0815
   95MOL   C26328651   1.687   2.270   6.163  0.0290  0.4347  0.5195
   95MOL   H26428652   1.895   1.828   6.052  2.1676 -2.0385  0.2292
   95MOL   H26528653   1.747   1.743   6.082 -1.0139 -0.3928  1.5691
   95MOL   H26628654   1.791   1.809   6.333 -1.0395  1.7063  1.4606
   95MOL   H26728655   1.608   2.170   5.988  1.8412  1.9269  0.0026
   95MOL   H26828656   1.537   2.116   6.136  0.0886 -1.4978 -0.3353
   95MOL   H26928657   1.696   2.244   6.268 -1.8031  3.5436  1.4907
   95MOL   H27028658   1.629   2.361   6.145 -1.2076 -0.3704  0.3149
   95MOL   H27128659   1.786   2.279   6.120 -0.0174 -1.7575 -0.1277
   95MOL   C27228660   1.955   1.941   6.291  0.3994  0.5162  0.0921
   95MOL   C27328661   1.991   1.920   6.438  0.0351  0.1697  0.3227
   95MOL   C27428662   1.902   1.994   6.539 -0.2614 -0.2093  0.0977
   95MOL   O27528663   1.871   2.113   6.522  0.2860 -0.3457  0.4801
   95MOL   O27628664   1.860   1.915   6.642  0.1819 -0.1946 -0.4726
   95MOL   C27728665   1.785   1.968   6.749  0.3375  0.2513  0.2888
   95MOL   C27828666   1.640   1.942   6.725 -0.9075 -0.4084  0.9690
   95MOL   H27928667   2.028   1.900   6.220  0.2672  0.6452 -0.1171
   95MOL   H28028668   1.949   2.048   6.273  3.4282  0.5663 -0.9213
   95MOL   H28128669   1.974   1.815   6.463  0.1279 -0.1641 -1.0231
   95MOL   H28228670   1.817   1.912   6.837  0.8528  2.0892  1.3216
   95MOL   H28328671   1.801   2.073   6.777  1.1108  0.0814  0.4977
   95MOL   H28428672   1.622   1.835   6.722  0.0959 -0.5088 -3.3227
   95MOL   H28528673   1.600   1.988   6.634 -0.4305 -0.1282  0.8997
   95MOL   H28628674   1.587   1.985   6.811 -1.8176 -0.6293  0.5296
   95MOL   C28728675   2.139   1.969   6.448 -0.5556  0.3214  0.0772
   95MOL   C28828676   2.208   1.944   6.582  0.5622  0.9235  0.0479
   95MOL   C28928677   2.354   1.988   6.586 -0.0030  0.3527  0.3346
   95MOL   O29028678   2.428   1.956   6.685  0.3013  0.5795  0.2511
   95MOL   O29128679   2.396   2.062   6.479  0.0972  0.6157 -0.0056
   95MOL   C29228680   2.521   2.130   6.491 -0.2050 -0.1706  0.0852
   95MOL   C29328681   2.619   2.062   6.396 -0.1076  0.7169  0.0308
   95MOL   H29428682   2.206   1.930   6.371 -0.0940  0.3454  0.4663
   95MOL   H29528683   2.148   2.072   6.413 -0.3906 -0.0930 -1.1440
   95MOL   H29628684   2.160   2.005   6.659 -0.2713  1.5894 -0.9988
   95MOL   H29728685   2.496   2.233   6.468 -0.6349  0.1709  1.9948
   95MOL   H29828686   2.554   2.126   6.595  1.4607  0.5445 -0.3990
   95MOL   H29928687   2.644   1.958   6.418  0.6442  0.4582 -1.9280
   95MOL   H30028688   2.709   2.122   6.388  0.6504 -0.4415 -0.3319
   95MOL   H30128689   2.576   2.067   6.296  0.4246 -3.5986 -0.5497
   95MOL   H30228690   2.183   1.844   6.618  2.3710  0.2013 -0.6660
   96MOL     C128691   0.634   3.877   7.708 -0.0882 -0.4189  0.2982
   96MOL     C228692   0.491   3.823   7.710  0.3666 -0.5230 -0.1209
   96MOL     C328693   0.477   3.693   7.628 -0.3504 -0.9332  0.2996
   96MOL     O428694   0.432   3.702   7.510 -0.1428  0.5458 -0.4662
   96MOL     O528695   0.515   3.581   7.685  0.3747  0.2369 -0.3035
   96MOL     C628696   0.513   3.461   7.606  0.3331 -0.6782  0.1696
   96MOL     C728697   0.537   3.327   7.676 -0.5240 -0.3938  0.6596
   96MOL     H828698   0.666   3.924   7.616  0.8214 -0.9755  0.3208
   96MOL     H928699   0.689   3.784   7.726 -1.0702 -0.8762  0.9519
   96MOL    H1028700   0.469   3.794   7.813 -1.3616  3.6706  0.7868
   96MOL    H1128701   0.413   3.458   7.563  0.2212 -0.0485  0.3740
   96MOL    H1228702   0.589   3.475   7.529  0.2411  0.2109  0.2262
   96MOL    H1328703   0.559   3.250   7.602  0.5404 -0.8785  1.4618
   96MOL    H1428704   0.456   3.290   7.740  1.9873 -2.4856  2.7408
   96MOL    H1528705   0.629   3.329   7.735  1.6882 -2.8452 -2.5606
   96MOL    H1628706   0.650   3.944   7.793 -1.1524 -1.0585  1.0116
   96MOL    C1728707   0.387   3.928   7.678 -0.8200  0.4304 -0.0089
   96MOL    C1828708   0.365   4.023   7.795  0.5591 -0.5667  0.1488
   96MOL    C1928709   0.305   3.955   0.007 -0.6103  0.1972  0.5104
   96MOL    O2028710   0.372   3.943   0.112  0.0561 -0.1276  0.2288
   96MOL    O2128711   0.181   3.912   7.901 -0.1837  0.3957  0.1282
   96MOL    C2228712   0.118   3.828   0.089  0.1146  0.5426  0.7739
   96MOL    C2328713   0.124   3.679   0.075 -0.3754  0.5212  0.2828
   96MOL    H2428714   0.415   3.986   7.590  1.0269  0.2747  0.4450
   96MOL    H2528715   0.295   3.875   7.655 -1.8140  1.3867  1.7005
   96MOL    H2628716   0.464   4.057   7.827 -0.8760  2.5279  1.4744
   96MOL    H2728717   0.137   3.854   0.193  0.4917  0.8498  0.6318
   96MOL    H2828718   0.013   3.857   0.091 -0.3223 -0.6857 -2.0980
   96MOL    H2928719   0.226   3.640   0.075 -0.7129 -0.3894 -1.0025
   96MOL    H3028720   0.080   3.642   7.891  2.5295  1.4856 -1.5670
   96MOL    H3128721   0.074   3.621   0.153  0.2535 -0.5441 -0.0855
   96MOL    C3228722   0.265   4.133   7.756 -0.2037  0.1184 -0.0519
   96MOL    C3328723   0.326   4.238   7.652  1.0531 -0.0341  0.0121
   96MOL    C3428724   0.459   4.290   7.685  0.0636 -0.4395 -0.0982
   96MOL    O3528725   0.553   4.255   7.613 -0.5881  0.4051  0.1344
   96MOL    O3628726   0.463   4.373   7.795  0.0010 -0.0277  0.1491
   96MOL    C3728727   0.587   4.417   7.848  0.5251 -0.7383  0.2232
   96MOL    C3828728   0.661   4.319   0.027 -0.4062 -0.4597  0.2137
   96MOL    H3928729   0.171   4.093   7.718  0.3417  0.5962 -2.0013
   96MOL    H4028730   0.244   4.195   7.843 -2.0724 -1.9384  1.0076
   96MOL    H4128731   0.332   4.178   7.560  0.3748 -0.5878  0.3262
   96MOL    H4228732   0.636   4.471   7.767 -1.2745 -1.3170 -1.2952
   96MOL    H4328733   0.559   4.503   0.002  0.9212  0.5834 -1.3945
   96MOL    H4428734   0.590   4.291   0.105 -0.0635 -0.7276  0.4308
   96MOL    H4528735   0.744   4.366   0.080  0.5656 -1.3118 -0.5421
   96MOL    H4628736   0.688   4.223   7.891  1.3802 -1.2711  2.8967
   96MOL    C4728737   0.229   4.352   7.633 -0.6945 -0.0069 -0.9026
   96MOL    C4828738   0.088   4.313   7.590 -0.2007  0.0236 -0.5594
   96MOL    C4928739   0.080   4.243   7.457  0.1073 -0.3153  0.3563
   96MOL    O5028740   0.070   4.119   7.446  0.4091  0.5724  0.6662
   96MOL    O5128741   0.086   4.321   7.345 -0.1329  0.5163 -0.0191
   96MOL    C5228742   0.079   4.266   7.213 -0.4137  0.5627 -0.4474
   96MOL    C5328743   0.021   4.363   7.124 -0.3174 -0.1983  0.1060
   96MOL    H5428744   0.227   4.411   7.725  1.5249  1.6623 -1.8809
   96MOL    H5528745   0.271   4.424   7.563  2.4916 -1.0899 -0.1570
   96MOL    H5628746   0.057   4.237   7.663  4.4099 -1.9069 -0.4340
   96MOL    H5728747   0.173   4.240   7.165 -2.0772  0.6108 -3.8365
   96MOL    H5828748   0.014   4.179   7.209 -0.2441  0.1843  3.0699
   96MOL    H5928749   0.078   4.456   7.120  0.7996 -0.7895  1.9876
   96MOL    H6028750   7.830   4.389   7.159 -1.0725 -0.5681 -1.7119
   96MOL    H6128751   0.020   4.315   7.026 -1.3564  1.1934 -0.5770
   96MOL    C6228752   7.893   4.432   7.583 -0.4288  0.0741 -0.2048
   96MOL    C6328753   0.018   4.559   7.511  0.4052  0.3911 -0.2747
   96MOL    C6428754   0.065   4.674   7.596 -0.2936  0.5755  0.2699
   96MOL    O6528755   7.896   4.738   7.665 -0.3034  0.5597  0.0879
   96MOL    O6628756   0.200   4.701   7.585  0.1008  0.8939 -0.0581
   96MOL    C6728757   0.259   4.787   7.672 -1.0056 -0.0313 -0.1506
   96MOL    C6828758   0.400   4.743   7.706 -0.0929  0.0931 -0.0132
   96MOL    H6928759   7.801   4.392   7.538  1.1261 -0.0919 -3.4053
   96MOL    H7028760   7.868   4.464   7.684  0.6088  2.5506 -0.6990
   96MOL    H7128761   0.101   4.542   7.442  0.8785 -2.7504  0.9992
   96MOL    H7228762   0.250   4.887   7.631 -0.4899  0.6680  1.4011
   96MOL    H7328763   0.199   4.789   7.763 -1.8705 -1.4023 -0.6627
   96MOL    H7428764   0.447   4.776   7.798  2.5919 -1.9259 -0.5821
   96MOL    H7528765   0.466   4.769   7.623 -0.3052  1.8901  0.3785
   96MOL    H7628766   0.408   4.634   7.701 -0.8083 -0.0973  2.4272
   96MOL    C7728767   7.794   4.617   7.431  0.2613 -0.6074  0.0975
   96MOL    C7828768   7.823   4.738   7.333 -0.1820 -0.1793 -0.4623
   96MOL    C7928769   7.695   4.819   7.305  0.6127  0.6833  0.1471
   96MOL    O8028770   7.669   4.939   7.330  0.1426 -0.1051  0.1897
   96MOL    O8128771   7.601   4.734   7.253  0.2452 -0.3719  0.1353
   96MOL    C8228772   7.474   4.783   7.205  0.1655  0.0694 -0.3534
   96MOL    C8328773   7.495   4.805   7.055 -0.0285  0.1626  0.1562
   96MOL    H8428774   7.745   4.532   7.384  0.5882 -0.1057 -1.1688
   96MOL    H8528775   7.728   4.653   7.510 -0.9068 -0.1855 -1.0596
   96MOL    H8628776   7.886   4.806   7.391  0.0523 -0.2340 -0.6512
   96MOL    H8728777   7.403   4.700   7.211 -1.7313  1.5478 -1.7097
   96MOL    H8828778   7.438   4.868   7.262  2.1072  2.3972 -2.4605
   96MOL    H8928779   7.420   4.862   7.000  0.7617  0.2002 -0.9055
   96MOL    H9028780   7.505   4.716   6.993 -0.3390  0.8760 -0.9369
   96MOL    H9128781   7.587   4.863   7.048  0.5487 -0.9006 -1.4272
   96MOL    C9228782   7.893   4.711   7.198 -0.0245 -0.4006 -0.5858
   96MOL    C9328783   0.043   4.846   7.136 -0.0162  0.4213  0.3907
   96MOL    C9428784   0.013   4.843   6.990 -0.2057  0.1271 -0.5372
   96MOL    O9528785   0.055   4.763   6.909  0.2008  0.5846  0.0344
   96MOL    O9628786   7.843   4.942   6.964 -0.4277 -0.0928 -0.3686
   96MOL    C9728787   7.784   4.965   6.836 -0.4448 -0.4917  0.1792
   96MOL    C9828788   7.730   5.108   6.817  0.0672  0.2894  0.5282
   96MOL    H9928789   0.065   4.645   7.230  0.2199  0.8805  1.4746
   96MOL   H10028790   7.827   4.657   7.129 -1.6516  1.3170 -0.4078
   96MOL   H10128791   7.898   4.931   7.177  0.2537  1.2904 -1.0113
   96MOL   H10228792   7.863   4.954   6.762 -0.7067 -2.5466  0.1764
   96MOL   H10328793   7.715   4.884   6.810 -1.2379  0.0028  0.7215
   96MOL   H10428794   7.804   5.185   6.839 -0.7105  0.5814  2.2035
   96MOL   H10528795   7.651   5.124   6.890 -0.0186 -1.3736  0.8147
   96MOL   H10628796   7.696   5.115   6.714 -0.6082 -0.9264  0.6646
   96MOL   C10728797   0.187   4.867   7.173 -0.2303  0.5278 -0.0442
   96MOL   C10828798   0.238   5.014   7.156  0.5335  0.5786 -0.7886
   96MOL   C10928799   0.391   5.025   7.169 -0.2385  0.0039 -0.3565
   96MOL   O11028800   0.470   5.078   7.089 -0.1084  1.2066  0.3161
   96MOL   O11128801   0.431   4.956   7.277 -0.2382 -0.6211  0.2069
   96MOL   C11228802   0.573   4.937   7.288 -1.0449 -0.2585 -0.1456
   96MOL   C11328803   0.630   4.801   7.256 -0.1556 -0.4455  0.7206
   96MOL   H11428804   0.191   4.843   7.280 -0.6166  0.4089 -0.0578
   96MOL   H11528805   0.251   4.792   7.127  0.2572  0.6148  0.4745
   96MOL   H11628806   0.224   5.040   7.051 -0.9150  2.1490 -0.2341
   96MOL   H11728807   0.634   5.016   7.244  1.1294 -1.0215  1.4138
   96MOL   H11828808   0.598   4.950   7.393 -0.3178 -3.2558  0.1010
   96MOL   H11928809   0.647   4.795   7.148 -1.8232 -0.9234  0.4655
   96MOL   H12028810   0.558   4.723   7.280  1.0638 -1.0995  2.3012
   96MOL   H12128811   0.727   4.776   7.298 -0.2822 -2.4215 -0.0859
   96MOL   C12228812   0.172   5.115   7.255  0.5836 -0.1372  0.1538
   96MOL   C12328813   0.078   5.206   7.181 -0.6075  0.1330  0.3392
   96MOL   C12428814   0.153   5.313   7.086  0.6278 -0.1697 -0.3875
   96MOL   O12528815   0.257   5.368   7.118 -1.0983 -0.0693 -0.0931
   96MOL   O12628816   0.094   5.324   6.964 -0.4924 -0.5656  0.2354
   96MOL   C12728817   0.144   5.424   6.870  0.0776  0.6154 -0.2154
   96MOL   C12828818   0.026   5.480   6.792  0.3962  0.6049 -0.1640
   96MOL   H12928819   0.114   5.069   7.335 -0.2262 -0.4741 -0.6089
   96MOL   H13028820   0.250   5.176   7.300  1.3296  0.8004 -2.2844
   96MOL   H13128821   0.023   5.143   7.111 -0.4455 -0.2045  0.5112
   96MOL   H13228822   0.191   5.510   6.918  1.2410 -0.1944  0.1429
   96MOL   H13328823   0.223   5.379   6.810  0.3777  0.6796  0.1255
   96MOL   H13428824   7.895   5.393   6.739 -0.0024  0.2453  0.7063
   96MOL   H13528825   0.069   5.557   6.729 -0.3640  2.5355  1.6136
   96MOL   H13628826   7.843   5.519   6.837  0.9013 -0.4060  1.8338
   96MOL   C13728827   7.878   5.264   7.278 -0.0536 -0.9772 -0.5030
   96MOL   C13828828   0.016   5.345   7.405  0.0104  0.0366  0.5185
   96MOL   C13928829   0.052   5.255   7.524 -0.3729  0.5090 -0.6667
   96MOL   O14028830   0.134   5.282   7.615 -0.0622 -0.1630 -0.1867
   96MOL   O14128831   7.874   5.158   7.531 -0.5409  0.5907  0.2833
   96MOL   C14228832   7.874   5.072   7.642 -0.2025 -0.5316  0.0152
   96MOL   C14328833   7.808   5.129   7.766  0.4722  0.1989  0.5810
   96MOL   H14428834   7.813   5.319   7.210 -2.4941 -1.1182  1.6369
   96MOL   H14528835   7.804   5.190   7.308 -1.0108  0.8235  1.8465
   96MOL   H14628836   0.113   5.390   7.382 -0.3302  0.9871  0.8909
   96MOL   H14728837   7.824   4.981   7.608  0.3506 -1.2283  1.0247
   96MOL   H14828838   0.070   5.044   7.655  0.3521  1.1709 -0.7479
   96MOL   H14928839   7.855   5.222   7.797  2.0290 -0.2644 -0.3415
   96MOL   H15028840   7.815   5.066   7.854  2.3018 -1.2258 -0.5487
   96MOL   H15128841   7.701   5.145   7.758  0.7459  1.9636  0.3786
   96MOL   C15228842   7.835   5.473   7.441  0.1112  0.0053 -0.2411
   96MOL   C15328843   7.689   5.444   7.491 -0.3359 -0.2789  0.3261
   96MOL   C15428844   7.599   5.383   7.376 -0.4870  0.0891 -0.3708
   96MOL   O15528845   7.584   5.441   7.270 -0.9093  0.2944 -0.4603
   96MOL   O15628846   7.544   5.270   7.410 -0.6987  0.6811 -0.0015
   96MOL   C15728847   7.452   5.218   7.314  0.4422  0.7188  0.4773
   96MOL   C15828848   7.373   5.099   7.367 -0.0196  0.2371 -0.0626
   96MOL   H15928849   7.890   5.533   7.514 -0.8196  0.6691 -0.0886
   96MOL   H16028850   7.820   5.524   7.346 -0.8541  1.6307  0.7633
   96MOL   H16128851   7.706   5.372   7.571  0.3454 -1.0579 -0.5079
   96MOL   H16228852   7.392   5.302   7.282  0.4185 -0.1277 -1.7853
   96MOL   H16328853   7.498   5.193   7.218  1.1735 -1.3122  1.3163
   96MOL   H16428854   7.430   5.031   7.431  0.0437 -0.8886 -1.2916
   96MOL   H16528855   7.324   5.038   7.290  0.7046  1.1003 -1.2367
   96MOL   H16628856   7.302   5.146   7.434  2.6207  1.5118  1.9245
   96MOL   C16728857   7.624   5.571   7.554  0.2142  0.2749  0.4051
   96MOL   C16828858   7.499   5.559   7.651 -0.6420 -0.7227 -0.7052
   96MOL   C16928859   7.373   5.522   7.574  0.1595 -0.6433  0.8946
   96MOL   O17028860   7.323   5.412   7.592 -0.1012  0.0199  0.4647
   96MOL   O17128861   7.326   5.622   7.511 -0.4073  0.1078 -0.1630
   96MOL   C17228862   7.212   5.607   7.427  0.2903 -0.1121 -0.4633
   96MOL   C17328863   7.080   5.640   7.490 -0.5201 -0.5881 -0.2773
   96MOL   H17428864   7.700   5.619   7.617  0.8342  1.9592 -1.5710
   96MOL   H17528865   7.611   5.646   7.476  1.9467  2.1460  1.8408
   96MOL   H17628866   7.513   5.473   7.717  0.7523  0.7806  1.0043
   96MOL   H17728867   7.225   5.686   7.353 -2.4256  0.9691  0.1611
   96MOL   H17828868   7.207   5.511   7.376  1.7730  0.1738 -1.1812
   96MOL   H17928869   7.098   5.720   7.562 -0.8607  0.5413 -1.4271
   96MOL   H18028870   7.048   5.547   7.536 -1.5663  0.0030  0.2281
   96MOL   H18128871   7.013   5.684   7.416  1.9114 -0.3007 -2.3949
   96MOL   C18228872   7.477   5.683   7.746  0.0419 -0.4605  0.4402
   96MOL   C18328873   7.536   5.675   7.888  0.0483  0.1894 -0.0281
   96MOL   C18428874   7.497   5.555   0.059  0.0293 -0.7039 -0.3120
   96MOL   O18528875   7.578   5.471   0.093 -0.4527  0.0194  0.1499
   96MOL   O18628876   7.370   5.565   0.100 -1.1373 -0.0138 -0.4429
   96MOL   C18728877   7.314   5.473   0.189  0.6362 -0.1136  1.0004
   96MOL   C18828878   7.196   5.555   0.250  0.2544  0.0522  0.7549
   96MOL   H18928879   7.501   5.774   7.690 -0.4856 -0.8952 -0.4895
   96MOL   H19028880   7.369   5.693   7.757  0.0026 -0.5360  0.0983
   96MOL   H19128881   7.643   5.656   7.875  0.6270  2.3669  1.4263
   96MOL   H19228882   7.269   5.386   0.140 -1.2571 -0.4540  3.2591
   96MOL   H19328883   7.373   5.434   0.271  0.2751 -0.8718  0.9114
   96MOL   H19428884   7.234   5.635   0.313 -1.1606  0.6692  0.8502
   96MOL   H19528885   7.142   5.492   0.321  1.2701  0.2204  1.6859
   96MOL   H19628886   7.135   5.602   0.173 -1.7156 -1.2056  1.4933
   96MOL   C19728887   7.528   5.802   0.066  0.5865 -0.1461  0.1694
   96MOL   C19828888   7.589   5.802   0.212  0.1954 -1.1498  0.4707
   96MOL   C19928889   7.494   5.799   0.325 -0.1883 -0.2313  0.4440
   96MOL   O20028890   7.477   5.695   0.393  0.5811 -0.2865 -0.4580
   96MOL   O20128891   7.421   5.913   0.342  0.6842 -0.2331 -0.5932
   96MOL   C20228892   7.324   5.919   0.442 -0.1416 -0.2401 -0.1140
   96MOL   C20328893   7.232   6.031   0.396 -0.2392  0.5724  0.2746
   96MOL   H20428894   7.561   5.886   0.005 -1.6320  1.3477  0.9589
   96MOL   H20528895   7.421   5.824   0.069 -0.1057 -3.2837 -0.2317
   96MOL   H20628896   7.649   5.711   0.215  1.0814 -0.7247 -2.6293
   96MOL   H20728897   7.262   5.831   0.460 -0.3397 -0.4551 -1.7236
   96MOL   H20828898   7.361   5.936   0.543 -1.0499  1.9256 -0.1243
   96MOL   H20928899   7.172   6.064   0.481  0.3954  0.9577  0.5762
   96MOL   H21028900   7.166   6.002   0.314 -1.4397 -0.8918  1.7156
   96MOL   H21128901   7.281   6.123   0.366 -0.6266  0.3967 -0.9076
   96MOL   C21228902   7.686   5.925   0.222  0.0356  0.2224  0.1099
   96MOL   C21328903   7.815   5.914   0.143  0.1824 -0.3639 -0.0532
   96MOL   C21428904   0.006   5.799   0.184  0.4134 -0.8916  0.6021
   96MOL   O21528905   0.044   5.727   0.097 -0.5082  0.3367  0.0051
   96MOL   O21628906   0.040   5.798   0.318 -0.1191 -0.2744  0.2715
   96MOL   C21728907   0.138   5.705   0.366  0.1432  0.2454 -0.1817
   96MOL   C21828908   0.275   5.759   0.347 -0.2972 -0.7876  0.4299
   96MOL   H21928909   7.628   6.014   0.200 -1.0089 -0.6007 -0.5248
   96MOL   H22028910   7.706   5.943   0.328 -0.4895  0.8954  0.0958
   96MOL   H22128911   7.782   5.883   0.043  0.5095 -0.9834  0.0336
   96MOL   H22228912   0.109   5.684   0.469  0.3093  1.3503  0.0992
   96MOL   H22328913   0.134   5.612   0.310  0.0945 -1.4451  2.5550
   96MOL   H22428914   0.281   5.863   0.379 -0.9893 -0.4823 -0.3965
   96MOL   H22528915   0.299   5.766   0.241  0.7556 -0.3450  0.7001
   96MOL   H22628916   0.359   5.712   0.398  0.6350  1.1274  0.6845
   96MOL   C22728917   7.880   6.045   0.122  0.4380 -0.0589 -0.1018
   96MOL   C22828918   0.043   6.119   0.240  0.3180  0.4264 -0.2784
   96MOL   C22928919   7.857   6.182   0.338 -0.7652  0.2360 -0.4621
   96MOL   O23028920   7.850   6.143   0.455  0.1989  0.0881 -0.0589
   96MOL   O23128921   7.774   6.267   0.286 -0.5409  0.5304  0.0689
   96MOL   C23228922   7.665   6.318   0.362 -0.3633  0.0664  0.1108
   96MOL   C23328923   7.529   6.291   0.299 -0.0268  0.3074 -0.4992
   96MOL   H23428924   0.041   6.020   0.042 -1.4202  1.1346 -2.1428
   96MOL   H23528925   7.818   6.120   0.073  1.4303  0.8179 -0.0365
   96MOL   H23628926   0.099   6.038   0.287  2.1838  0.9681 -1.5026
   96MOL   H23728927   7.658   6.281   0.464 -1.1820 -2.3199 -0.7906
   96MOL   H23828928   7.663   6.427   0.375 -1.2228  0.4965 -3.1488
   96MOL   H23928929   7.520   6.323   0.195 -0.3524  0.0172 -0.5587
   96MOL   H24028930   7.459   6.353   0.355  1.3867  0.1682  1.4643
   96MOL   H24128931   7.505   6.185   0.299  1.6893 -0.1024 -0.4138
   96MOL   C24228932   0.133   6.229   0.195 -0.6393  0.4953 -0.5577
   96MOL   C24328933   0.256   6.186   0.109  0.2135  0.3212 -0.4504
   96MOL   C24428934   0.372   6.135   0.197 -0.1901 -0.1796 -0.2157
   96MOL   O24528935   0.424   6.028   0.175  0.0816 -0.0313  0.0883
   96MOL   O24628936   0.406   6.219   0.301 -0.0192 -0.1764 -0.1791
   96MOL   C24728937   0.495   6.185   0.407  0.4565 -0.1920 -0.4951
   96MOL   C24828938   0.431   6.177   0.547  0.1754  0.6121 -0.1730
   96MOL   H24928939   0.068   6.297   0.140 -0.8677  0.2783 -0.5530
   96MOL   H25028940   0.163   6.289   0.281 -3.6756 -1.1808  1.7523
   96MOL   H25128941   0.240   6.091   0.058 -0.4442  1.3884 -2.2317
   96MOL   H25228942   0.554   6.095   0.389 -1.0684 -2.3358  4.5329
   96MOL   H25328943   0.569   6.266   0.409  0.6569 -0.3281 -1.7124
   96MOL   H25428944   0.515   6.154   0.613 -0.4281  2.9658  1.4719
   96MOL   H25528945   0.364   6.091   0.537  1.2230 -0.1825 -0.4913
   96MOL   H25628946   0.380   6.265   0.584  1.1666  1.3758 -0.5953
   96MOL   C25728947   0.295   6.305   0.022  0.4934  0.0191 -0.7299
   96MOL   C25828948   0.396   6.291   7.814 -0.5595 -0.1495  0.9278
   96MOL   C25928949   0.427   6.431   7.746 -0.2351  0.4297  0.2163
   96MOL   O26028950   0.357   6.534   7.753 -0.2253  0.3890  0.0775
   96MOL   O26128951   0.543   6.433   7.680  0.8899  0.0982 -0.0587
   96MOL   C26228952   0.595   6.559   7.638  0.3196 -0.3470  0.2243
   96MOL   C26328953   0.732   6.535   7.580  0.7578  0.1250  0.2239
   96MOL   H26428954   0.198   6.329   7.888 -0.1050 -2.5576 -0.9317
   96MOL   H26528955   0.322   6.389   0.085 -1.3269 -1.0083  1.4770
   96MOL   H26628956   0.489   6.277   7.870 -0.2679  1.1284  0.7802
   96MOL   H26728957   0.523   6.604   7.569  0.5038  0.0156  0.2738
   96MOL   H26828958   0.608   6.626   7.722 -1.2479 -0.8767  0.9173
   96MOL   H26928959   0.787   6.620   7.541  0.5934  0.9989  1.8716
   96MOL   H27028960   0.715   6.459   7.504 -2.4184 -1.6319  2.5564
   96MOL   H27128961   0.788   6.497   7.666  1.2783  0.0277 -0.1567
   96MOL   C27228962   0.355   6.177   7.714  0.0026  0.5228  0.3152
   96MOL   C27328963   0.477   6.123   7.631 -0.2057  0.0054  0.4301
   96MOL   C27428964   0.407   6.048   7.517 -0.3104  0.8694  0.3293
   96MOL   O27528965   0.409   6.081   7.397 -0.1065  0.3597  0.3925
   96MOL   O27628966   0.338   5.937   7.568  0.0785  0.1883 -0.0034
   96MOL   C27728967   0.269   5.859   7.473 -0.0246 -0.1949 -0.6941
   96MOL   C27828968   0.244   5.709   7.508  0.2245 -0.0093  0.7263
   96MOL   H27928969   0.326   6.092   7.776  0.2649 -0.8352 -1.3890
   96MOL   H28028970   0.261   6.200   7.665 -0.2019  0.4720  0.6817
   96MOL   H28128971   0.524   6.215   7.597  2.8322 -1.1955  1.2517
   96MOL   H28228972   0.177   5.915   7.455  0.2524  0.0821 -1.2316
   96MOL   H28328973   0.331   5.860   7.384 -0.7308  1.4210 -1.1871
   96MOL   H28428974   0.344   5.667   7.522  1.2323  1.7823 -0.7196
   96MOL   H28528975   0.189   5.652   7.434  2.6059 -1.9663  0.3829
   96MOL   H28628976   0.206   5.706   7.610  1.8394  0.8245  1.3731
   96MOL   C28728977   0.579   6.043   7.712  0.6316 -0.2880  1.1485
   96MOL   C28828978   0.703   5.994   7.634 -0.8313 -0.2374  0.3425
   96MOL   C28928979   0.825   6.089   7.647 -0.5151  1.1298  0.6352
   96MOL   O29028980   0.876   6.141   7.545  0.8054  0.2997 -0.2393
   96MOL   O29128981   0.860   6.106   7.784  0.1428 -0.4905 -0.0746
   96MOL   C29228982   0.949   6.215   7.814 -0.2501  0.6652 -0.1238
   96MOL   C29328983   0.975   6.223   0.054 -0.3370 -0.5751  0.0362
   96MOL   H29428984   0.604   6.094   7.805 -0.8133  0.1278  1.3211
   96MOL   H29528985   0.534   5.954   7.757 -2.4545  1.8465  2.5190
   96MOL   H29628986   0.727   5.892   7.663 -0.5102 -0.2704 -0.0396
   96MOL   H29728987   1.044   6.206   7.762 -0.1180 -0.0326  0.2424
   96MOL   H29828988   0.899   6.310   7.793 -0.7077  0.3536 -0.4462
   96MOL   H29928989   0.890   6.201   0.120 -0.2284 -0.2149  0.2950
   96MOL   H30028990   1.008   6.324   0.076 -4.0709  1.0644 -1.3836
   96MOL   H30128991   1.054   6.161   0.098  1.4250  2.6495  1.5453
   96MOL   H30228992   0.678   5.982   7.529  0.9816 -2.1695  0.1110
   97MOL     C128993   5.675   4.174   1.075 -0.2156  0.2848 -0.4411
   97MOL     C228994   5.641   4.033   1.132  0.2685  0.5775  0.4468
   97MOL     C328995   5.597   4.047   1.273 -0.0264  0.4747  0.4187
   97MOL     O428996   5.476   4.053   1.303  0.7516 -0.2556 -0.4115
   97MOL     O528997   5.702   4.074   1.355  0.2799  0.0837  0.0623
   97MOL     C628998   5.688   4.098   1.488  0.0111 -0.3756 -0.4747
   97MOL     C728999   5.831   4.136   1.529 -0.0988  0.1587 -0.4570
   97MOL     H829000   5.641   4.182   0.972  2.5330 -1.6626 -1.5715
   97MOL     H929001   5.781   4.200   1.080 -0.1997 -0.0978  1.4459
   97MOL    H1029002   5.560   3.996   1.070 -0.1954 -0.5770  1.7381
   97MOL    H1129003   5.615   4.176   1.508  0.0387 -0.7806  1.3022
   97MOL    H1229004   5.657   4.008   1.540 -2.0572  1.4263  1.5390
   97MOL    H1329005   5.821   4.163   1.634 -1.7745  0.6326 -0.7238
   97MOL    H1429006   5.860   4.227   1.477  0.7597  0.5382  0.6701
   97MOL    H1529007   5.898   4.060   1.489 -0.7145 -0.1597 -0.9034
   97MOL    H1629008   5.619   4.250   1.129  1.3256 -0.7346  2.7129
   97MOL    C1729009   5.759   3.943   1.089 -0.1224 -0.1268 -1.3215
   97MOL    C1829010   5.730   3.788   1.111 -0.3732 -0.0402 -0.1958
   97MOL    C1929011   5.759   3.738   1.247  1.0161  0.3941  0.1267
   97MOL    O2029012   5.872   3.716   1.288 -0.0766  0.3155 -0.5231
   97MOL    O2129013   5.638   3.727   1.318  0.3852 -0.5236  0.3143
   97MOL    C2229014   5.652   3.679   1.449 -0.5306  0.5976  0.2462
   97MOL    C2329015   5.526   3.717   1.527  0.1496  0.0510  0.1139
   97MOL    H2429016   5.783   3.964   0.985 -1.5313  1.5801 -1.3272
   97MOL    H2529017   5.840   3.974   1.155 -0.3446  1.5352 -1.8116
   97MOL    H2629018   5.622   3.780   1.096 -0.0158 -1.1796 -2.3490
   97MOL    H2729019   5.670   3.572   1.440  1.9965  1.0526 -0.5417
   97MOL    H2829020   5.746   3.711   1.494 -0.0238 -0.9703  0.3289
   97MOL    H2929021   5.518   3.637   1.600 -1.4421 -1.4024 -1.5959
   97MOL    H3029022   5.440   3.726   1.460  2.1736 -0.8201 -2.6800
   97MOL    H3129023   5.544   3.810   1.580  2.1851 -0.0772 -0.3164
   97MOL    C3229024   5.803   3.707   1.004  0.3744  0.0479  0.3604
   97MOL    C3329025   5.763   3.561   1.003  0.4918 -0.1275  1.3120
   97MOL    C3429026   5.844   3.479   0.897 -0.1431 -0.3584  0.0570
   97MOL    O3529027   5.942   3.524   0.839 -0.2010  0.4939  0.9034
   97MOL    O3629028   5.803   3.347   0.889 -0.5049  0.1202  0.4930
   97MOL    C3729029   5.889   3.258   0.823  0.2066  0.0860  0.0736
   97MOL    C3829030   5.855   3.116   0.864 -0.2659  0.1663 -0.6847
   97MOL    H3929031   5.776   3.741   0.904 -1.6645 -1.2135  0.4634
   97MOL    H4029032   5.908   3.722   1.028  0.7510 -3.5486  1.2844
   97MOL    H4129033   5.796   3.518   1.097  1.4132  2.0403  2.0259
   97MOL    H4229034   5.895   3.286   0.718 -0.7687 -1.6606 -0.4609
   97MOL    H4329035   5.990   3.259   0.866 -0.1495  1.1272  0.9339
   97MOL    H4429036   5.935   3.043   0.854 -1.5869 -1.2688 -1.0158
   97MOL    H4529037   5.774   3.078   0.801  1.0196 -0.4154 -2.0087
   97MOL    H4629038   5.825   3.113   0.969  2.2993  0.9595  0.0922
   97MOL    C4729039   5.611   3.551   0.975 -0.0832  0.1944  0.4820
   97MOL    C4829040   5.513   3.489   1.076 -0.1898 -0.1744  0.8489
   97MOL    C4929041   5.552   3.349   1.120 -0.4420  0.2025 -0.6420
   97MOL    O5029042   5.505   3.247   1.069 -0.0486 -0.7070 -0.1925
   97MOL    O5129043   5.622   3.359   1.230 -0.0127  0.3378 -0.0326
   97MOL    C5229044   5.715   3.256   1.256  0.2932  0.5153  0.2834
   97MOL    C5329045   5.860   3.308   1.270  0.0676  0.5294 -0.7567
   97MOL    H5429046   5.583   3.650   0.940  0.3242 -0.3282 -1.3480
   97MOL    H5529047   5.598   3.503   0.879 -1.8601  2.9176 -0.6929
   97MOL    H5629048   5.513   3.556   1.162  1.4744  0.6144  0.2495
   97MOL    H5729049   5.692   3.208   1.352  0.9578 -0.4115 -0.0076
   97MOL    H5829050   5.724   3.180   1.178 -1.6400  1.5448 -0.9744
   97MOL    H5929051   5.892   3.343   1.172 -1.1440  1.5673 -0.7777
   97MOL    H6029052   5.907   3.221   1.318 -3.5928 -1.3327 -0.3283
   97MOL    H6129053   5.852   3.391   1.340 -0.8631 -0.4272  0.3173
   97MOL    C6229054   5.371   3.480   1.007 -0.4946 -0.2224  0.5311
   97MOL    C6329055   5.245   3.501   1.103  0.7606 -0.3492  0.2050
   97MOL    C6429056   5.253   3.633   1.190  0.3586  0.1372 -0.3905
   97MOL    O6529057   5.290   3.632   1.306  0.3289 -0.0554 -0.7332
   97MOL    O6629058   5.218   3.743   1.123  0.1180 -0.4413 -0.5895
   97MOL    C6729059   5.226   3.874   1.187 -0.4760 -0.3822  0.1911
   97MOL    C6829060   5.270   3.969   1.072 -0.2119 -0.6825 -0.1964
   97MOL    H6929061   5.367   3.549   0.923  1.4470  0.3781  0.9225
   97MOL    H7029062   5.353   3.383   0.960  1.7948 -0.9702  1.1586
   97MOL    H7129063   5.162   3.511   1.034  3.3824 -0.7512 -3.1218
   97MOL    H7229064   5.132   3.901   1.235 -1.0891 -1.5068 -0.3356
   97MOL    H7329065   5.306   3.879   1.261  0.1100 -2.7354 -0.2231
   97MOL    H7429066   5.214   3.969   0.979  0.7883  1.1634 -0.8302
   97MOL    H7529067   5.373   3.945   1.046 -0.8172 -1.5709 -1.7905
   97MOL    H7629068   5.268   4.072   1.108  0.1248 -1.2552  1.5205
   97MOL    C7729069   5.204   3.388   1.197 -0.1541 -0.1807 -0.1946
   97MOL    C7829070   5.150   3.261   1.130  0.1206  0.5781  0.4777
   97MOL    C7929071   5.003   3.284   1.091  0.1336  0.6850  0.2833
   97MOL    O8029072   4.914   3.292   1.181 -0.3903 -0.7192  0.8784
   97MOL    O8129073   4.985   3.287   0.955  0.1862 -0.2317  0.1132
   97MOL    C8229074   4.849   3.300   0.910  0.4081  0.2498  0.4363
   97MOL    C8329075   4.826   3.218   0.783  0.1767 -0.4645  0.1295
   97MOL    H8429076   5.284   3.350   1.262 -1.5642 -1.0824  1.0418
   97MOL    H8529077   5.126   3.432   1.258  1.0446 -1.8640  2.6961
   97MOL    H8629078   5.198   3.250   1.032 -0.2115  0.0587  0.3746
   97MOL    H8729079   4.785   3.255   0.986 -0.1038  0.5599  0.1981
   97MOL    H8829080   4.824   3.405   0.893 -1.9548  0.0315  2.3398
   97MOL    H8929081   4.728   3.230   0.737 -0.0486 -1.4653  0.3348
   97MOL    H9029082   4.822   3.115   0.821 -2.6540  0.1117  1.5153
   97MOL    H9129083   4.908   3.229   0.712 -0.7786 -2.3161 -1.2995
   97MOL    C9229084   5.188   3.130   1.206 -0.6568  1.0251  0.2783
   97MOL    C9329085   5.110   2.998   1.161 -0.0518  0.0639  0.0087
   97MOL    C9429086   5.103   2.901   1.280 -0.6573  0.0430 -0.6403
   97MOL    O9529087   4.998   2.850   1.326 -0.3055  0.3159  0.2065
   97MOL    O9629088   5.228   2.891   1.331  0.5069  0.2799  0.3993
   97MOL    C9729089   5.250   2.837   1.462 -0.2811 -0.8987  0.2340
   97MOL    C9829090   5.233   2.951   1.559 -0.8553  0.4532  0.0249
   97MOL    H9929091   5.294   3.107   1.193 -0.5424 -0.0420  2.7948
   97MOL   H10029092   5.181   3.140   1.315 -1.4694 -1.7909  0.5371
   97MOL   H10129093   5.008   3.021   1.131 -0.0926 -2.8442 -2.2622
   97MOL   H10229094   5.184   2.751   1.475  0.0742 -1.4535 -1.5422
   97MOL   H10329095   5.350   2.798   1.480  0.0317  0.6344  1.9838
   97MOL   H10429096   5.128   2.981   1.567 -1.3526 -0.8649 -1.4692
   97MOL   H10529097   5.298   3.037   1.539  0.8925 -1.2650 -1.9659
   97MOL   H10629098   5.249   2.913   1.660 -0.2374  1.8555  0.4718
   97MOL   C10729099   5.172   2.927   1.036 -0.3063  0.2057  0.5599
   97MOL   C10829100   5.078   2.910   0.910 -0.4489 -0.4743  0.3912
   97MOL   C10929101   4.949   2.823   0.947  0.8786 -0.0793 -0.1273
   97MOL   O11029102   4.837   2.875   0.926 -0.2949 -0.5158  0.2006
   97MOL   O11129103   4.967   2.709   1.008 -1.1575 -0.1616  0.1429
   97MOL   C11229104   4.856   2.641   1.078  0.1188  0.2882  0.3762
   97MOL   C11329105   4.791   2.525   1.000  0.0683 -0.3014  0.3924
   97MOL   H11429106   5.248   3.000   1.010 -2.1441  1.0756 -2.6274
   97MOL   H11529107   5.230   2.836   1.053  1.2868  0.9239 -0.8454
   97MOL   H11629108   5.045   3.013   0.892 -0.7550 -0.4265  1.2010
   97MOL   H11729109   4.897   2.613   1.176  1.6511 -0.7610 -0.5413
   97MOL   H11829110   4.778   2.712   1.104 -2.4861 -1.9884 -1.0288
   97MOL   H11929111   4.878   2.462   0.982  0.7420  0.5242  0.7580
   97MOL   H12029112   4.751   2.565   0.906  1.9912 -0.3933 -0.4792
   97MOL   H12129113   4.713   2.462   1.044  0.5760 -1.3682 -0.2050
   97MOL   C12229114   5.168   2.850   0.797  0.1381  0.2660 -0.2776
   97MOL   C12329115   5.101   2.812   0.669 -0.6740  0.9781 -0.0124
   97MOL   C12429116   5.175   2.707   0.585 -0.4928 -0.1800 -0.3491
   97MOL   O12529117   5.116   2.610   0.548  0.4908  0.5360  0.2267
   97MOL   O12629118   5.293   2.747   0.547  0.0782 -0.0015  0.0937
   97MOL   C12729119   5.384   2.656   0.497 -0.1773 -0.6405  0.3506
   97MOL   C12829120   5.524   2.718   0.477 -0.1381 -0.4669 -0.3096
   97MOL   H12929121   5.246   2.921   0.771  4.2273 -3.5753  0.9460
   97MOL   H13029122   5.209   2.758   0.838 -0.4451  0.1851  0.1363
   97MOL   H13129123   5.007   2.764   0.696 -0.7108  2.4715  2.5880
   97MOL   H13229124   5.378   2.564   0.555 -0.9908 -0.8219 -0.0156
   97MOL   H13329125   5.343   2.627   0.400 -0.5530 -0.1287  0.3518
   97MOL   H13429126   5.595   2.650   0.430  0.1188 -1.1901  1.0949
   97MOL   H13529127   5.576   2.742   0.569 -0.9656 -0.9031  0.2808
   97MOL   H13629128   5.513   2.807   0.415 -0.2997 -0.7844 -0.7446
   97MOL   C13729129   5.050   2.928   0.580  0.2343 -0.4468  0.1585
   97MOL   C13829130   4.929   2.898   0.477 -0.5592  0.7165  0.8721
   97MOL   C13929131   4.975   2.931   0.339 -0.2680 -0.0314 -0.5747
   97MOL   O14029132   4.977   3.045   0.301 -0.6063 -0.7362  0.1844
   97MOL   O14129133   5.015   2.825   0.263  0.6484  0.7292 -0.2533
   97MOL   C14229134   5.088   2.842   0.150  0.9959  0.1620  0.3477
   97MOL   C14329135   5.234   2.818   0.188  0.4514 -0.0259  0.2222
   97MOL   H14429136   5.030   3.013   0.645  4.6355  1.2872 -0.6036
   97MOL   H14529137   5.132   2.978   0.530 -0.9643  0.8044 -0.5868
   97MOL   H14629138   4.906   2.792   0.485  4.1618 -0.6811 -1.5419
   97MOL   H14729139   5.054   2.780   0.067 -0.7174 -0.5085  1.5222
   97MOL   H14829140   5.074   2.940   0.105 -1.5010 -0.7559 -0.9369
   97MOL   H14929141   5.298   2.824   0.100  2.2149 -1.8295  1.3549
   97MOL   H15029142   5.246   2.716   0.226  0.0766  0.3798  1.4614
   97MOL   H15129143   5.281   2.882   0.263  1.3434 -0.0807 -0.2768
   97MOL   C15229144   4.808   2.973   0.528 -0.1936 -0.4428 -0.0571
   97MOL   C15329145   4.679   2.964   0.449  0.1072 -0.1081 -0.2797
   97MOL   C15429146   4.620   2.826   0.418  0.1307  0.7935 -0.3132
   97MOL   O15529147   4.523   2.775   0.482  0.2464 -0.0951  0.3967
   97MOL   O15629148   4.679   2.770   0.307  0.0260 -0.2303  0.0149
   97MOL   C15729149   4.652   2.639   0.266 -0.0030  0.3572  0.0357
   97MOL   C15829150   4.785   2.573   0.243 -0.4503  0.5021 -0.4751
   97MOL   H15929151   4.802   2.928   0.627  0.9739 -0.4126  0.0296
   97MOL   H16029152   4.826   3.079   0.543  2.5990 -0.9395  0.4028
   97MOL   H16129153   4.602   3.000   0.517  0.1436 -0.7632  0.1149
   97MOL   H16229154   4.592   2.580   0.335 -1.0203  1.6633  0.2889
   97MOL   H16329155   4.583   2.634   0.183  1.2282 -1.9730 -0.8815
   97MOL   H16429156   4.784   2.464   0.235 -0.5052  0.5518 -1.2423
   97MOL   H16529157   4.848   2.592   0.329 -0.1884 -1.3079 -0.2500
   97MOL   H16629158   4.840   2.608   0.155 -0.2862 -0.4471 -0.7558
   97MOL   C16729159   4.656   3.060   0.325 -0.4370 -0.3043 -0.1727
   97MOL   C16829160   4.681   3.205   0.363 -0.5588 -0.1383  0.0323
   97MOL   C16929161   4.566   3.266   0.441  0.6391  0.4823  0.3510
   97MOL   O17029162   4.451   3.222   0.444  0.3149 -0.1147 -0.7849
   97MOL   O17129163   4.612   3.373   0.513 -0.3472  0.0082  0.2304
   97MOL   C17229164   4.512   3.453   0.574 -0.1605 -0.0687  0.0498
   97MOL   C17329165   4.584   3.559   0.664  0.0157  0.1966  0.6331
   97MOL   H17429166   4.726   3.039   0.244 -1.8720 -2.2289 -0.9479
   97MOL   H17529167   4.557   3.033   0.289  0.0414 -0.7479 -1.1735
   97MOL   H17629168   4.780   3.226   0.404 -0.1337 -0.4175 -0.8272
   97MOL   H17729169   4.457   3.500   0.492  0.3894  0.5491  0.0262
   97MOL   H17829170   4.440   3.400   0.635  0.0254  1.1693  1.3786
   97MOL   H17929171   4.631   3.518   0.753  3.4546  0.5760 -0.9597
   97MOL   H18029172   4.505   3.628   0.696  2.7556  1.5209  4.9597
   97MOL   H18129173   4.649   3.614   0.597 -1.4369  0.5857 -0.4738
   97MOL   C18229174   4.720   3.299   0.242 -0.2342  0.0426  0.5015
   97MOL   C18329175   4.620   3.333   0.129  0.5734 -0.5888  0.0227
   97MOL   C18429176   4.583   3.200   0.052 -0.7157 -0.4060 -0.1537
   97MOL   O18529177   4.465   3.170   0.029 -0.2172  0.3825 -0.3100
   97MOL   O18629178   4.688   3.138   0.005  0.2303  0.4116 -0.4930
   97MOL   C18729179   4.688   3.001   7.862  0.7409  0.4594 -0.2126
   97MOL   C18829180   4.812   2.919   7.888 -0.3922 -0.3000 -0.1369
   97MOL   H18929181   4.740   3.398   0.284 -1.6896  0.5369  0.0840
   97MOL   H19029182   4.816   3.262   0.207 -0.0538  0.3979  0.6199
   97MOL   H19129183   4.528   3.369   0.174  1.1527  1.3150 -0.2961
   97MOL   H19229184   4.605   2.942   7.900  0.2437  2.4926  1.9612
   97MOL   H19329185   4.678   3.001   7.754 -0.4824  1.9530 -0.1113
   97MOL   H19429186   4.894   2.972   7.839  0.7232 -0.6567  1.2789
   97MOL   H19529187   4.825   2.817   7.851  1.2445 -0.8295  1.8166
   97MOL   H19629188   4.836   2.925   0.086 -2.3493  2.4766  0.2103
   97MOL   C19729189   4.667   3.439   0.022 -0.6969 -0.4354  1.1078
   97MOL   C19829190   4.595   3.571   0.009 -0.3595 -1.1146 -0.1874
   97MOL   C19929191   4.590   3.644   0.146  0.0094 -0.5989  0.2587
   97MOL   O20029192   4.488   3.648   0.207  0.6161 -0.7931 -0.1788
   97MOL   O20129193   4.705   3.702   0.180  0.6229  0.3749 -0.6991
   97MOL   C20229194   4.720   3.767   0.303  0.6975  0.0204  0.5611
   97MOL   C20329195   4.807   3.689   0.393  0.1572 -0.6802 -0.3308
   97MOL   H20429196   4.772   3.456   0.044 -0.3435 -1.2595  0.1243
   97MOL   H20529197   4.671   3.398   7.829  0.1221  0.6573  0.6995
   97MOL   H20629198   4.650   3.631   7.845 -0.9465 -0.2114  0.1095
   97MOL   H20729199   4.772   3.860   0.279 -0.4734  0.7089  0.6440
   97MOL   H20829200   4.626   3.791   0.352  0.4272 -0.0726  0.0972
   97MOL   H20929201   4.911   3.682   0.362  0.7499 -0.0256  1.4303
   97MOL   H21029202   4.765   3.588   0.389  1.3539 -1.2042  0.1037
   97MOL   H21129203   4.817   3.738   0.490  1.9346  0.9237 -1.2996
   97MOL   C21229204   4.454   3.557   7.851  0.2560 -0.2934 -0.1293
   97MOL   C21329205   4.411   3.688   7.775  0.0631 -0.6027 -0.4239
   97MOL   C21429206   4.380   3.806   7.872 -0.1404 -0.0158  0.5768
   97MOL   O21529207   4.464   3.899   7.887  0.6469 -0.2912 -0.0653
   97MOL   O21629208   4.269   3.802   0.030  0.4389 -0.4686 -0.4094
   97MOL   C21729209   4.234   3.913   0.114 -0.9474 -0.2192  0.3449
   97MOL   C21829210   4.084   3.907   0.137 -0.1462  0.2541  0.1239
   97MOL   H21929211   4.462   3.466   7.791 -0.0077 -0.5466  0.2187
   97MOL   H22029212   4.385   3.519   0.018  1.1065  0.6007  1.1065
   97MOL   H22129213   4.495   3.717   7.713 -0.0617 -0.5761 -0.5827
   97MOL   H22229214   4.303   3.927   0.197  0.4611 -0.8769 -0.7016
   97MOL   H22329215   4.250   4.009   0.064 -2.5335 -0.0467  0.1488
   97MOL   H22429216   4.036   3.901   0.040  1.0386  1.1199 -0.5301
   97MOL   H22529217   4.055   3.997   0.191  0.3262 -0.8211  2.2394
   97MOL   H22629218   4.068   3.816   0.194 -3.2356  0.4729 -0.3468
   97MOL   C22729219   4.294   3.663   7.677 -0.0530  0.7095  0.1423
   97MOL   C22829220   4.274   3.763   7.566 -0.4964 -0.1990  0.6786
   97MOL   C22929221   4.197   3.889   7.608 -0.5193  0.4314 -0.5880
   97MOL   O23029222   4.244   3.999   7.600 -0.0718  0.1880 -0.2081
   97MOL   O23129223   4.073   3.861   7.652 -0.2647 -0.5183 -0.2057
   97MOL   C23229224   3.995   3.975   7.700  0.0877  0.1234 -0.7245
   97MOL   C23329225   3.940   4.066   7.585 -0.1278 -0.2109  0.9334
   97MOL   H23429226   4.310   3.561   7.644 -0.5885 -0.6747  3.8784
   97MOL   H23529227   4.200   3.647   7.729  1.6582 -1.2560  2.7752
   97MOL   H23629228   4.370   3.802   7.531  0.6303 -1.2371  2.5407
   97MOL   H23729229   3.903   3.956   7.755  1.9069  1.0759  2.8224
   97MOL   H23829230   4.051   4.033   7.775 -2.9339  2.5517 -0.2580
   97MOL   H23929231   3.880   4.019   7.507  4.1453 -1.4031 -1.7587
   97MOL   H24029232   4.019   4.121   7.535 -0.7947 -1.6658 -1.7783
   97MOL   H24129233   3.873   4.142   7.625  0.8507 -0.0792  2.3516
   97MOL   C24229234   4.211   3.694   7.442 -0.2641  0.7326 -0.1606
   97MOL   C24329235   4.231   3.775   7.311  0.5888 -0.5501  0.3047
   97MOL   C24429236   4.162   3.699   7.204 -0.3798  0.4431  0.1062
   97MOL   O24529237   4.070   3.758   7.146 -0.3182  0.2934  0.3222
   97MOL   O24629238   4.212   3.572   7.174 -0.1767  0.4868 -0.0659
   97MOL   C24729239   4.154   3.511   7.062  0.3506  0.5169 -0.4531
   97MOL   C24829240   4.181   3.360   7.073 -0.3763  0.0060 -0.3364
   97MOL   H24929241   4.257   3.596   7.425  1.3132  1.7542 -1.8787
   97MOL   H25029242   4.106   3.675   7.464 -0.1973  0.6757  0.1110
   97MOL   H25129243   4.174   3.867   7.317 -0.8254 -1.4142  0.1892
   97MOL   H25229244   4.050   3.544   7.067  0.2944  0.2654  0.0055
   97MOL   H25329245   4.208   3.550   6.976 -0.4270  0.3102 -1.0399
   97MOL   H25429246   4.153   3.326   7.173  1.1047  0.4487  0.2414
   97MOL   H25529247   4.284   3.335   7.045 -1.5496 -2.7068 -2.4917
   97MOL   H25629248   4.114   3.300   7.012  0.1863  0.1462 -1.0918
   97MOL   C25729249   4.381   3.790   7.266 -0.4623 -0.0596 -0.7156
   97MOL   C25829250   4.428   3.933   7.285  0.7347  0.8499 -0.3473
   97MOL   C25929251   4.341   4.028   7.199 -0.0636  0.2641 -1.3107
   97MOL   O26029252   4.307   4.145   7.238 -0.2019 -0.4100 -0.2669
   97MOL   O26129253   4.313   3.982   7.080 -0.2430  0.0700 -0.1761
   97MOL   C26229254   4.247   4.067   6.987 -0.2498  0.3142 -0.1197
   97MOL   C26329255   4.201   4.004   6.860  0.1513  0.0442  0.3959
   97MOL   H26429256   4.446   3.734   7.334  1.1490 -0.2223 -2.3269
   97MOL   H26529257   4.404   3.758   7.164 -1.0144 -1.7060 -0.3449
   97MOL   H26629258   4.428   3.961   7.390 -0.3380  0.4759 -0.2464
   97MOL   H26729259   4.150   4.085   7.034 -0.5809  2.1790 -1.4746
   97MOL   H26829260   4.298   4.161   6.965 -0.8684  0.4480 -1.0194
   97MOL   H26929261   4.293   3.985   6.806 -0.0374  1.1014 -0.3093
   97MOL   H27029262   4.127   4.068   6.811  0.0577 -0.3336  0.0425
   97MOL   H27129263   4.159   3.905   6.879  1.6884 -0.5333  0.7859
   97MOL   C27229264   4.575   3.945   7.241 -0.0474 -0.1283 -0.1431
   97MOL   C27329265   4.686   3.861   7.309  0.2035 -0.6514 -0.5619
   97MOL   C27429266   4.692   3.881   7.466  0.2753  0.1969 -0.1562
   97MOL   O27529267   4.684   3.778   7.529 -0.1260 -0.2052 -0.0674
   97MOL   O27629268   4.699   4.010   7.501  0.6841 -0.3266  0.1261
   97MOL   C27729269   4.711   4.043   7.642  0.1169  0.5633  0.4669
   97MOL   C27829270   4.582   4.118   7.684  0.9521 -0.4480  0.1387
   97MOL   H27929271   4.582   3.940   7.132 -0.6554  1.9150 -0.3063
   97MOL   H28029272   4.594   4.051   7.260 -0.1304  0.1264 -1.3973
   97MOL   H28129273   4.677   3.753   7.299  0.6268 -0.6868 -0.6018
   97MOL   H28229274   4.719   3.956   7.706  0.8016 -1.3758 -2.1598
   97MOL   H28329275   4.797   4.109   7.654  1.1895 -0.5273 -0.9640
   97MOL   H28429276   4.581   4.211   7.627 -0.2343 -1.4469 -1.4874
   97MOL   H28529277   4.569   4.135   7.791  0.0092 -1.7163  0.2378
   97MOL   H28629278   4.486   4.077   7.652 -0.9028  2.1601  2.1607
   97MOL   C28729279   4.818   3.909   7.252 -0.4596  0.5273  0.1028
   97MOL   C28829280   4.930   3.816   7.305 -0.4221 -0.1906 -0.7209
   97MOL   C28929281   5.059   3.832   7.226  0.4138  0.6101 -0.6493
   97MOL   O29029282   5.165   3.855   7.288  0.3461  0.3932 -0.5752
   97MOL   O29129283   5.045   3.823   7.092 -0.0370 -0.3922  0.2048
   97MOL   C29229284   5.161   3.846   7.011  0.2372 -0.0474 -0.0020
   97MOL   C29329285   5.167   3.990   6.972 -0.3649  0.4850  0.5058
   97MOL   H29429286   4.807   3.910   7.144 -0.8596 -1.6383  0.1066
   97MOL   H29529287   4.835   4.011   7.288  1.1527 -0.3829  2.0652
   97MOL   H29629288   4.939   3.837   7.412  0.6420  0.9250 -1.0136
   97MOL   H29729289   5.250   3.811   7.064 -0.4521 -0.9739  0.5436
   97MOL   H29829290   5.172   3.787   6.920 -0.7847 -0.8687  0.4020
   97MOL   H29929291   5.084   4.012   6.905  0.0826  2.3110  0.5181
   97MOL   H30029292   5.254   4.010   6.908 -0.8553  0.5444 -0.1470
   97MOL   H30129293   5.167   4.057   7.057 -1.4437  0.2252  0.7055
   97MOL   H30229294   4.902   3.711   7.294  1.1972 -1.1395  3.3632
   98MOL     C129295   1.320   4.394   7.391 -0.3226 -0.8179 -0.3560
   98MOL     C229296   1.330   4.527   7.465  0.0967  0.5707 -0.2395
   98MOL     C329297   1.342   4.644   7.363  0.6105 -0.3084  0.2218
   98MOL     O429298   1.255   4.733   7.362  0.4073  0.3281 -0.0455
   98MOL     O529299   1.431   4.619   7.275 -0.0213  0.0588 -0.3824
   98MOL     C629300   1.453   4.717   7.185  0.5314  0.4995  0.1928
   98MOL     C729301   1.580   4.679   7.110  0.8549  0.3195  0.0684
   98MOL     H829302   1.394   4.383   7.312  2.1278  1.8541  1.4754
   98MOL     H929303   1.226   4.395   7.335 -0.8525  1.7977  0.4886
   98MOL    H1029304   1.231   4.545   7.507  0.3453 -2.9693  2.1359
   98MOL    H1129305   1.370   4.725   7.115  2.2122 -0.0950 -1.9273
   98MOL    H1229306   1.459   4.811   7.239 -0.8983 -0.9847  3.0580
   98MOL    H1329307   1.567   4.581   7.063 -0.0401  0.7953 -0.7091
   98MOL    H1429308   1.676   4.697   7.157  0.4741 -0.1665  1.0467
   98MOL    H1529309   1.584   4.744   7.022  1.2247  0.4417  0.1775
   98MOL    H1629310   1.340   4.317   7.465 -0.2347  0.3745  0.8944
   98MOL    C1729311   1.433   4.522   7.590 -0.1960 -0.1374  0.5339
   98MOL    C1829312   1.586   4.529   7.551 -0.2054  0.4767  0.3065
   98MOL    C1929313   1.642   4.445   7.439  0.5018 -0.3826  0.8016
   98MOL    O2029314   1.714   4.495   7.355 -0.6967  0.0779  0.1872
   98MOL    O2129315   1.616   4.316   7.453  0.1118 -0.0077 -0.3956
   98MOL    C2229316   1.662   4.230   7.356 -0.3311  0.7889 -0.5336
   98MOL    C2329317   1.604   4.087   7.397 -0.5238  0.1104  0.0290
   98MOL    H2429318   1.412   4.610   7.651 -1.3292  0.4017 -0.6006
   98MOL    H2529319   1.407   4.441   7.658  0.1551  0.3406  1.2449
   98MOL    H2629320   1.595   4.630   7.511 -0.1046  0.4195  0.1818
   98MOL    H2729321   1.611   4.260   7.264 -0.9717 -0.5854 -0.6404
   98MOL    H2829322   1.770   4.246   7.357 -0.5691  2.4217  1.9682
   98MOL    H2929323   1.650   4.005   7.342  2.8583  1.3107  0.9206
   98MOL    H3029324   1.499   4.073   7.371 -0.7581  1.0771  0.4371
   98MOL    H3129325   1.633   4.068   7.500  0.6536  1.4576 -0.0392
   98MOL    C3229326   1.688   4.530   7.665 -0.3761  0.0455 -0.2546
   98MOL    C3329327   1.836   4.584   7.636 -0.1793 -0.1694 -0.2054
   98MOL    C3429328   1.924   4.553   7.757 -0.3563 -0.3038  0.7137
   98MOL    O3529329   1.877   4.501   7.858  0.5753  0.1281 -0.6026
   98MOL    O3629330   2.055   4.560   7.729  0.6769  0.3556 -0.3037
   98MOL    C3729331   2.153   4.511   7.830  0.5226 -0.0323  0.2340
   98MOL    C3829332   2.185   4.618   0.028  0.3578  0.4458 -0.5940
   98MOL    H3929333   1.639   4.582   7.747  1.9288 -0.4818  1.5177
   98MOL    H4029334   1.697   4.432   7.710 -2.3331  0.8751  2.0358
   98MOL    H4129335   1.890   4.526   7.561  0.4419  1.2390 -0.8586
   98MOL    H4229336   2.129   4.421   7.887 -2.1321  0.3964 -0.1333
   98MOL    H4329337   2.243   4.494   7.771 -0.5682 -0.5390 -1.3113
   98MOL    H4429338   2.195   4.575   0.127  0.1233 -1.3031 -1.3224
   98MOL    H4529339   2.126   4.709   0.018 -0.9696 -0.4719 -1.1268
   98MOL    H4629340   2.283   4.663   0.011  1.6085 -1.5331  1.2066
   98MOL    C4729341   1.850   4.718   7.563 -0.1009  0.1208 -0.3340
   98MOL    C4829342   1.796   4.842   7.648 -0.2009 -0.1200  0.0591
   98MOL    C4929343   1.647   4.881   7.615  0.1547 -0.0190  0.4869
   98MOL    O5029344   1.553   4.844   7.687  0.5050  0.5783  0.0129
   98MOL    O5129345   1.630   4.956   7.510  0.7772 -0.3420  0.1854
   98MOL    C5229346   1.501   4.991   7.466  0.1605 -0.2947 -1.1339
   98MOL    C5329347   1.450   5.120   7.535 -0.8163  0.1817 -0.5471
   98MOL    H5429348   1.957   4.731   7.548  0.4213  0.2073  2.9656
   98MOL    H5529349   1.803   4.712   7.465 -1.6731  2.2405  0.2312
   98MOL    H5629350   1.782   4.816   7.753  1.1507  1.8809  0.7668
   98MOL    H5729351   1.498   5.001   7.358  0.3766 -0.9084 -1.1991
   98MOL    H5829352   1.439   4.908   7.499 -1.3056  1.2248  0.0005
   98MOL    H5929353   1.490   5.203   7.477 -2.8386  0.4475 -1.5975
   98MOL    H6029354   1.471   5.120   7.642 -0.4131 -0.4538 -0.6260
   98MOL    H6129355   1.342   5.110   7.522 -0.9457  0.4473  0.2597
   98MOL    C6229356   1.890   4.966   7.632 -0.0484 -0.5513  1.0943
   98MOL    C6329357   2.022   4.954   7.716 -0.8336  0.3431  0.5938
   98MOL    C6429358   1.995   4.957   7.866  0.0815 -0.4060 -0.9274
   98MOL    O6529359   2.029   5.052   0.033 -0.1524  0.1181  0.7812
   98MOL    O6629360   1.936   4.845   0.012  0.3865 -0.3810 -0.2461
   98MOL    C6729361   1.902   4.851   0.149 -0.4620 -0.1538 -0.4358
   98MOL    C6829362   1.841   4.718   0.192 -0.8583 -0.3746 -0.7473
   98MOL    H6929363   1.909   4.980   7.525 -0.4409  1.5334  1.2804
   98MOL    H7029364   1.838   5.058   7.659 -1.6437 -1.0605 -0.1415
   98MOL    H7129365   2.071   4.857   7.702 -0.8771  0.6948 -2.2476
   98MOL    H7229366   1.991   4.869   0.209 -0.1134  1.8161 -1.4998
   98MOL    H7329367   1.840   4.937   0.172 -1.6976 -1.2472  0.3907
   98MOL    H7429368   1.911   4.634   0.198 -1.4673 -0.7517  1.4199
   98MOL    H7529369   1.758   4.692   0.127 -0.7074 -0.6122 -0.8461
   98MOL    H7629370   1.811   4.729   0.296 -0.1971 -0.5026 -0.5387
   98MOL    C7729371   2.121   5.069   7.680 -0.0791  0.2103 -0.1910
   98MOL    C7829372   2.179   5.059   7.545 -0.2124  0.2442  0.4148
   98MOL    C7929373   2.239   4.926   7.501  0.0624  0.4872 -0.7922
   98MOL    O8029374   2.232   4.880   7.389 -0.1610 -0.0876  0.0853
   98MOL    O8129375   2.307   4.865   7.608 -0.1636 -0.3361  0.4617
   98MOL    C8229376   2.375   4.739   7.580  0.4932 -0.1227 -0.0123
   98MOL    C8329377   2.522   4.738   7.620 -0.2200 -0.4351  0.5270
   98MOL    H8429378   2.062   5.160   7.689 -1.7526 -0.8703 -0.1531
   98MOL    H8529379   2.209   5.060   7.744  0.5455  0.5426 -0.9974
   98MOL    H8629380   2.088   5.073   7.487 -1.8574 -1.2590  2.5444
   98MOL    H8729381   2.322   4.660   7.632  0.7766  0.1394  0.6811
   98MOL    H8829382   2.387   4.720   7.473 -0.1870 -1.5370  0.1508
   98MOL    H8929383   2.539   4.742   7.728 -1.1364 -0.5423  0.6791
   98MOL    H9029384   2.587   4.805   7.565 -1.9722 -1.0366 -2.3921
   98MOL    H9129385   2.558   4.640   7.590 -1.7617 -0.0290 -2.8216
   98MOL    C9229386   2.271   5.182   7.498  0.3412 -0.8219 -0.1615
   98MOL    C9329387   2.410   5.194   7.570  1.0031 -0.9580 -0.2311
   98MOL    C9429388   2.396   5.242   7.715 -0.5277 -0.5441 -0.5634
   98MOL    O9529389   2.348   5.349   7.742 -0.0903 -0.0184 -0.0833
   98MOL    O9629390   2.445   5.156   7.797 -0.5983  0.0054  0.4987
   98MOL    C9729391   2.424   5.167   0.024 -0.1515  0.7147  0.0271
   98MOL    C9829392   2.443   5.033   0.092 -0.3672 -0.3103  0.2046
   98MOL    H9929393   2.285   5.160   7.392 -0.9402 -0.4960 -0.3996
   98MOL   H10029394   2.219   5.277   7.505 -0.6663 -1.4120  0.5142
   98MOL   H10129395   2.466   5.100   7.571  1.8699 -0.4451 -0.4474
   98MOL   H10229396   2.477   5.246   0.076  0.3811 -0.9450  2.0836
   98MOL   H10329397   2.319   5.189   0.045 -0.0732 -2.0603  3.8957
   98MOL   H10429398   2.539   4.988   0.068 -1.3418 -0.4770 -3.5976
   98MOL   H10529399   2.357   4.972   0.066 -0.1005 -0.2785 -0.7529
   98MOL   H10629400   2.437   5.062   0.197  0.0642  0.0793  0.1242
   98MOL   C10729401   2.500   5.286   7.484 -0.0054  0.3030  0.1479
   98MOL   C10829402   2.651   5.259   7.508  0.0304 -0.5785  0.3499
   98MOL   C10929403   2.739   5.380   7.467  1.2823  0.1162 -0.7209
   98MOL   O11029404   2.788   5.460   7.549 -0.7167  0.0956  0.2029
   98MOL   O11129405   2.730   5.401   7.337  0.8788  0.3280  0.1927
   98MOL   C11229406   2.791   5.515   7.272 -0.2308 -0.1014 -0.3119
   98MOL   C11329407   2.820   5.489   7.126  0.4299 -0.4603  0.0834
   98MOL   H11429408   2.462   5.275   7.382 -1.2249 -0.2208  0.6559
   98MOL   H11529409   2.477   5.391   7.504  0.9078  0.8563 -1.5743
   98MOL   H11629410   2.661   5.250   7.616 -1.9273 -3.4807  0.3744
   98MOL   H11729411   2.735   5.608   7.282 -0.4579 -0.2570 -0.1281
   98MOL   H11829412   2.885   5.539   7.322  0.2376 -2.7491  0.1508
   98MOL   H11929413   2.910   5.427   7.119  0.7466 -0.4842  3.4820
   98MOL   H12029414   2.832   5.584   7.076 -0.2251 -0.8105 -0.7471
   98MOL   H12129415   2.735   5.438   7.080  0.2633  0.4752 -0.6513
   98MOL   C12229416   2.693   5.128   7.436 -0.0089 -0.5785  0.8562
   98MOL   C12329417   2.831   5.070   7.480 -0.0373  0.0288  1.0720
   98MOL   C12429418   2.824   5.048   7.628 -0.6678  0.3605  0.4061
   98MOL   O12529419   2.773   4.951   7.673 -0.3382 -0.5178  0.3503
   98MOL   O12629420   2.863   5.157   7.702  0.8041 -0.2668  0.0077
   98MOL   C12729421   2.832   5.163   7.839  0.1560 -0.7055 -0.0237
   98MOL   C12829422   2.954   5.143   0.020  0.0704 -0.1039 -0.5887
   98MOL   H12929423   2.614   5.053   7.445  0.3922 -1.5397 -2.8215
   98MOL   H13029424   2.705   5.146   7.329  0.3310  0.5367  1.0777
   98MOL   H13129425   2.821   4.972   7.434  0.8484  0.7892 -0.8315
   98MOL   H13229426   2.784   5.259   7.858 -0.6798 -0.9516 -0.8504
   98MOL   H13329427   2.757   5.088   7.864  0.7237 -0.8005  1.4552
   98MOL   H13429428   3.026   5.206   7.877 -0.4373  0.0402 -1.1296
   98MOL   H13529429   2.999   5.044   0.015 -0.7505 -0.5756  0.9040
   98MOL   H13629430   2.934   5.164   0.125  2.2461  0.1431 -0.2059
   98MOL   C13729431   2.957   5.136   7.418  0.1496  0.1862 -0.3581
   98MOL   C13829432   3.100   5.085   7.437  0.8591 -0.4577 -0.2103
   98MOL   C13929433   3.104   4.940   7.399 -0.5255 -0.2988  0.2103
   98MOL   O14029434   3.161   4.899   7.295 -0.8152  0.9952  0.6811
   98MOL   O14129435   3.039   4.858   7.478  0.2556  0.1282 -0.7166
   98MOL   C14229436   3.036   4.712   7.463 -0.1812 -0.3041 -0.3220
   98MOL   C14329437   2.890   4.667   7.464  0.1262 -0.4248 -0.2327
   98MOL   H14429438   2.931   5.131   7.312  0.0861 -0.3856 -0.3121
   98MOL   H14529439   2.951   5.242   7.443  1.1778 -0.1788  1.4986
   98MOL   H14629440   3.156   5.136   7.358  0.3460 -0.3459 -0.5119
   98MOL   H14729441   3.083   4.681   7.369  0.1647 -2.9302  0.6702
   98MOL   H14829442   3.093   4.666   7.544 -0.2154  1.1520  0.5448
   98MOL   H14929443   2.857   4.564   7.481 -1.8611 -0.0077 -1.4018
   98MOL   H15029444   2.842   4.686   7.368 -2.4739  1.7479  1.4233
   98MOL   H15129445   2.839   4.719   7.545 -2.2724 -1.8956 -0.7378
   98MOL   C15229446   3.155   5.117   7.580 -0.1378  0.7066 -0.9595
   98MOL   C15329447   3.311   5.151   7.594 -0.1004 -0.1858 -0.5094
   98MOL   C15429448   3.407   5.044   7.547 -0.1342  0.0742  0.4445
   98MOL   O15529449   3.520   5.075   7.500 -0.5320  0.1129  0.4654
   98MOL   O15629450   3.370   4.920   7.588  0.0339  0.2551  0.1810
   98MOL   C15729451   3.463   4.812   7.574  0.0593  0.9394  0.3680
   98MOL   C15829452   3.557   4.777   7.690 -0.6554 -0.4340 -0.4693
   98MOL   H15929453   3.106   5.208   7.616 -1.7136 -0.4668 -0.0900
   98MOL   H16029454   3.133   5.046   7.659  1.8590  0.8743 -0.2299
   98MOL   H16129455   3.331   5.233   7.526 -0.2665  0.9548  0.7958
   98MOL   H16229456   3.397   4.726   7.564 -0.4941  1.5235 -1.1335
   98MOL   H16329457   3.512   4.826   7.478  0.7567  2.0223  0.8734
   98MOL   H16429458   3.503   4.780   7.785  0.5179 -0.7186  0.2223
   98MOL   H16529459   3.644   4.842   7.703 -1.1696 -0.0774  1.4479
   98MOL   H16629460   3.590   4.672   7.691  0.3448 -0.1517 -1.8182
   98MOL   C16729461   3.354   5.196   7.735 -0.2693 -0.0200 -0.2934
   98MOL   C16829462   3.359   5.352   7.762  0.1577 -0.0354  0.3490
   98MOL   C16929463   3.486   5.423   7.706  0.0363  0.0760  0.0924
   98MOL   O17029464   3.582   5.350   7.667 -0.7205 -0.2408  0.2937
   98MOL   O17129465   3.485   5.554   7.716 -0.2010  0.5456 -0.1266
   98MOL   C17229466   3.592   5.625   7.660 -0.5512  1.0476 -0.1453
   98MOL   C17329467   3.569   5.775   7.658  0.8480 -0.4227 -0.2067
   98MOL   H17429468   3.282   5.133   7.787 -0.0777 -0.3546 -0.4279
   98MOL   H17529469   3.454   5.162   7.764 -1.0354 -0.9498  1.3226
   98MOL   H17629470   3.270   5.383   7.707 -0.0538 -1.2857 -0.0437
   98MOL   H17729471   3.686   5.619   7.715  0.0736  2.7739 -1.0084
   98MOL   H17829472   3.622   5.580   7.565  2.0037 -4.0718  2.8695
   98MOL   H17929473   3.655   5.820   7.608  0.6680  0.6165  0.4011
   98MOL   H18029474   3.568   5.824   7.755 -0.8588 -0.3384 -0.2553
   98MOL   H18129475   3.484   5.808   7.598  2.1187  2.4974 -0.4784
   98MOL   C18229476   3.330   5.381   0.009  0.6237 -0.7492 -0.2675
   98MOL   C18329477   3.453   5.356   0.102  0.2433  0.0477 -0.2276
   98MOL   C18429478   3.461   5.217   0.161 -0.4108  0.0251  0.0108
   98MOL   O18529479   3.368   5.170   0.229  0.1990  0.1515  0.4089
   98MOL   O18629480   3.576   5.169   0.137  0.1909  0.3577  0.5577
   98MOL   C18729481   3.616   5.038   0.187 -0.5694 -0.4087 -0.5684
   98MOL   C18829482   3.557   4.932   0.090  0.6576 -0.5282 -0.4920
   98MOL   H18929483   3.317   5.489   0.011  0.6692 -0.7243 -1.1191
   98MOL   H19029484   3.236   5.345   0.050  1.1250 -2.4522 -0.5498
   98MOL   H19129485   3.548   5.377   0.054 -0.5227  1.2781 -1.2497
   98MOL   H19229486   3.725   5.037   0.192 -0.6639  0.2534  2.4564
   98MOL   H19329487   3.575   5.026   0.288  0.1712 -2.1157 -0.4665
   98MOL   H19429488   3.449   4.925   0.105  1.1442 -1.7038  2.8565
   98MOL   H19529489   3.579   4.827   0.109 -0.6604 -0.6853  0.2342
   98MOL   H19629490   3.562   4.952   7.892 -3.4688 -4.0540 -1.4869
   98MOL   C19729491   3.440   5.450   0.223 -0.1555 -0.3120  0.4385
   98MOL   C19829492   3.482   5.598   0.193  0.5945  0.0854 -1.0186
   98MOL   C19929493   3.631   5.611   0.165  0.3368  0.0642 -0.2795
   98MOL   O20029494   3.667   5.640   0.054 -0.6535 -0.3902  0.1797
   98MOL   O20129495   3.711   5.606   0.273 -0.3479  0.1008 -0.2988
   98MOL   C20229496   3.856   5.625   0.260 -0.6820 -0.6282 -0.2507
   98MOL   C20329497   3.928   5.513   0.339  0.8158  0.2109 -0.0110
   98MOL   H20429498   3.337   5.452   0.260  0.1721 -0.7603  1.3811
   98MOL   H20529499   3.493   5.413   0.311 -0.7306 -3.1082 -0.3388
   98MOL   H20629500   3.426   5.632   0.106 -0.8303 -0.5205 -0.3538
   98MOL   H20729501   3.889   5.613   0.157 -1.8092  0.9811 -0.8161
   98MOL   H20829502   3.883   5.724   0.296 -2.4192 -0.1423 -0.2196
   98MOL   H20929503   3.893   5.513   0.442 -0.5735 -0.4013 -0.4691
   98MOL   H21029504   4.034   5.527   0.357  1.0889 -0.2996 -1.1328
   98MOL   H21129505   3.907   5.412   0.302 -0.1947 -0.4548  2.2812
   98MOL   C21229506   3.431   5.686   0.306  0.2032  0.6300 -0.0929
   98MOL   C21329507   3.461   5.835   0.288 -0.2691 -0.3301 -0.2088
   98MOL   C21429508   3.447   5.907   0.419  0.9112 -0.0959  0.3163
   98MOL   O21529509   3.546   5.939   0.485 -0.2170 -0.1306 -0.1086
   98MOL   O21629510   3.318   5.918   0.462 -0.6262  0.1710 -0.1846
   98MOL   C21729511   3.276   5.960   0.582 -0.1581 -0.5017 -0.0637
   98MOL   C21829512   3.123   5.955   0.596 -0.0245  0.3844  0.6159
   98MOL   H21929513   3.323   5.679   0.320  0.5379 -2.4343  1.2355
   98MOL   H22029514   3.479   5.654   0.398 -0.2999 -0.7151 -0.2954
   98MOL   H22129515   3.567   5.848   0.265 -0.4208 -1.1232 -1.3893
   98MOL   H22229516   3.320   5.904   0.665 -2.9389  0.1416  1.9335
   98MOL   H22329517   3.303   6.066   0.587 -0.7583 -0.2784 -1.3937
   98MOL   H22429518   3.068   6.012   0.521 -0.6842  0.1847  0.9454
   98MOL   H22529519   3.094   5.991   0.695 -0.0034  1.2900  0.3038
   98MOL   H22629520   3.090   5.852   0.588  1.1707  0.0600 -0.5171
   98MOL   C22729521   3.379   5.913   0.178  0.0950  0.1281  0.1841
   98MOL   C22829522   3.463   6.033   0.115 -0.2438  0.2621  0.7832
   98MOL   C22929523   3.506   6.139   0.214 -0.0316 -0.8680 -0.0439
   98MOL   O23029524   3.625   6.170   0.225  0.2937 -0.2920  0.3286
   98MOL   O23129525   3.406   6.194   0.282  0.4866  0.0812 -0.1988
   98MOL   C23229526   3.424   6.294   0.373 -0.1160 -0.3342  0.3054
   98MOL   C23329527   3.292   6.365   0.407  0.1182 -0.0162 -0.3480
   98MOL   H23429528   3.358   5.842   0.098  4.1551 -2.2996  1.0853
   98MOL   H23529529   3.292   5.962   0.220 -1.7964 -0.7076 -2.6251
   98MOL   H23629530   3.557   6.000   0.070 -0.0826  1.8559 -0.0860
   98MOL   H23729531   3.465   6.246   0.462  1.3962 -1.1567 -0.8050
   98MOL   H23829532   3.489   6.372   0.333 -0.6835  0.4096  0.8165
   98MOL   H23929533   3.207   6.299   0.428  0.0675  0.3416  0.6083
   98MOL   H24029534   3.253   6.420   0.321  0.5201  0.8378  0.0157
   98MOL   H24129535   3.299   6.411   0.505  0.9312 -1.8110  0.4586
   98MOL   C24229536   3.381   6.087   7.902  0.1820 -0.2147 -0.0433
   98MOL   C24329537   3.466   6.148   7.786 -0.3663 -0.4523 -0.6480
   98MOL   C24429538   3.530   6.279   7.832 -0.4592 -0.4358  0.9165
   98MOL   O24529539   3.649   6.281   7.852 -0.1438 -0.4503  0.7314
   98MOL   O24629540   3.449   6.380   7.836 -0.1278  0.2888  0.3825
   98MOL   C24729541   3.496   6.500   7.894 -0.3574 -0.5184 -0.4245
   98MOL   C24829542   3.557   6.609   7.802 -0.3109 -0.2452 -0.6879
   98MOL   H24929543   3.343   6.005   7.842 -1.5785 -0.9933  2.0504
   98MOL   H25029544   3.296   6.153   0.014  1.5582  1.9389 -1.1022
   98MOL   H25129545   3.556   6.087   7.781  1.3068  1.6297  2.3297
   98MOL   H25229546   3.406   6.540   0.033 -0.4704 -0.2669 -0.8479
   98MOL   H25329547   3.568   6.474   0.063 -1.9724  0.5668  1.5212
   98MOL   H25429548   3.601   6.686   7.866 -1.0932  0.4465 -0.9671
   98MOL   H25529549   3.488   6.669   7.742  1.3484  1.8955 -0.4998
   98MOL   H25629550   3.645   6.572   7.750  0.0458  0.3277 -0.5023
   98MOL   C25729551   3.399   6.163   7.647  0.5186  0.1100 -0.1290
   98MOL   C25829552   3.491   6.126   7.527 -0.4008 -0.0706  1.0198
   98MOL   C25929553   3.627   6.198   7.527  0.6941 -0.5105  0.1853
   98MOL   O26029554   3.727   6.145   7.568 -0.7081  0.5418  0.6914
   98MOL   O26129555   3.613   6.324   7.490  0.4901  0.1042  1.0337
   98MOL   C26229556   3.730   6.408   7.467 -0.1717  0.6894 -0.3208
   98MOL   C26329557   3.767   6.408   7.320 -0.1688 -0.4278  0.6601
   98MOL   H26429558   3.309   6.102   7.639 -0.1945  0.6885  3.0136
   98MOL   H26529559   3.365   6.266   7.635 -0.6894 -0.4025 -1.3004
   98MOL   H26629560   3.513   6.021   7.549 -0.4027 -0.3296 -0.1412
   98MOL   H26729561   3.721   6.512   7.497  1.8280  1.0297 -0.7860
   98MOL   H26829562   3.823   6.374   7.513  1.2931  2.5794 -1.7946
   98MOL   H26929563   3.687   6.448   7.257 -0.6648  0.4008  1.8074
   98MOL   H27029564   3.786   6.304   7.291 -0.5341  0.5141 -3.2844
   98MOL   H27129565   3.865   6.450   7.298 -0.1197  0.0171  1.6985
   98MOL   C27229566   3.418   6.124   7.391  0.0423 -0.4828  0.1950
   98MOL   C27329567   3.503   6.091   7.263 -0.2300  0.1020  0.2219
   98MOL   C27429568   3.423   6.131   7.142 -0.1690 -0.0934  0.2946
   98MOL   O27529569   3.410   6.254   7.119  0.0870  0.1929  0.1426
   98MOL   O27629570   3.373   6.035   7.065  0.5976 -0.0303  0.2791
   98MOL   C27729571   3.303   6.068   6.950  0.6482 -0.4321 -0.1495
   98MOL   C27829572   3.371   6.045   6.814  0.3797  0.3839 -0.0951
   98MOL   H27929573   3.324   6.069   7.388 -1.0655  1.4763 -1.7375
   98MOL   H28029574   3.385   6.226   7.371  0.7236 -0.1658  0.6580
   98MOL   H28129575   3.590   6.155   7.277 -0.7072  0.4621  1.6064
   98MOL   H28229576   3.219   5.999   6.937  1.7749 -2.1311  1.4667
   98MOL   H28329577   3.259   6.168   6.959  1.2840 -0.2827  1.3932
   98MOL   H28429578   3.320   6.105   6.739 -0.6203  1.6060  1.5267
   98MOL   H28529579   3.356   5.943   6.779 -0.4086  0.7496 -0.8284
   98MOL   H28629580   3.477   6.068   6.825  0.3744  0.4179 -0.1178
   98MOL   C28729581   3.549   5.950   7.270 -0.0684 -0.2613 -0.2133
   98MOL   C28829582   3.665   5.902   7.174  0.1045 -0.5992 -0.5033
   98MOL   C28929583   3.801   5.956   7.223  0.0531 -0.1705  0.7839
   98MOL   O29029584   3.831   6.073   7.216  0.0660 -0.6317 -0.1527
   98MOL   O29129585   3.869   5.862   7.293  0.7049 -0.3641 -0.1179
   98MOL   C29229586   3.975   5.883   7.377  0.1425  0.1025 -0.2902
   98MOL   C29329587   4.106   5.836   7.322 -0.8173 -0.0680  0.0758
   98MOL   H29429588   3.573   5.921   7.372  2.9567 -2.1992 -1.4047
   98MOL   H29529589   3.467   5.880   7.257  1.6238 -2.5660  1.0768
   98MOL   H29629590   3.669   5.795   7.153 -0.1261 -0.1952 -2.6650
   98MOL   H29729591   3.982   5.983   7.421  2.1957  0.1687 -0.6815
   98MOL   H29829592   3.935   5.819   7.455  0.3564 -0.5403 -0.7010
   98MOL   H29929593   4.189   5.863   7.387 -0.9055 -1.2064  0.6832
   98MOL   H30029594   4.136   5.897   7.236 -0.9753  0.0965  0.1358
   98MOL   H30129595   4.106   5.730   7.297 -0.7279 -0.4149  1.5039
   98MOL   H30229596   3.645   5.934   7.072 -2.4980 -0.1265  0.1289
   99MOL     C129597   0.948   6.011   6.867  0.9474 -0.1865 -0.0776
   99MOL     C229598   0.821   5.965   6.786  0.3319 -0.2785 -0.3197
   99MOL     C329599   0.714   6.066   6.811  0.4363 -0.6082 -0.6520
   99MOL     O429600   0.728   6.151   6.902  0.8573 -0.0328 -0.1220
   99MOL     O529601   0.616   6.059   6.717  0.5857 -0.0458 -0.5199
   99MOL     C629602   0.501   6.136   6.709 -0.6702 -0.3547 -0.5948
   99MOL     C729603   0.399   6.068   6.615  0.6787 -0.8684  0.1142
   99MOL     H829604   1.037   5.955   6.837 -0.5318 -2.4375 -0.3561
   99MOL     H929605   0.931   5.990   6.972  2.3459 -0.6175  0.0708
   99MOL    H1029606   0.841   5.978   6.680  0.9399 -0.5702 -0.2408
   99MOL    H1129607   0.460   6.160   6.807  0.8345  0.5045 -0.1591
   99MOL    H1229608   0.518   6.235   6.665 -2.2050  0.1229 -0.1299
   99MOL    H1329609   0.301   6.116   6.622  1.2253 -0.0164  2.2510
   99MOL    H1429610   0.394   5.965   6.651 -0.3556 -0.5068  1.0296
   99MOL    H1529611   0.445   6.060   6.516 -0.0944  0.6069 -0.3805
   99MOL    H1629612   0.973   6.117   6.861 -0.0269  0.2380  2.7669
   99MOL    C1729613   0.782   5.814   6.810 -0.2283  0.4380 -0.3535
   99MOL    C1829614   0.687   5.742   6.707 -0.4901 -0.1401  0.4725
   99MOL    C1929615   0.617   5.624   6.780  0.2262 -0.1506  0.8914
   99MOL    O2029616   0.497   5.620   6.780 -0.1657  0.1836 -0.1072
   99MOL    O2129617   0.695   5.541   6.846 -0.8215 -0.2595 -0.2691
   99MOL    C2229618   0.640   5.417   6.886  0.5467 -0.6789  0.1217
   99MOL    C2329619   0.558   5.425   7.011  0.3946  0.0756  0.0353
   99MOL    H2429620   0.875   5.757   6.812 -0.1559  0.4978 -1.4858
   99MOL    H2529621   0.738   5.797   6.908  1.0592  0.1421  0.1868
   99MOL    H2629622   0.618   5.821   6.678 -0.9019 -0.4748  0.5217
   99MOL    H2729623   0.586   5.376   6.801 -2.3787  3.4649 -0.1786
   99MOL    H2829624   0.716   5.343   6.910 -0.8640 -1.8225  1.1294
   99MOL    H2929625   0.536   5.331   7.062 -1.8962  0.7570  0.3953
   99MOL    H3029626   0.463   5.468   6.980  0.8716  1.5611  0.6001
   99MOL    H3129627   0.598   5.480   7.096  0.3275 -1.4599  1.0892
   99MOL    C3229628   0.768   5.691   6.580 -0.4247  0.0738 -0.0872
   99MOL    C3329629   0.690   5.676   6.443 -0.1970 -0.2391 -0.1569
   99MOL    C3429630   0.655   5.815   6.386 -0.0447 -0.5965 -1.3034
   99MOL    O3529631   0.535   5.849   6.373  0.0446 -0.7312  0.2374
   99MOL    O3629632   0.767   5.882   6.351  0.0216 -0.0174  0.0276
   99MOL    C3729633   0.762   6.011   6.287 -0.2316 -0.5422 -0.4302
   99MOL    C3829634   0.798   6.112   6.392  0.3723  0.5630  0.6968
   99MOL    H3929635   0.849   5.760   6.559  0.5149 -0.3337  2.0934
   99MOL    H4029636   0.817   5.597   6.607 -0.9893 -0.1273  0.2600
   99MOL    H4129637   0.763   5.634   6.375 -1.0248 -0.8989 -0.6530
   99MOL    H4229638   0.830   6.018   6.203  0.6902 -0.7601  0.2941
   99MOL    H4329639   0.667   6.030   6.236  0.8232 -0.4671 -2.3803
   99MOL    H4429640   0.832   6.207   6.351 -0.5549  0.1474 -1.0839
   99MOL    H4529641   0.877   6.079   6.459  1.5408 -1.2257 -1.5213
   99MOL    H4629642   0.706   6.118   6.451 -1.0940 -3.1242 -1.0640
   99MOL    C4729643   0.580   5.562   6.449  0.0159 -0.0573  0.2579
   99MOL    C4829644   0.528   5.506   6.306 -0.2072  0.1995 -0.4704
   99MOL    C4929645   0.412   5.590   6.251 -0.1004 -0.2913 -0.8593
   99MOL    O5029646   0.303   5.594   6.312  0.0802  0.0932 -0.4478
   99MOL    O5129647   0.432   5.654   6.139  0.1884  0.9417 -0.2860
   99MOL    C5229648   0.353   5.758   6.087  0.2318 -0.7943  0.2464
   99MOL    C5329649   0.428   5.875   6.024  0.0020  0.2017 -0.3250
   99MOL    H5429650   0.640   5.480   6.489 -1.5011 -1.1408  0.3883
   99MOL    H5529651   0.504   5.565   6.527 -0.2803  0.7760 -0.0639
   99MOL    H5629652   0.608   5.520   6.234  1.0064 -0.3800  0.7295
   99MOL    H5729653   0.281   5.711   6.020 -0.8292 -2.6999  2.6632
   99MOL    H5829654   0.291   5.798   6.167  1.2043  0.8537  0.2015
   99MOL    H5929655   0.359   5.953   5.991  0.8109  0.9175 -0.3537
   99MOL    H6029656   0.491   5.835   5.944 -1.2792 -2.8055  0.1240
   99MOL    H6129657   0.500   5.913   6.096 -1.2142 -1.2997  1.7254
   99MOL    C6229658   0.498   5.350   6.309  0.3383 -0.2763  0.3575
   99MOL    C6329659   0.628   5.256   6.299 -0.4647  0.3054  0.5440
   99MOL    C6429660   0.704   5.273   6.164  0.8991  0.2012  0.1862
   99MOL    O6529661   0.660   5.331   6.062 -0.4333  0.6245 -0.1562
   99MOL    O6629662   0.835   5.235   6.180 -0.1182  0.1100  0.3759
   99MOL    C6729663   0.934   5.233   6.079 -0.2395 -0.0561  0.0458
   99MOL    C6829664   1.043   5.131   6.113 -0.1511  0.0003 -0.0355
   99MOL    H6929665   0.441   5.323   6.397 -2.0492 -0.2772 -1.1320
   99MOL    H7029666   0.435   5.320   6.225  0.3980  1.7308 -0.4429
   99MOL    H7129667   0.703   5.294   6.368  1.9775 -1.7011 -0.9054
   99MOL    H7229668   0.887   5.195   5.989 -1.1593  4.0209 -1.2929
   99MOL    H7329669   0.982   5.330   6.064  2.5398 -1.2770  0.5763
   99MOL    H7429670   1.006   5.028   6.106  0.0982 -0.1063  0.2194
   99MOL    H7529671   1.097   5.162   6.202  3.0120 -1.9072 -1.1841
   99MOL    H7629672   1.122   5.138   6.038  1.4230  1.8568  1.7331
   99MOL    C7729673   0.614   5.104   6.345  0.5066  0.5641 -0.2515
   99MOL    C7829674   0.529   5.005   6.253 -0.0883 -0.0926  0.2692
   99MOL    C7929675   0.391   5.064   6.223 -0.1875 -0.7361 -0.0155
   99MOL    O8029676   0.347   5.089   6.111 -0.0983 -0.5595  0.2123
   99MOL    O8129677   0.327   5.089   6.338 -0.0039  0.1307  0.2398
   99MOL    C8229678   0.201   5.155   6.336 -0.1253  0.2119 -0.2533
   99MOL    C8329679   0.162   5.179   6.485  0.1641 -0.3071 -0.2244
   99MOL    H8429680   0.711   5.054   6.347 -0.0378 -0.5160 -0.4838
   99MOL    H8529681   0.574   5.096   6.446  0.0394  0.2197 -0.4613
   99MOL    H8629682   0.587   4.999   6.161 -0.3278  2.6974 -0.0963
   99MOL    H8729683   0.205   5.247   6.277  1.4232  0.9834  1.0525
   99MOL    H8829684   0.119   5.099   6.290  1.2201 -0.5079 -1.8410
   99MOL    H8929685   0.056   5.203   6.498  0.3777  0.3537  0.3297
   99MOL    H9029686   0.220   5.260   6.529  1.6158 -0.9422 -0.9313
   99MOL    H9129687   0.182   5.093   6.549 -1.2218  0.1875  0.8973
   99MOL    C9229688   0.520   4.863   6.328  0.1312  0.4489 -0.2194
   99MOL    C9329689   0.448   4.737   6.256  0.4020 -0.2904 -1.0769
   99MOL    C9429690   0.507   4.722   6.115  0.2232  0.2058  0.5688
   99MOL    O9529691   0.600   4.649   6.091  0.1927 -0.2678  0.6111
   99MOL    O9629692   0.447   4.804   6.034  0.6867  0.2409 -0.5127
   99MOL    C9729693   0.487   4.810   5.898 -0.0781  0.0250  0.7667
   99MOL    C9829694   0.590   4.922   5.879 -0.4840 -0.4866 -0.6693
   99MOL    H9929695   0.623   4.828   6.340 -0.0855  0.4844  1.9669
   99MOL   H10029696   0.476   4.887   6.425 -0.2988  1.2254 -0.6048
   99MOL   H10129697   0.488   4.653   6.313  1.2465  0.6981 -0.1960
   99MOL   H10229698   0.525   4.715   5.860 -0.8918 -0.2812  0.7222
   99MOL   H10329699   0.407   4.842   5.831  1.1923  1.8951  0.0637
   99MOL   H10429700   0.607   4.933   5.772 -0.9809  1.1824 -0.5894
   99MOL   H10529701   0.684   4.894   5.926  0.8063  2.1665 -1.5882
   99MOL   H10629702   0.568   5.017   5.927  0.1570 -1.0617  0.7888
   99MOL   C10729703   0.288   4.731   6.257 -0.1732 -0.4098  0.4958
   99MOL   C10829704   0.218   4.639   6.356  0.1562  0.3725  0.5412
   99MOL   C10929705   0.219   4.695   6.496  0.4415 -0.0978 -0.4505
   99MOL   O11029706   0.143   4.786   6.534 -0.0713  0.1968 -0.4228
   99MOL   O11129707   0.311   4.634   6.567  0.2589  0.3918 -0.4484
   99MOL   C11229708   0.326   4.654   6.704  0.3507  0.1082 -0.6084
   99MOL   C11329709   0.433   4.572   6.761  0.0638  0.4405  0.0075
   99MOL   H11429710   0.255   4.832   6.279  0.2700 -0.2492  0.4180
   99MOL   H11529711   0.242   4.722   6.159 -1.3024 -2.9248  1.2110
   99MOL   H11629712   0.112   4.637   6.330  0.8776 -0.2840 -2.5180
   99MOL   H11729713   0.358   4.758   6.715  0.1822  0.1202 -0.2031
   99MOL   H11829714   0.233   4.637   6.758  0.5540 -1.7704 -0.8398
   99MOL   H11929715   0.520   4.635   6.743  1.4885 -1.8174 -1.2318
   99MOL   H12029716   0.424   4.471   6.720 -0.4849  0.6080 -0.2948
   99MOL   H12129717   0.422   4.571   6.870 -0.7661  1.3868 -0.0612
   99MOL   C12229718   0.272   4.492   6.333 -0.1484  0.4944 -0.1765
   99MOL   C12329719   0.178   4.383   6.386 -0.0221 -0.2488 -0.3634
   99MOL   C12429720   0.240   4.243   6.411 -0.5006  0.3158 -0.0944
   99MOL   O12529721   0.208   4.182   6.512  0.2234  0.4160 -0.6850
   99MOL   O12629722   0.316   4.189   6.316 -0.3024 -0.1294  0.3187
   99MOL   C12729723   0.349   4.048   6.322 -0.2614  0.3098 -0.2595
   99MOL   C12829724   0.501   4.027   6.322  0.4075 -0.1069 -0.2506
   99MOL   H12929725   0.286   4.456   6.231  0.6052 -1.8894  0.7592
   99MOL   H13029726   0.367   4.484   6.386 -0.6905  1.4121  0.9637
   99MOL   H13129727   0.132   4.422   6.477 -0.1897  0.8803 -0.9264
   99MOL   H13229728   0.301   3.994   6.403  1.9988  1.1049  1.6575
   99MOL   H13329729   0.314   4.004   6.228  0.0618 -0.2165 -0.1367
   99MOL   H13429730   0.524   3.935   6.376 -2.0265  0.0355  1.0799
   99MOL   H13529731   0.549   4.111   6.372 -2.3420  1.8569 -0.7719
   99MOL   H13629732   0.556   4.016   6.229  2.2858 -0.3687  0.8667
   99MOL   C13729733   0.054   4.358   6.300  0.1463  0.8048  0.1007
   99MOL   C13829734   0.081   4.312   6.153 -0.5854 -0.2917  0.7813
   99MOL   C13929735   0.065   4.418   6.044  0.0293 -0.1356  0.3219
   99MOL   O14029736   0.156   4.480   5.987  0.1239 -0.3478 -0.0041
   99MOL   O14129737   7.845   4.436   6.020 -0.3092  0.4633 -0.9587
   99MOL   C14229738   7.810   4.520   5.914 -0.1430  0.3194  0.0050
   99MOL   C14329739   7.717   4.448   5.823  0.4583  0.5301 -0.1017
   99MOL   H14429740   0.001   4.279   6.354 -0.5660  1.9043  1.0244
   99MOL   H14529741   7.908   4.452   6.298 -1.7672 -0.2975 -1.2327
   99MOL   H14629742   0.184   4.277   6.151 -0.9159 -1.5379  3.4524
   99MOL   H14729743   7.762   4.613   5.945 -1.3947  0.4622 -2.2203
   99MOL   H14829744   7.896   4.553   5.856 -0.6227 -0.1024 -0.9691
   99MOL   H14929745   7.676   4.503   5.738  1.7850 -0.1266 -1.1892
   99MOL   H15029746   7.627   4.429   5.882 -0.6811  1.1526 -1.5949
   99MOL   H15129747   7.754   4.354   5.782  0.9663  1.0239 -0.7815
   99MOL   C15229748   0.016   4.176   6.115  0.2463  0.5676  0.2708
   99MOL   C15329749   0.056   4.118   5.977 -1.4362 -0.3002  0.1635
   99MOL   C15429750   7.845   4.030   5.928  0.2667 -0.1183 -0.8901
   99MOL   O15529751   7.788   4.045   5.822  0.4849  0.1697  0.0633
   99MOL   O15629752   7.826   3.922   6.016  0.1254  0.2058  0.3631
   99MOL   C15729753   7.721   3.829   5.982  0.7622 -0.0147  1.3012
   99MOL   C15829754   7.794   3.694   5.956  0.2898 -0.3819 -0.3904
   99MOL   H15929755   0.029   4.099   6.190 -1.3494 -1.5379 -1.5558
   99MOL   H16029756   7.815   4.184   6.117  0.2939  1.0803  1.2324
   99MOL   H16129757   0.048   4.198   5.903  1.0097  0.9931  1.2295
   99MOL   H16229758   7.660   3.814   6.071 -0.1131  0.6775  0.8316
   99MOL   H16329759   7.664   3.855   5.893  1.4258 -1.8850  0.3129
   99MOL   H16429760   7.877   3.709   5.887 -1.1700 -1.6228 -2.4700
   99MOL   H16529761   7.719   3.623   5.920  0.3629 -0.9919  0.6151
   99MOL   H16629762   7.839   3.664   6.051 -1.0711  2.6673  1.2950
   99MOL   C16729763   0.193   4.040   5.967  0.1972 -0.2407 -0.9326
   99MOL   C16829764   0.228   3.988   5.829  0.1250  0.0954 -0.4026
   99MOL   C16929765   0.271   3.844   5.834 -0.0695 -0.0195 -0.3987
   99MOL   O17029766   0.364   3.805   5.906 -0.0149 -0.2515 -0.6311
   99MOL   O17129767   0.196   3.762   5.758 -0.4531  0.4798 -0.3274
   99MOL   C17229768   0.223   3.618   5.759 -0.5299 -0.4268  0.4236
   99MOL   C17329769   0.122   3.555   5.661 -0.3450 -0.6189  0.3450
   99MOL   H17429770   0.274   4.109   5.989 -1.2327  2.1611 -2.9129
   99MOL   H17529771   0.186   3.961   6.042  1.3664 -1.9124 -2.5143
   99MOL   H17629772   0.131   3.978   5.781  0.0915 -0.8103 -0.1634
   99MOL   H17729773   0.322   3.587   5.726 -0.1920  0.7340  0.3227
   99MOL   H17829774   0.224   3.579   5.861  4.5349 -1.2643  0.2053
   99MOL   H17929775   0.134   3.447   5.667  1.5449 -0.3455  2.2760
   99MOL   H18029776   0.148   3.584   5.559 -0.3496 -0.0868  0.4960
   99MOL   H18129777   0.017   3.582   5.674 -0.3990 -0.8083  0.3018
   99MOL   C18229778   0.322   4.081   5.750  0.3976  0.4084  0.2526
   99MOL   C18329779   0.476   4.053   5.772  0.1220 -0.2024 -0.0363
   99MOL   C18429780   0.530   4.094   5.907 -0.1492  0.7545 -0.3927
   99MOL   O18529781   0.590   4.018   5.986 -0.5296 -0.6855  0.0447
   99MOL   O18629782   0.520   4.223   5.934 -0.4012  0.0224 -0.4114
   99MOL   C18729783   0.564   4.293   6.052  0.0059  0.3722  0.6186
   99MOL   C18829784   0.722   4.307   6.054  0.1302  0.2090 -0.5643
   99MOL   H18929785   0.305   4.067   5.644  0.2060 -0.1164  0.3516
   99MOL   H19029786   0.292   4.186   5.752  0.6618  0.4728  1.3539
   99MOL   H19129787   0.493   3.946   5.765 -0.6307 -0.2039 -1.8533
   99MOL   H19229788   0.505   4.382   6.034 -0.4496 -0.0758 -0.1603
   99MOL   H19329789   0.529   4.234   6.136 -3.1587 -0.5435 -1.2421
   99MOL   H19429790   0.754   4.339   6.153 -1.1232  1.3751 -0.5304
   99MOL   H19529791   0.750   4.376   5.975 -0.2534  0.9382 -0.0681
   99MOL   H19629792   0.763   4.208   6.030 -1.6433 -0.5514 -0.5598
   99MOL   C19729793   0.551   4.119   5.659 -0.3350 -0.2209  0.1821
   99MOL   C19829794   0.706   4.139   5.672 -0.2552 -0.1703 -0.5318
   99MOL   C19929795   0.743   4.265   5.587  0.3369  1.0267  0.3331
   99MOL   O20029796   0.807   4.255   5.484 -0.1891 -0.1107 -0.5037
   99MOL   O20129797   0.703   4.376   5.636  0.7430 -0.2219 -0.2387
   99MOL   C20229798   0.762   4.498   5.591 -0.3081 -0.6508  0.1192
   99MOL   C20329799   0.778   4.596   5.702  0.5477 -0.4766  0.1887
   99MOL   H20429800   0.525   4.064   5.568  3.4825 -1.1966 -0.4124
   99MOL   H20529801   0.510   4.219   5.651  0.4905  0.0159 -1.3910
   99MOL   H20629802   0.732   4.164   5.775  0.1815 -1.2970 -0.3566
   99MOL   H20729803   0.859   4.476   5.547 -0.4958 -1.4453  0.0935
   99MOL   H20829804   0.704   4.548   5.512  2.1127  0.3392 -1.0820
   99MOL   H20929805   0.807   4.694   5.665 -0.2006  0.0442  0.9940
   99MOL   H21029806   0.844   4.567   5.783  0.3196 -0.2291  0.4609
   99MOL   H21129807   0.683   4.619   5.748  1.1008  0.1807  1.0100
   99MOL   C21229808   0.788   4.004   5.628 -0.2477  0.4475 -0.4192
   99MOL   C21329809   0.821   3.908   5.750 -0.3148  0.8685  0.4270
   99MOL   C21429810   0.920   3.962   5.851 -0.1471  0.5289  0.1136
   99MOL   O21529811   0.977   4.074   5.848 -0.1702  0.0338 -0.0137
   99MOL   O21629812   0.945   3.871   5.953  0.0912  0.8864  1.0027
   99MOL   C21729813   1.022   3.900   6.064 -0.1898 -0.4155  0.0714
   99MOL   C21829814   0.954   3.836   6.190  0.3071  0.0547 -0.1903
   99MOL   H21929815   0.737   3.952   5.547 -0.1623  0.9103 -0.7735
   99MOL   H22029816   0.885   4.032   5.586 -0.8255  3.2884  0.0929
   99MOL   H22129817   0.724   3.891   5.798 -0.0091  1.0507  1.1148
   99MOL   H22229818   1.121   3.860   6.046 -0.2842 -1.3255  1.4797
   99MOL   H22329819   1.018   4.009   6.071 -1.8786 -0.2761 -2.3667
   99MOL   H22429820   0.965   3.727   6.189 -1.6082 -0.2006  1.6387
   99MOL   H22529821   0.852   3.873   6.200 -0.1361 -1.1758 -0.0414
   99MOL   H22629822   1.010   3.866   6.278 -1.0213  1.2354  0.2715
   99MOL   C22729823   0.876   3.772   5.695  0.0569  0.4837  0.0621
   99MOL   C22829824   0.772   3.688   5.615  0.3567  0.0434 -0.4374
   99MOL   C22929825   0.649   3.655   5.699 -0.0004 -0.7501  0.2379
   99MOL   O23029826   0.539   3.694   5.658 -0.1625 -0.5226  0.0441
   99MOL   O23129827   0.677   3.575   5.796  0.2982  0.0142 -0.1633
   99MOL   C23229828   0.576   3.489   5.857  0.1150  0.3928  0.1489
   99MOL   C23329829   0.529   3.383   5.753 -0.6641  0.3328  0.2690
   99MOL   H23429830   0.962   3.786   5.630 -0.9016 -0.8398 -1.5382
   99MOL   H23529831   0.916   3.713   5.778  0.1641  1.1538  0.4945
   99MOL   H23629832   0.744   3.748   5.528  2.4929 -0.5651 -1.5828
   99MOL   H23729833   0.621   3.445   5.946 -0.6365  1.3099  0.9875
   99MOL   H23829834   0.483   3.534   5.892 -0.3686 -0.3483 -0.1537
   99MOL   H23929835   0.503   3.289   5.801 -2.5821  0.7288  0.0292
   99MOL   H24029836   0.616   3.363   5.691 -0.6112  2.1711 -0.2735
   99MOL   H24129837   0.452   3.430   5.693 -0.2393 -0.1531 -0.6644
   99MOL   C24229838   0.833   3.564   5.539  0.4926 -0.4914 -0.4147
   99MOL   C24329839   0.753   3.504   5.427 -0.2062  0.7521 -0.1218
   99MOL   C24429840   0.774   3.352   5.409 -0.0685  0.2492 -0.0002
   99MOL   O24529841   0.691   3.275   5.449 -0.2680 -0.3790 -0.2929
   99MOL   O24629842   0.887   3.318   5.336 -0.0943 -0.0274 -0.2770
   99MOL   C24729843   0.940   3.189   5.345 -1.2655  0.1773 -0.0599
   99MOL   C24829844   1.049   3.179   5.455 -0.7090  0.0772  0.1177
   99MOL   H24929845   0.932   3.592   5.504  0.2229  1.4269  0.2867
   99MOL   H25029846   0.857   3.487   5.612  0.8918  1.4384  1.5318
   99MOL   H25129847   0.650   3.524   5.458 -0.1525  0.7979  0.0283
   99MOL   H25229848   0.866   3.111   5.366 -0.4412 -0.5820  0.0460
   99MOL   H25329849   0.984   3.177   5.247 -1.7754  1.0820 -0.4093
   99MOL   H25429850   1.121   3.097   5.450  0.9707  1.6011 -1.1458
   99MOL   H25529851   1.011   3.188   5.557 -0.0586 -3.2996  0.7325
   99MOL   H25629852   1.111   3.268   5.443  0.1688 -0.3613  1.1935
   99MOL   C25729853   0.783   3.577   5.288  0.4548  0.2106  0.0540
   99MOL   C25829854   0.686   3.551   5.170 -0.1664 -0.0421  0.0725
   99MOL   C25929855   0.736   3.604   5.037  0.1214 -0.9159 -0.0451
   99MOL   O26029856   0.735   3.725   5.016  0.0031  0.7134  0.4741
   99MOL   O26129857   0.806   3.512   4.959 -0.0129 -0.4571 -0.3998
   99MOL   C26229858   0.879   3.552   4.845  0.2144  0.1140 -0.3010
   99MOL   C26329859   0.805   3.515   4.718 -0.9475  0.4124  0.7617
   99MOL   H26429860   0.775   3.684   5.311  0.0116  0.0582  0.6115
   99MOL   H26529861   0.887   3.563   5.256  0.6628  2.0309 -0.1099
   99MOL   H26629862   0.695   3.443   5.158 -1.6074 -0.0203 -1.2971
   99MOL   H26729863   0.892   3.660   4.848 -1.9792  0.4364 -1.4114
   99MOL   H26829864   0.973   3.497   4.849  0.6818  0.7750 -1.7951
   99MOL   H26929865   0.867   3.548   4.635  0.0005 -3.8898 -0.3593
   99MOL   H27029866   0.708   3.564   4.728 -1.3738 -0.6084  1.8212
   99MOL   H27129867   0.801   3.407   4.710 -0.2204  0.1946  2.9653
   99MOL   C27229868   0.536   3.583   5.190 -0.6093 -0.5993 -0.3053
   99MOL   C27329869   0.441   3.497   5.093  0.4579  0.5668  0.1838
   99MOL   C27429870   0.428   3.565   4.957 -0.3127 -1.0927  0.6155
   99MOL   O27529871   0.473   3.507   4.856  0.3802  0.2009  0.4506
   99MOL   O27629872   0.369   3.683   4.968 -0.0527  0.2248  0.1913
   99MOL   C27729873   0.343   3.762   4.858 -0.3081 -0.0497  0.5192
   99MOL   C27829874   0.465   3.823   4.790  0.2752  0.0163  0.2436
   99MOL   H27929875   0.518   3.565   5.296  1.9405  0.7548  0.3973
   99MOL   H28029876   0.517   3.690   5.187  0.4864 -0.3915  0.1765
   99MOL   H28129877   0.496   3.403   5.083  1.5010  1.2123 -0.2589
   99MOL   H28229878   0.297   3.702   4.779  0.8257 -0.7153  0.3628
   99MOL   H28329879   0.273   3.840   4.890 -1.0775 -1.1815  1.6142
   99MOL   H28429880   0.548   3.757   4.766 -0.5054  0.2436 -3.3924
   99MOL   H28529881   0.510   3.891   4.862  0.3081  0.8964 -0.5992
   99MOL   H28629882   0.445   3.873   4.694  0.7484  0.7244  0.5096
   99MOL   C28729883   0.305   3.469   5.163 -0.3417 -0.0136  0.3653
   99MOL   C28829884   0.312   3.384   5.289  0.0919 -0.4713  1.2387
   99MOL   C28929885   0.335   3.241   5.258 -0.2768  0.7050 -0.7471
   99MOL   O29029886   0.340   3.189   5.148  0.4025  0.0966 -0.0361
   99MOL   O29129887   0.360   3.173   5.371  0.5121  0.0002  0.0850
   99MOL   C29229888   0.404   3.040   5.366 -0.6288  0.1974  0.0314
   99MOL   C29329889   0.309   2.927   5.371  0.0182 -0.3232 -0.1063
   99MOL   H29429890   0.264   3.564   5.197 -0.8579 -0.7664  1.8690
   99MOL   H29529891   0.224   3.439   5.097  0.7987 -0.4243 -0.8768
   99MOL   H29629892   0.375   3.429   5.367 -1.2823  1.8907  1.0409
   99MOL   H29729893   0.483   3.033   5.291 -0.1900 -0.4365  0.5348
   99MOL   H29829894   0.458   3.019   5.459 -0.3505 -0.5724 -0.2991
   99MOL   H29929895   0.273   2.897   5.470 -0.5832 -1.7068 -0.7242
   99MOL   H30029896   0.356   2.841   5.323 -0.1935 -0.6576  0.2794
   99MOL   H30129897   0.220   2.960   5.318  0.9646  4.1733  0.9184
   99MOL   H30229898   0.214   3.383   5.337 -1.2147  0.0564 -1.3552
  100MOL     C129899   5.981   4.995   7.571 -0.1528 -0.3655  0.5997
  100MOL     C229900   5.838   5.006   7.632 -0.3166 -0.1465 -0.0036
  100MOL     C329901   5.783   5.150   7.643 -0.2264 -0.1564 -0.2818
  100MOL     O429902   5.778   5.201   7.750 -0.1112 -0.3432  0.4200
  100MOL     O529903   5.751   5.202   7.523 -0.6965 -0.5732  0.2665
  100MOL     C629904   5.659   5.309   7.518 -0.0442  0.6305  0.7343
  100MOL     C729905   5.724   5.434   7.465 -0.3928 -0.1568  0.3882
  100MOL     H829906   6.000   4.901   7.520  2.6152  0.0901  0.7161
  100MOL     H929907   6.057   5.017   7.646 -1.2665 -1.3980  2.0549
  100MOL    H1029908   5.763   4.964   7.565 -0.4502 -1.1114  0.7351
  100MOL    H1129909   5.574   5.290   7.453  0.7989 -2.1847  0.4088
  100MOL    H1229910   5.612   5.332   7.614 -2.0523 -0.3179  0.0086
  100MOL    H1329911   5.646   5.509   7.448 -1.2161 -1.4468 -1.7678
  100MOL    H1429912   5.767   5.414   7.367  0.1543  0.7460  0.4290
  100MOL    H1529913   5.807   5.460   7.530 -0.3028  0.6235 -0.0248
  100MOL    H1629914   5.987   5.072   7.494  0.1975 -1.3813 -0.3986
  100MOL    C1729915   5.820   4.932   7.760 -0.5537  0.4279  0.1088
  100MOL    C1829916   5.840   4.780   7.755 -1.2268 -0.3933 -0.3908
  100MOL    C1929917   5.738   4.715   7.662  0.5334  0.0095  0.0001
  100MOL    O2029918   5.619   4.741   7.663  0.2084  0.5845  0.0225
  100MOL    O2129919   5.799   4.627   7.574 -0.0925 -0.4662 -0.0874
  100MOL    C2229920   5.718   4.560   7.476 -0.6943 -0.1575 -0.3861
  100MOL    C2329921   5.692   4.421   7.542 -0.2201  0.0651  0.1330
  100MOL    H2429922   5.903   4.972   7.819 -1.2570  0.1720  1.3058
  100MOL    H2529923   5.732   4.966   7.815 -0.8740 -0.4107  0.1184
  100MOL    H2629924   5.933   4.754   7.705 -1.8952 -0.9847 -1.3376
  100MOL    H2729925   5.624   4.607   7.447 -1.2124 -0.8629  0.1294
  100MOL    H2829926   5.764   4.549   7.377  1.5667  0.2850  0.5805
  100MOL    H2929927   5.611   4.369   7.491  0.3977  1.5724 -2.4785
  100MOL    H3029928   5.651   4.422   7.643 -0.1746 -0.1059  0.1541
  100MOL    H3129929   5.783   4.362   7.550 -0.6570 -0.9492 -1.8031
  100MOL    C3229930   5.843   4.716   7.894  0.2517 -0.0250  0.3046
  100MOL    C3329931   5.933   4.588   0.013 -0.2058 -0.5011 -0.1518
  100MOL    C3429932   6.083   4.626   7.908  0.0307 -0.5296  0.1679
  100MOL    O3529933   6.165   4.549   7.857 -0.0445  0.1916 -0.0598
  100MOL    O3629934   6.109   4.750   0.048  0.8715  0.1631  0.3748
  100MOL    C3729935   6.245   4.792   0.056  0.2655  0.5016 -0.3411
  100MOL    C3829936   6.274   4.901   7.861  0.2652 -0.1386  0.4521
  100MOL    H3929937   5.870   4.799   0.051  0.8949 -0.6602  0.8337
  100MOL    H4029938   5.741   4.703   0.022 -0.1764 -0.2607 -0.9528
  100MOL    H4129939   5.918   4.578   0.121 -0.4326  0.2381 -0.1144
  100MOL    H4229940   6.265   4.834   0.155 -2.2783 -0.9967  0.8685
  100MOL    H4329941   6.310   4.707   0.039 -0.8408 -0.7844  1.6888
  100MOL    H4429942   6.371   4.952   7.858  0.6269 -0.7772  0.9992
  100MOL    H4529943   6.204   4.984   7.861  0.9361  0.4677 -2.1925
  100MOL    H4629944   6.265   4.858   7.761  0.8878  0.0079  0.3298
  100MOL    C4729945   5.901   4.469   7.830  0.1537 -0.4692  0.3787
  100MOL    C4829946   5.947   4.320   7.863 -0.0984 -0.6396  0.3328
  100MOL    C4929947   5.972   4.234   7.736 -0.1894 -0.8112  0.3735
  100MOL    O5029948   5.934   4.116   7.723 -0.4005  0.7095 -0.3702
  100MOL    O5129949   6.047   4.296   7.646  0.3013 -0.2762 -0.3542
  100MOL    C5229950   6.077   4.236   7.522  0.1451 -0.6549  0.0170
  100MOL    C5329951   6.220   4.171   7.538  0.0402 -0.1261  0.1015
  100MOL    H5429952   5.792   4.473   7.827  0.1034 -0.0888  2.0513
  100MOL    H5529953   5.930   4.487   7.727 -0.5673 -0.4818  0.1668
  100MOL    H5629954   6.048   4.327   7.904 -0.5364 -2.7326  1.8710
  100MOL    H5729955   6.003   4.165   7.486 -1.3835  0.4175  0.9552
  100MOL    H5829956   6.080   4.316   7.448  0.8810  1.8148  2.6167
  100MOL    H5929957   6.243   4.117   7.446  1.4578 -1.2943  1.1267
  100MOL    H6029958   6.225   4.102   7.622  0.5045  0.6197  0.6913
  100MOL    H6129959   6.299   4.241   7.565  0.5738 -0.2351 -1.1474
  100MOL    C6229960   5.844   4.255   0.057 -0.0524  0.1360 -0.4177
  100MOL    C6329961   5.905   4.178   0.175 -0.1006 -0.4487  0.1146
  100MOL    C6429962   5.940   4.276   0.292 -0.4423 -0.2592 -0.3905
  100MOL    O6529963   5.887   4.271   0.406  0.1943  0.0769  0.4602
  100MOL    O6629964   6.031   4.368   0.246 -0.6079  0.6942 -0.2636
  100MOL    C6729965   6.091   4.465   0.338 -0.0728 -0.2360 -0.7488
  100MOL    C6829966   6.229   4.430   0.379 -0.4544  0.6762  0.1171
  100MOL    H6929967   5.770   4.322   0.101  1.4218  0.9034  0.9545
  100MOL    H7029968   5.774   4.184   0.012 -2.8775  1.7298  1.3151
  100MOL    H7129969   5.818   4.122   0.211 -1.1907 -0.0026 -1.7603
  100MOL    H7229970   6.090   4.565   0.294 -0.6000 -0.4405 -1.2123
  100MOL    H7329971   6.033   4.481   0.428  0.7218  1.4691 -0.5229
  100MOL    H7429972   6.256   4.470   0.477 -0.0395  3.1309 -0.9795
  100MOL    H7529973   6.292   4.473   0.302 -0.0446  0.0632  0.1062
  100MOL    H7629974   6.251   4.324   0.393 -0.5147  0.4568 -1.4106
  100MOL    C7729975   6.024   4.084   0.142 -0.0005  0.4054 -0.1366
  100MOL    C7829976   6.030   3.949   0.220  0.5649  0.2062 -0.0564
  100MOL    C7929977   6.175   3.919   0.259  0.0349  0.7311  0.3741
  100MOL    O8029978   6.197   3.874   0.374  0.2359 -0.2009 -0.4253
  100MOL    O8129979   6.262   3.926   0.163 -0.0192 -0.3678  0.1564
  100MOL    C8229980   6.393   3.869   0.170 -0.4008  0.4622 -0.9311
  100MOL    C8329981   6.481   3.872   0.047 -0.4415  0.4504 -0.2690
  100MOL    H8429982   6.024   4.061   0.036 -1.9421 -1.3237  0.2102
  100MOL    H8529983   6.114   4.142   0.164 -0.1366 -0.2439  2.2806
  100MOL    H8629984   5.973   3.958   0.312 -0.5670 -3.3111 -0.3366
  100MOL    H8729985   6.461   3.923   0.236  2.0433  1.2569 -3.9823
  100MOL    H8829986   6.373   3.766   0.200 -3.5449  1.2322 -0.2007
  100MOL    H8929987   6.573   3.819   0.074 -1.8884 -1.7639  0.4962
  100MOL    H9029988   6.504   3.968   0.001 -1.8915 -1.1257 -4.5280
  100MOL    H9129989   6.426   3.826   7.873 -1.1734 -0.4521  0.7071
  100MOL    C9229990   5.969   3.831   0.138 -0.1593  0.1126  0.1939
  100MOL    C9329991   5.823   3.854   0.084 -0.1584 -0.5286  0.0294
  100MOL    C9429992   5.719   3.877   0.194  0.4146 -0.2713  0.0441
  100MOL    O9529993   5.724   3.818   0.300  0.0553 -0.1790  0.3679
  100MOL    O9629994   5.625   3.958   0.152  0.1542 -0.3654  0.6072
  100MOL    C9729995   5.526   4.012   0.233  0.7476  0.3747 -0.1197
  100MOL    C9829996   5.393   3.943   0.213 -0.3248 -0.3117 -0.6523
  100MOL    H9929997   6.023   3.810   0.046  0.5253 -0.6877  0.7632
  100MOL   H10029998   5.969   3.738   0.195  0.8418 -1.3293 -2.0996
  100MOL   H10129999   5.817   3.939   0.017 -0.2674  1.1590  2.1219
  100MOL   H10230000   5.547   3.998   0.339  0.0972  1.4663  0.1624
  100MOL   H10330001   5.514   4.119   0.217 -1.8066  0.3294  1.1306
  100MOL   H10430002   5.411   3.856   0.150 -0.0259 -1.8042  1.4508
  100MOL   H10530003   5.324   4.011   0.163  1.4131  1.0612 -1.2626
  100MOL   H10630004   5.353   3.921   0.311  3.8930 -1.1168  1.0061
  100MOL   C10730005   5.792   3.747   7.891  0.1797  0.6182 -0.5580
  100MOL   C10830006   5.666   3.764   7.810  0.8463  0.5428  1.0410
  100MOL   C10930007   5.608   3.627   7.757 -0.5699 -0.4409 -0.5230
  100MOL   O11030008   5.492   3.591   7.780 -0.0735  0.3641 -0.1881
  100MOL   O11130009   5.697   3.564   7.684 -0.3036 -0.1427  0.2829
  100MOL   C11230010   5.663   3.431   7.633 -0.7396 -0.1674  0.3264
  100MOL   C11330011   5.707   3.331   7.738  0.3810 -0.6367 -0.1611
  100MOL   H11430012   5.876   3.720   7.827  1.1034  2.4929 -0.1432
  100MOL   H11530013   5.772   3.669   0.056 -1.0618  0.6193 -0.8882
  100MOL   H11630014   5.586   3.807   7.870 -1.4140 -1.9405 -0.1137
  100MOL   H11730015   5.559   3.423   7.604 -1.0685  0.9972  1.1619
  100MOL   H11830016   5.718   3.420   7.540 -0.1446 -2.1822  0.8718
  100MOL   H11930017   5.710   3.239   7.679  0.3077 -1.5334  1.2200
  100MOL   H12030018   5.640   3.316   7.822 -0.6855  1.7782 -0.5552
  100MOL   H12130019   5.809   3.352   7.771  0.0815 -0.5417  0.6850
  100MOL   C12230020   5.684   3.855   7.687  0.3167  0.0472  0.9663
  100MOL   C12330021   5.563   3.939   7.642  0.3760  0.8462 -0.5645
  100MOL   C12430022   5.558   3.945   7.488  0.9469  0.0208  0.3803
  100MOL   O12530023   5.586   4.051   7.428  0.6602  0.3265  0.0570
  100MOL   O12630024   5.531   3.834   7.420  0.1089 -0.3763 -0.2440
  100MOL   C12730025   5.551   3.828   7.279 -0.8548  0.1101  0.3248
  100MOL   C12830026   5.585   3.679   7.250  0.3122 -0.5325 -0.1599
  100MOL   H12930027   5.760   3.929   7.714  0.3198  0.9241 -1.3608
  100MOL   H13030028   5.721   3.784   7.612 -1.1821 -0.9336  1.1392
  100MOL   H13130029   5.471   3.883   7.654 -0.2685  1.8633 -0.6756
  100MOL   H13230030   5.462   3.869   7.233  0.0321  0.0454 -1.4624
  100MOL   H13330031   5.640   3.886   7.257  1.0227 -3.0016 -0.5922
  100MOL   H13430032   5.687   3.655   7.280 -0.1763 -0.7214  1.4331
  100MOL   H13530033   5.596   3.668   7.142 -1.2639 -0.8477 -0.2984
  100MOL   H13630034   5.521   3.602   7.293  3.8170 -2.3445  2.0579
  100MOL   C13730035   5.545   4.076   7.711  0.9227 -0.1774 -0.8079
  100MOL   C13830036   5.413   4.160   7.690  0.3707 -0.0985 -0.3915
  100MOL   C13930037   5.424   4.298   7.755 -0.0668 -1.0034 -0.5961
  100MOL   O14030038   5.496   4.311   7.854  0.1673 -0.0969  0.0992
  100MOL   O14130039   5.346   4.387   7.698 -0.0033  0.4046  0.1456
  100MOL   C14230040   5.336   4.517   7.755 -0.1592  0.2572  0.0095
  100MOL   C14330041   5.201   4.554   7.798 -0.2425  0.3791 -0.5786
  100MOL   H14430042   5.558   4.059   7.818 -0.4476 -0.8115 -0.7315
  100MOL   H14530043   5.636   4.133   7.690  2.8885 -3.1064 -0.5840
  100MOL   H14630044   5.389   4.179   7.586 -3.6217  1.4692  0.7139
  100MOL   H14730045   5.405   4.527   7.839 -0.9500  1.4558  0.5265
  100MOL   H14830046   5.372   4.590   7.682 -0.9994 -0.9811 -1.7021
  100MOL   H14930047   5.122   4.557   7.722  1.1062 -1.7087 -2.1148
  100MOL   H15030048   5.208   4.657   7.834  0.8429 -0.5005  1.7909
  100MOL   H15130049   5.164   4.495   7.882 -1.4477  1.0639 -0.6059
  100MOL   C15230050   5.298   4.084   7.759  0.4665 -0.1903 -0.2763
  100MOL   C15330051   5.154   4.110   7.708 -0.9320 -0.1214  1.0068
  100MOL   C15430052   5.047   4.048   7.797 -0.3133 -0.3764  0.2030
  100MOL   O15530053   4.988   4.121   7.862  0.1318 -0.6670  0.0264
  100MOL   O15630054   5.038   3.922   7.782  0.1657  0.2105 -0.1308
  100MOL   C15730055   4.959   3.841   7.865  0.2549 -0.2652  0.2384
  100MOL   C15830056   5.054   3.752   0.040  0.0042  0.2965  0.0449
  100MOL   H15930057   5.320   3.979   7.741  0.2633  0.3658 -4.5257
  100MOL   H16030058   5.298   4.097   7.867 -1.5791  0.0252 -0.2901
  100MOL   H16130059   5.141   4.218   7.719 -1.9433 -0.1826  0.5416
  100MOL   H16230060   4.896   3.891   0.030  0.7431  1.6844 -0.6297
  100MOL   H16330061   4.895   3.785   7.797  2.3681 -0.8678 -1.3015
  100MOL   H16430062   5.107   3.673   7.896  1.1025  0.0779  1.4666
  100MOL   H16530063   4.994   3.697   0.113  2.5783 -0.1530  1.8842
  100MOL   H16630064   5.117   3.817   0.100 -0.7804  2.5024 -1.4518
  100MOL   C16730065   5.130   4.088   7.556 -0.1528 -0.5479 -0.6933
  100MOL   C16830066   5.148   4.211   7.466  0.1782  0.0605 -0.2991
  100MOL   C16930067   5.017   4.289   7.468 -0.2883 -0.4346  0.6243
  100MOL   O17030068   4.951   4.276   7.369 -0.3242 -0.0784 -0.8154
  100MOL   O17130069   5.004   4.369   7.578  0.0478  0.0718  0.7934
  100MOL   C17230070   4.883   4.446   7.588 -0.6124  0.3115 -0.3907
  100MOL   C17330071   4.832   4.457   7.734  0.0864  0.3870  0.0875
  100MOL   H17430072   5.201   4.014   7.519  1.3096  0.6430 -0.2953
  100MOL   H17530073   5.030   4.047   7.546 -0.8933  0.9830  0.2846
  100MOL   H17630074   5.222   4.275   7.514  0.3998 -1.4597  1.4420
  100MOL   H17730075   4.897   4.535   7.528  4.4679 -0.8477 -1.1488
  100MOL   H17830076   4.799   4.411   7.528 -1.7864 -1.2911  2.0512
  100MOL   H17930077   4.737   4.511   7.741  0.2167  1.0738 -2.6280
  100MOL   H18030078   4.895   4.521   7.796  0.4443  2.5164 -2.3805
  100MOL   H18130079   4.825   4.357   7.776  3.7746  0.1254  0.2457
  100MOL   C18230080   5.215   4.185   7.325  0.4682  0.5069  0.4584
  100MOL   C18330081   5.295   4.303   7.271  0.5177 -0.3481  0.2696
  100MOL   C18430082   5.215   4.423   7.242 -0.0958  0.5989 -0.0475
  100MOL   O18530083   5.178   4.442   7.125  0.0235 -0.3118  0.8982
  100MOL   O18630084   5.187   4.501   7.354 -0.1949  0.3604  0.1060
  100MOL   C18730085   5.166   4.635   7.333 -0.2128 -0.1555 -0.1495
  100MOL   C18830086   5.248   4.733   7.412 -0.7463  0.1905 -0.0659
  100MOL   H18930087   5.278   4.096   7.329 -0.1406  0.0866  0.6551
  100MOL   H19030088   5.137   4.152   7.257  0.0786 -1.7781  1.9476
  100MOL   H19130089   5.371   4.330   7.345  2.2023 -1.6576 -0.9224
  100MOL   H19230090   5.166   4.668   7.229  1.8457  1.9202  0.4625
  100MOL   H19330091   5.062   4.647   7.366  0.6778  1.6546  2.1419
  100MOL   H19430092   5.224   4.830   7.369 -0.2750  0.1606 -0.3950
  100MOL   H19530093   5.354   4.717   7.392 -0.9244 -0.2748 -0.6529
  100MOL   H19630094   5.237   4.733   7.520 -2.7542 -0.0216 -0.2559
  100MOL   C19730095   5.384   4.257   7.148 -0.2721  0.0966  0.4125
  100MOL   C19830096   5.522   4.323   7.151 -0.5424  0.3098 -0.9915
  100MOL   C19930097   5.527   4.470   7.116 -0.2101  0.4835 -0.1953
  100MOL   O20030098   5.583   4.544   7.193 -0.0117 -0.0402 -0.5065
  100MOL   O20130099   5.475   4.503   6.999  0.1061  0.3433  0.7590
  100MOL   C20230100   5.477   4.641   6.955  0.5292 -0.2212 -0.0139
  100MOL   C20330101   5.591   4.664   6.857  0.0416  0.1900  0.7776
  100MOL   H20430102   5.392   4.149   7.159  1.4750  0.2383  0.6997
  100MOL   H20530103   5.334   4.268   7.052 -0.6486  0.1283  0.6138
  100MOL   H20630104   5.552   4.318   7.255 -1.1547  0.5678 -0.8020
  100MOL   H20730105   5.376   4.663   6.920  0.3389 -0.7765  0.1695
  100MOL   H20830106   5.501   4.694   7.047  0.6032 -1.6364  0.8053
  100MOL   H20930107   5.585   4.757   6.801 -2.4145 -0.5818 -0.3286
  100MOL   H21030108   5.584   4.583   6.785  1.3298  1.3546 -0.6809
  100MOL   H21130109   5.688   4.655   6.906 -0.5916  1.8856  2.4100
  100MOL   C21230110   5.624   4.252   7.063  0.0979  0.2524  0.1071
  100MOL   C21330111   5.757   4.213   7.136 -0.1766  0.3924  0.0318
  100MOL   C21430112   5.857   4.326   7.154  0.1260  0.0343 -0.6594
  100MOL   O21530113   5.899   4.364   7.266  0.8485 -0.0771 -0.4210
  100MOL   O21630114   5.897   4.387   7.042 -0.0247  0.3255  0.4215
  100MOL   C21730115   6.001   4.486   7.046 -0.1009  0.5116  0.0589
  100MOL   C21830116   5.943   4.635   7.060 -0.3381  0.7600 -0.1332
  100MOL   H21930117   5.576   4.162   7.025  0.4272  1.3554 -3.0648
  100MOL   H22030118   5.648   4.312   6.975 -3.2604  0.7018 -0.5883
  100MOL   H22130119   5.721   4.211   7.238 -2.0010 -0.3470 -0.6146
  100MOL   H22230120   6.084   4.456   7.110  1.4148 -0.4200 -2.2748
  100MOL   H22330121   6.050   4.486   6.948 -1.4667  1.0650 -0.6293
  100MOL   H22430122   5.875   4.644   7.145  1.1886 -1.9468  1.4550
  100MOL   H22530123   5.888   4.655   6.968  1.5239  0.5058 -1.3265
  100MOL   H22630124   6.023   4.709   7.057  2.1906 -1.9314 -2.3753
  100MOL   C22730125   5.821   4.080   7.099  0.3756 -0.3694  0.6289
  100MOL   C22830126   5.890   4.071   6.960  0.0102 -0.3947 -0.1935
  100MOL   C22930127   5.774   4.055   6.853 -0.1284  0.4945 -0.3750
  100MOL   O23030128   5.771   4.133   6.757  0.0116  0.2515  0.1933
  100MOL   O23130129   5.677   3.967   6.880  0.5137  0.2913  0.5037
  100MOL   C23230130   5.586   3.940   6.775 -0.4885 -0.0517 -0.5883
  100MOL   C23330131   5.473   3.874   6.841 -0.2711  0.1956  0.1203
  100MOL   H23430132   5.906   4.063   7.165 -0.1672  3.6398  2.4964
  100MOL   H23530133   5.741   4.007   7.115  0.7376 -0.5543  1.6711
  100MOL   H23630134   5.954   4.158   6.942  0.7795 -0.7518  0.7704
  100MOL   H23730135   5.544   4.027   6.725 -0.6628  0.6678  0.7766
  100MOL   H23830136   5.629   3.873   6.700  0.3902 -1.1739  0.8865
  100MOL   H23930137   5.506   3.779   6.885  1.8609  1.5910  1.5968
  100MOL   H24030138   5.390   3.855   6.772 -1.5201 -0.2961  1.7403
  100MOL   H24130139   5.441   3.940   6.921 -1.3875  0.8084 -0.8130
  100MOL   C24230140   5.989   3.960   6.937  0.1470 -0.3331  0.4931
  100MOL   C24330141   5.968   3.823   7.004 -0.1624  0.0765  0.2684
  100MOL   C24430142   6.020   3.824   7.147  0.5140  0.9106  0.8227
  100MOL   O24530143   5.943   3.792   7.236  0.4346 -0.6767 -0.1867
  100MOL   O24630144   6.145   3.875   7.161 -0.3814  0.0346  0.5375
  100MOL   C24730145   6.207   3.854   7.283 -0.0446  0.0316 -0.2234
  100MOL   C24830146   6.313   3.745   7.266  0.7409 -0.2782 -0.2548
  100MOL   H24930147   5.998   3.929   6.832 -1.3879  2.6563 -0.5808
  100MOL   H25030148   6.085   4.007   6.956  0.1491 -0.1669  0.0811
  100MOL   H25130149   5.863   3.794   7.003  0.0255 -0.6038 -0.1251
  100MOL   H25230150   6.263   3.947   7.295  2.2086 -1.4456  1.3761
  100MOL   H25330151   6.139   3.829   7.364  0.9137  0.9086  0.8670
  100MOL   H25430152   6.286   3.646   7.302  0.9297  0.1579  1.1423
  100MOL   H25530153   6.398   3.784   7.323  0.5846 -1.2946  0.6863
  100MOL   H25630154   6.340   3.751   7.161 -0.4455 -0.5289 -0.5750
  100MOL   C25730155   6.037   3.708   6.928  0.2302 -0.2017  0.5107
  100MOL   C25830156   5.969   3.663   6.797  0.4700  0.3937 -0.0511
  100MOL   C25930157   5.847   3.573   6.821 -0.5840  0.1643  0.4765
  100MOL   O26030158   5.829   3.512   6.925  0.3819 -0.4543  0.0865
  100MOL   O26130159   5.782   3.558   6.708 -0.1852  0.0685  0.1275
  100MOL   C26230160   5.663   3.481   6.713 -0.1952  0.4653  0.5972
  100MOL   C26330161   5.547   3.567   6.656 -0.1308 -0.1638  0.1362
  100MOL   H26430162   6.141   3.742   6.922 -0.3353  1.2322 -1.5509
  100MOL   H26530163   6.046   3.614   6.983 -0.2995 -0.4076  0.2490
  100MOL   H26630164   5.910   3.746   6.757 -2.2254 -0.6180  1.6615
  100MOL   H26730165   5.667   3.386   6.658 -0.0066  1.6458 -1.4731
  100MOL   H26830166   5.630   3.458   6.814 -0.0345  1.7607  0.9487
  100MOL   H26930167   5.502   3.636   6.728  0.7432  1.3043 -0.6881
  100MOL   H27030168   5.462   3.505   6.628  1.1141 -1.9888  0.3257
  100MOL   H27130169   5.581   3.618   6.566  0.5262  0.1232  0.5426
  100MOL   C27230170   6.055   3.606   6.684 -0.4830  0.1184  0.1430
  100MOL   C27330171   6.159   3.498   6.713 -0.0059 -0.2284  0.8296
  100MOL   C27430172   6.295   3.552   6.763  0.8879  0.1664  0.0520
  100MOL   O27530173   6.360   3.514   6.858 -0.1228 -0.0076 -0.1527
  100MOL   O27630174   6.349   3.643   6.674 -0.6077 -0.4016  0.1456
  100MOL   C27730175   6.466   3.712   6.703  0.1059  0.6775 -0.1462
  100MOL   C27830176   6.429   3.855   6.726 -0.3439 -0.3068  0.4810
  100MOL   H27930177   5.990   3.576   6.602  0.9022  1.2932 -1.4199
  100MOL   H28030178   6.115   3.680   6.631 -0.8868  1.7081  1.8610
  100MOL   H28130179   6.128   3.429   6.791  2.4679 -0.9312  1.2344
  100MOL   H28230180   6.532   3.678   6.782 -0.8071  0.2359  0.4301
  100MOL   H28330181   6.528   3.707   6.613  0.4875  0.0242  0.1540
  100MOL   H28430182   6.383   3.902   6.639 -1.1463  0.4584  1.3231
  100MOL   H28530183   6.510   3.921   6.758 -0.2533 -0.6533  0.9649
  100MOL   H28630184   6.347   3.865   6.797  0.6243  0.3741  1.5070
  100MOL   C28730185   6.180   3.419   6.583  0.0640  0.0527  1.4053
  100MOL   C28830186   6.263   3.289   6.602 -0.3431  0.1260  0.1790
  100MOL   C28930187   6.245   3.190   6.489  0.3734 -0.1956  0.1335
  100MOL   O29030188   6.208   3.232   6.381  0.5015 -0.2425 -0.4256
  100MOL   O29130189   6.287   3.065   6.519  0.8058  0.5154 -0.0709
  100MOL   C29230190   6.288   2.961   6.421 -0.2681  0.1988 -0.2096
  100MOL   C29330191   6.161   2.886   6.438 -0.1170  0.3529 -0.4657
  100MOL   H29430192   6.080   3.391   6.552  0.2042 -0.6137  1.5440
  100MOL   H29530193   6.226   3.485   6.509  1.3191 -0.1861  1.9539
  100MOL   H29630194   6.369   3.309   6.618  0.0052 -1.0856 -0.5780
  100MOL   H29730195   6.288   3.015   6.326  1.1068  1.8622  0.7048
  100MOL   H29830196   6.382   2.906   6.426  0.2669  0.8939 -2.0923
  100MOL   H29930197   6.075   2.935   6.394  0.5356  1.7733 -0.2065
  100MOL   H30030198   6.150   2.867   6.545 -1.2466 -0.1783 -0.6712
  100MOL   H30130199   6.163   2.787   6.393 -0.0578  0.4845 -0.7493
  100MOL   H30230200   6.227   3.238   6.692  2.5404 -0.3817  1.0870
  101MOL     C130201   2.069   0.944   3.887  0.4772 -0.2278  0.4993
  101MOL     C230202   2.145   0.936   3.752 -0.9432 -0.5535 -0.1643
  101MOL     C330203   2.066   0.985   3.632  0.2459  0.0304 -0.0586
  101MOL     O430204   2.091   1.094   3.582  0.9424 -0.5849 -0.4259
  101MOL     O530205   1.967   0.903   3.597  0.1003 -0.2062  0.0089
  101MOL     C630206   1.871   0.944   3.496 -0.5754  0.9168  0.2375
  101MOL     C730207   1.751   0.854   3.491 -0.5846 -0.6294 -0.4556
  101MOL     H830208   2.134   0.929   3.974  0.7342 -1.6444  0.0772
  101MOL     H930209   1.984   0.876   3.894 -0.2526  0.7614  1.2779
  101MOL    H1030210   2.219   1.016   3.761 -1.2886 -0.0863 -1.4561
  101MOL    H1130211   1.817   1.031   3.533 -1.0523  0.7874 -0.1333
  101MOL    H1230212   1.912   0.964   3.397 -1.6594 -0.0936 -0.4315
  101MOL    H1330213   1.715   0.828   3.591  0.4212  1.3003  0.4411
  101MOL    H1430214   1.782   0.758   3.451 -1.2721 -1.5093  1.1007
  101MOL    H1530215   1.673   0.884   3.421 -2.8637 -0.4669  2.0343
  101MOL    H1630216   2.029   1.044   3.901 -0.1891 -0.1918 -1.5499
  101MOL    C1730217   2.210   0.795   3.726 -0.1705  0.7588 -0.0921
  101MOL    C1830218   2.339   0.776   3.801 -0.1234 -0.2580 -0.7660
  101MOL    C1930219   2.459   0.854   3.734 -0.7520  0.3338  0.4029
  101MOL    O2030220   2.478   0.972   3.759  0.0321  0.6329  0.2311
  101MOL    O2130221   2.529   0.780   3.651 -0.1912  0.0724  0.2295
  101MOL    C2230222   2.652   0.828   3.598  0.3565  0.5046  0.3401
  101MOL    C2330223   2.736   0.706   3.588 -0.2335 -0.2086  0.2048
  101MOL    H2430224   2.132   0.725   3.754 -1.5895  1.3901 -2.3142
  101MOL    H2530225   2.224   0.795   3.618 -1.0553  0.6357 -0.2070
  101MOL    H2630226   2.334   0.832   3.895 -0.0605  1.7107 -1.9279
  101MOL    H2730227   2.647   0.883   3.504  2.7180  0.5013  0.1821
  101MOL    H2830228   2.693   0.912   3.653  1.8871 -0.0255  0.0392
  101MOL    H2930229   2.832   0.724   3.540 -0.7732  1.5924 -0.2180
  101MOL    H3030230   2.680   0.616   3.560  0.1757 -0.9784  1.7436
  101MOL    H3130231   2.771   0.675   3.687  0.9183 -0.6563 -0.3319
  101MOL    C3230232   2.382   0.633   3.835 -0.2694 -0.1990 -0.5571
  101MOL    C3330233   2.285   0.556   3.935 -0.0047 -1.4041 -0.3611
  101MOL    C3430234   2.272   0.630   4.070  0.6078 -0.0553  0.4515
  101MOL    O3530235   2.355   0.704   4.110 -0.0776  0.1340  0.0211
  101MOL    O3630236   2.151   0.606   4.131 -0.5640 -0.1305  0.2177
  101MOL    C3730237   2.126   0.658   4.257  0.0879 -0.8184  0.4348
  101MOL    C3830238   2.129   0.552   4.368  0.3647  0.1364  0.2150
  101MOL    H3930239   2.411   0.574   3.748 -1.0115 -0.2840 -0.7510
  101MOL    H4030240   2.472   0.646   3.895 -1.0002  2.3447  0.0600
  101MOL    H4130241   2.181   0.557   3.902 -0.8632  1.0298  2.2095
  101MOL    H4230242   2.198   0.737   4.278  0.3038 -0.1694 -2.5350
  101MOL    H4330243   2.033   0.713   4.253 -0.2828 -1.4568  0.1199
  101MOL    H4430244   2.043   0.485   4.363  0.1052  0.3219  1.8476
  101MOL    H4530245   2.124   0.605   4.463 -2.7978  2.2431 -1.0432
  101MOL    H4630246   2.220   0.493   4.377  0.0814 -0.1290  1.4140
  101MOL    C4730247   2.330   0.414   3.953 -0.0982 -0.2849  0.7615
  101MOL    C4830248   2.285   0.322   3.836 -0.6187  0.2734  0.3580
  101MOL    C4930249   2.135   0.283   3.848 -0.3680  0.0564  0.1573
  101MOL    O5030250   2.053   0.344   3.790  0.0639 -0.2207  0.3546
  101MOL    O5130251   2.113   0.177   3.923  0.1395 -0.1131 -0.9722
  101MOL    C5230252   1.984   0.137   3.945 -0.5366  0.0636 -0.5875
  101MOL    C5330253   1.948   0.186   4.082  0.2467  0.4676 -0.2301
  101MOL    H5430254   2.439   0.411   3.961 -0.0137  0.6869  0.0509
  101MOL    H5530255   2.298   0.372   4.049  2.2241 -0.6647  1.3935
  101MOL    H5630256   2.294   0.375   3.741  0.4052 -0.2214  0.1756
  101MOL    H5730257   1.907   0.167   3.874 -0.5839 -0.1361 -0.6217
  101MOL    H5830258   1.987   0.028   3.948  2.5786  0.1186 -0.7826
  101MOL    H5930259   1.848   0.141   4.091 -0.5263  2.2441  0.2077
  101MOL    H6030260   1.944   0.295   4.083 -1.5670  0.4322  2.0021
  101MOL    H6130261   2.011   0.153   4.165 -1.1168 -1.5133  0.0733
  101MOL    C6230262   2.387   0.206   3.820 -0.6491 -0.2400  0.0800
  101MOL    C6330263   2.426   0.149   3.677 -0.2126 -0.4275  0.1807
  101MOL    C6430264   2.487   0.262   3.595  0.3238  0.0590 -0.4674
  101MOL    O6530265   2.605   0.291   3.618 -1.2138 -0.6009 -0.1247
  101MOL    O6630266   2.396   0.332   3.524 -0.7084 -0.8407 -0.3579
  101MOL    C6730267   2.426   0.452   3.456  0.9383 -0.0333  0.1691
  101MOL    C6830268   2.284   0.526   3.465  0.0043  0.1253 -0.6552
  101MOL    H6930269   2.476   0.248   3.866 -0.6699  0.6242 -0.6630
  101MOL    H7030270   2.356   0.126   3.889 -1.5198 -0.0208 -0.0449
  101MOL    H7130271   2.515   0.087   3.683  1.3217  1.6067 -0.6647
  101MOL    H7230272   2.504   0.504   3.511  1.6917 -0.6808 -0.2839
  101MOL    H7330273   2.467   0.437   3.356  2.2327  0.3378  0.6408
  101MOL    H7430274   2.291   0.628   3.428  0.8803  0.5922  0.7377
  101MOL    H7530275   2.243   0.515   3.566  0.3206  0.3104 -0.5029
  101MOL    H7630276   2.216   0.467   3.404  0.2883 -1.2290  0.3111
  101MOL    C7730277   2.309   0.070   3.616 -0.7316  0.0492 -0.0431
  101MOL    C7830278   2.349   0.017   3.474  0.1245 -0.0246 -0.4753
  101MOL    C7930279   2.230   0.006   3.379 -0.1734 -0.3874 -0.3000
  101MOL    O8030280   2.158   7.818   3.386  0.2506 -0.8828 -0.1202
  101MOL    O8130281   2.223   0.106   3.283  0.9090  0.5481 -0.0612
  101MOL    C8230282   2.110   0.126   3.197 -0.3825  0.1736  0.1551
  101MOL    C8330283   2.081   0.273   3.168 -0.1482 -0.1091  0.4142
  101MOL    H8430284   2.282   7.892   3.678  1.6911  0.1286  1.1984
  101MOL    H8530285   2.228   0.141   3.601 -0.7015  0.4785  1.7099
  101MOL    H8630286   2.419   0.086   3.426  1.2203 -0.1679  0.8595
  101MOL    H8730287   2.151   0.093   3.101  0.1138  0.0269  0.4176
  101MOL    H8830288   2.022   0.066   3.223 -1.3061  1.3378 -0.2396
  101MOL    H8930289   2.160   0.335   3.126 -0.7514  0.4606  0.1337
  101MOL    H9030290   2.056   0.316   3.265 -1.3180 -0.4697  0.2784
  101MOL    H9130291   1.998   0.278   3.098  0.4945 -0.2673 -0.3710
  101MOL    C9230292   2.431   7.797   3.481 -0.0389  0.1494 -0.5630
  101MOL    C9330293   2.564   7.768   3.398  0.0387 -0.7925  0.9896
  101MOL    C9430294   2.673   7.873   3.417 -0.9346 -0.8735 -0.0658
  101MOL    O9530295   2.656   0.083   3.375 -0.2711  0.4017 -0.6069
  101MOL    O9630296   2.775   7.830   3.474 -0.5085  0.6284  0.1842
  101MOL    C9730297   2.884   0.010   3.505  0.2966 -0.2658  1.0491
  101MOL    C9830298   2.877   0.062   3.651 -0.0180  0.5480  0.0079
  101MOL    H9930299   2.463   7.780   3.584 -0.1799 -0.4994 -0.6252
  101MOL   H10030300   2.362   7.714   3.463 -2.9900  1.4451  3.8330
  101MOL   H10130301   2.596   7.667   3.427  1.7210 -0.5299  0.1299
  101MOL   H10230302   2.973   7.858   3.493  0.5830 -0.3039  3.2549
  101MOL   H10330303   2.897   0.089   3.431  1.4093 -0.2627  1.2492
  101MOL   H10430304   2.777   0.101   3.670 -1.1679 -0.6307 -3.2587
  101MOL   H10530305   2.945   0.147   3.655 -0.7868  1.3455 -2.4848
  101MOL   H10630306   2.888   7.896   3.729  1.5470  1.0643  0.2882
  101MOL   C10730307   2.538   7.757   3.243 -0.6187  0.3446  0.0703
  101MOL   C10830308   2.663   7.691   3.161 -0.0681 -0.4616 -0.2126
  101MOL   C10930309   2.651   7.719   3.011 -0.1375 -0.1132 -0.0129
  101MOL   O11030310   2.539   7.739   2.960 -0.5136 -0.3604  0.3384
  101MOL   O11130311   2.774   7.723   2.949 -0.7166  0.1489 -0.2286
  101MOL   C11230312   2.781   7.746   2.813  0.3644 -0.4515  0.0085
  101MOL   C11330313   2.803   7.894   2.775 -0.4058  0.7379  0.5607
  101MOL   H11430314   2.460   7.684   3.221 -1.4203  0.2423  3.0284
  101MOL   H11530315   2.498   7.854   3.213 -3.7803  0.0574  2.9887
  101MOL   H11630316   2.753   7.744   3.189  1.0299 -1.7697 -1.1977
  101MOL   H11730317   2.878   7.700   2.789  0.7417 -0.3686  1.3515
  101MOL   H11830318   2.694   7.704   2.763  0.0757  1.1153 -0.8327
  101MOL   H11930319   2.909   0.007   2.782 -0.5278  1.0596  1.4854
  101MOL   H12030320   2.757   0.057   2.843  1.7121  0.6426  2.1276
  101MOL   H12130321   2.761   0.008   2.677  0.0125 -0.8121  0.0123
  101MOL   C12230322   2.668   7.538   3.173  0.3835  0.6480 -0.0434
  101MOL   C12330323   2.792   7.498   3.268  0.3004 -0.1893 -0.7479
  101MOL   C12430324   2.927   7.522   3.199 -0.2483  0.1176 -0.2979
  101MOL   O12530325   2.984   7.630   3.203 -0.4537 -0.4285  0.2474
  101MOL   O12630326   2.979   7.413   3.133 -0.3159  0.0003  0.2777
  101MOL   C12730327   3.122   7.419   3.079  0.7586  0.0675  0.1288
  101MOL   C12830328   3.134   7.475   2.939 -0.7894  0.1167  0.2960
  101MOL   H12930329   2.572   7.493   3.196  1.3953 -2.1857 -1.1329
  101MOL   H13030330   2.690   7.489   3.078 -1.9426  0.3268 -0.4273
  101MOL   H13130331   2.809   7.575   3.344 -0.9529 -0.7774  0.1558
  101MOL   H13230332   3.185   7.478   3.146  0.6611  1.3094 -0.8438
  101MOL   H13330333   3.166   7.319   3.074  1.4704  0.3571  0.5118
  101MOL   H13430334   3.076   7.405   2.880 -1.9750  1.1636  0.1965
  101MOL   H13530335   3.237   7.498   2.912 -0.3838 -0.0764  1.6481
  101MOL   H13630336   3.087   7.573   2.930 -0.2554  0.4526  1.0765
  101MOL   C13730337   2.773   7.355   3.327  0.5158 -0.8939 -0.1572
  101MOL   C13830338   2.655   7.337   3.427 -0.1645  0.2052  0.2688
  101MOL   C13930339   2.663   7.429   3.553 -0.7533  0.1168  0.5408
  101MOL   O14030340   2.563   7.476   3.605  0.2172 -0.4776  0.1177
  101MOL   O14130341   2.776   7.445   3.600  0.5904  0.6232  0.0187
  101MOL   C14230342   2.799   7.549   3.690 -0.4798  0.8201  0.6458
  101MOL   C14330343   2.934   7.533   3.761 -0.4615  0.2146 -0.3182
  101MOL   H14430344   2.772   7.290   3.239 -2.3318  0.5570 -1.2878
  101MOL   H14530345   2.871   7.340   3.372  1.0930  0.1670 -1.0356
  101MOL   H14630346   2.570   7.392   3.388  0.1618  0.5694  0.0593
  101MOL   H14730347   2.799   7.646   3.639  0.2341 -0.2339 -1.4131
  101MOL   H14830348   2.724   7.561   3.769 -1.1621  0.8440  0.0004
  101MOL   H14930349   3.016   7.525   3.690 -0.4513  0.4586 -0.3356
  101MOL   H15030350   2.928   7.445   3.825  0.1382 -0.1381 -0.7446
  101MOL   H15130351   2.950   7.622   3.822 -0.6236  0.7557 -1.0602
  101MOL   C15230352   2.616   7.192   3.470 -0.5597  0.0317 -0.1667
  101MOL   C15330353   2.714   7.117   3.557  1.5515  0.3886  0.0085
  101MOL   C15430354   2.841   7.075   3.482 -0.1495 -0.3428  0.6033
  101MOL   O15530355   2.843   6.973   3.413 -0.4689  0.1682 -0.8137
  101MOL   O15630356   2.954   7.149   3.517 -0.3054 -0.3057  0.2709
  101MOL   C15730357   3.076   7.111   3.455 -0.6913  0.4447  0.3972
  101MOL   C15830358   3.096   7.189   3.325 -0.0585  0.3850 -0.4341
  101MOL   H15930359   2.519   7.199   3.519 -0.1708 -0.0121  0.6140
  101MOL   H16030360   2.586   7.148   3.375 -1.5478 -0.0891  0.1997
  101MOL   H16130361   2.756   7.180   3.636 -1.8274  0.8884  1.4949
  101MOL   H16230362   3.160   7.134   3.520  0.7714 -1.5826 -0.7190
  101MOL   H16330363   3.079   7.007   3.424 -1.2093  1.0380 -1.7566
  101MOL   H16430364   3.187   7.150   3.280  1.0822 -0.1367  2.1988
  101MOL   H16530365   3.122   7.291   3.353  2.3648 -0.4498  0.5693
  101MOL   H16630366   3.015   7.189   3.253 -0.8345 -1.2298  0.4145
  101MOL   C16730367   2.653   6.990   3.618  0.2445  0.4344  0.0284
  101MOL   C16830368   2.530   7.004   3.705 -0.0281  0.0620 -0.6183
  101MOL   C16930369   2.572   7.094   3.826  0.0772  0.2769  0.2558
  101MOL   O17030370   2.664   7.062   3.897  0.3516  0.0462 -0.2960
  101MOL   O17130371   2.500   7.211   3.829  0.9650  0.2906  0.6910
  101MOL   C17230372   2.537   7.309   3.924  0.3943 -0.3358  0.9104
  101MOL   C17330373   2.430   7.301   4.029 -0.2348 -0.1345 -0.0531
  101MOL   H17430374   2.637   6.912   3.544 -0.1976  1.2794 -0.7696
  101MOL   H17530375   2.735   6.952   3.679 -0.3095 -0.7687  0.0232
  101MOL   H17630376   2.444   7.048   3.653 -2.4958 -1.3528  2.0979
  101MOL   H17730377   2.635   7.288   3.966  1.5071  3.9186  0.6087
  101MOL   H17830378   2.546   7.414   3.895 -0.6739  0.2989  2.8057
  101MOL   H17930379   2.439   7.398   4.077 -1.0738 -0.0724 -0.0109
  101MOL   H18030380   2.452   7.235   4.113 -0.9391  0.9049  0.9470
  101MOL   H18130381   2.327   7.303   3.994 -0.3739  0.6998  0.4077
  101MOL   C18230382   2.491   6.869   3.762 -0.2789  0.1243  0.0331
  101MOL   C18330383   2.340   6.843   3.795 -0.4215 -0.3720 -0.4161
  101MOL   C18430384   2.250   6.869   3.678 -0.0589 -1.2072  0.4073
  101MOL   O18530385   2.189   6.975   3.673 -0.3840  0.3677 -0.2002
  101MOL   O18630386   2.258   6.779   3.581  1.0429 -0.1498 -0.4742
  101MOL   C18730387   2.219   6.806   3.446 -0.2427  0.3061  0.0213
  101MOL   C18830388   2.341   6.865   3.370 -0.2295  0.2857  0.0690
  101MOL   H18930389   2.506   6.784   3.695 -0.7629 -0.1160  0.2278
  101MOL   H19030390   2.555   6.854   3.849 -1.8472  0.9605  1.3521
  101MOL   H19130391   2.338   6.739   3.829  0.1636  0.2590  1.5832
  101MOL   H19230392   2.178   6.712   3.408  0.4086 -0.4951  1.2623
  101MOL   H19330393   2.137   6.878   3.439  2.6381  3.3914 -3.2619
  101MOL   H19430394   2.394   6.941   3.426 -1.7819  0.2986  1.5831
  101MOL   H19530395   2.296   6.902   3.277  1.5724  0.4826 -0.7470
  101MOL   H19630396   2.414   6.786   3.351 -0.3151 -0.0003  0.9006
  101MOL   C19730397   2.289   6.922   3.926  0.4663  0.2917 -0.2416
  101MOL   C19830398   2.151   6.896   3.990  0.2318  0.1157 -0.2807
  101MOL   C19930399   2.115   7.004   4.092 -0.6805 -0.0287  0.1003
  101MOL   O20030400   2.113   6.981   4.212 -0.1140  0.1148  0.4393
  101MOL   O20130401   2.076   7.119   4.029  0.6503  0.2771  0.1442
  101MOL   C20230402   2.009   7.228   4.103  1.0084 -0.2621 -0.3591
  101MOL   C20330403   2.001   7.359   4.022  0.1015  0.3578 -0.1873
  101MOL   H20430404   2.360   6.916   4.009 -0.8555  0.1658  0.8957
  101MOL   H20530405   2.287   7.030   3.910  0.5396  0.4948  1.0068
  101MOL   H20630406   2.081   6.894   3.907  1.6189 -0.0785 -1.4670
  101MOL   H20730407   1.909   7.202   4.137 -0.0684  1.7216 -1.8899
  101MOL   H20830408   2.050   7.258   4.200 -1.8418 -0.5480  0.9864
  101MOL   H20930409   2.098   7.391   3.982 -0.1569 -0.1213 -1.2203
  101MOL   H21030410   1.968   7.451   4.070  1.8202  0.3402  1.0759
  101MOL   H21130411   1.932   7.342   3.939 -0.0772 -0.0508  0.0436
  101MOL   C21230412   2.136   6.753   4.048 -0.0077  0.1622 -0.1657
  101MOL   C21330413   1.990   6.693   4.083  0.1461  0.4581 -0.1395
  101MOL   C21430414   2.006   6.556   4.139  0.9202  0.0885  0.3102
  101MOL   O21530415   2.115   6.497   4.133 -0.0764  0.2816  0.7277
  101MOL   O21630416   1.883   6.507   4.184  0.3106  0.2681  0.8294
  101MOL   C21730417   1.875   6.384   4.250  0.0610 -0.0019  0.6771
  101MOL   C21830418   1.884   6.423   4.396 -0.2105 -0.0309 -0.1756
  101MOL   H21930419   2.174   6.682   3.975 -0.6616  0.1211 -0.4723
  101MOL   H22030420   2.217   6.741   4.120  2.4861  2.0937 -2.5747
  101MOL   H22130421   1.942   6.749   4.164  1.3247  1.9091 -0.4074
  101MOL   H22230422   1.780   6.334   4.229  0.1827  0.2443 -0.4886
  101MOL   H22330423   1.949   6.309   4.221 -1.6696 -1.3521 -0.3869
  101MOL   H22430424   1.809   6.496   4.428  1.5810  1.2430  1.2304
  101MOL   H22530425   1.982   6.463   4.422 -0.2487  1.1195 -1.6962
  101MOL   H22630426   1.878   6.338   4.464 -0.5185 -1.7874 -2.3368
  101MOL   C22730427   1.899   6.696   3.963  0.0795  0.4196 -0.3023
  101MOL   C22830428   1.815   6.827   3.943  0.4161  0.0376 -0.6284
  101MOL   C22930429   1.694   6.822   4.041 -0.5751  0.1553  0.3936
  101MOL   O23030430   1.595   6.756   4.018  0.2803 -0.6145  0.4514
  101MOL   O23130431   1.723   6.894   4.152  0.3766  1.1180  0.6537
  101MOL   C23230432   1.638   6.884   4.269 -0.1681  0.5563 -0.1402
  101MOL   C23330433   1.524   6.982   4.268  0.6370 -0.5234 -0.2252
  101MOL   H23430434   1.962   6.681   3.875 -0.9659 -1.7463 -0.7371
  101MOL   H23530435   1.824   6.616   3.968  1.5676 -1.3165 -3.6939
  101MOL   H23630436   1.869   6.916   3.976  1.0033 -0.0122 -1.4483
  101MOL   H23730437   1.592   6.787   4.286 -2.2704  1.7097  0.9697
  101MOL   H23830438   1.691   6.900   4.363  0.6749  3.0596 -0.9856
  101MOL   H23930439   1.561   7.082   4.248  0.1062 -0.6096 -1.7272
  101MOL   H24030440   1.472   6.980   4.364  2.5447 -0.9008  0.8142
  101MOL   H24130441   1.453   6.959   4.189 -0.0706  0.7407  0.0354
  101MOL   C24230442   1.781   6.847   3.791 -0.3553  0.5523  0.8818
  101MOL   C24330443   1.671   6.950   3.750 -0.3477 -0.9410  0.3042
  101MOL   C24430444   1.649   6.949   3.598 -0.2623  0.7440 -0.3089
  101MOL   O24530445   1.744   6.958   3.518  0.5801  0.8599 -0.2142
  101MOL   O24630446   1.520   6.929   3.556 -0.1544  0.4849  0.1367
  101MOL   C24730447   1.477   6.950   3.424  0.0757  0.3674 -0.2888
  101MOL   C24830448   1.415   7.082   3.386 -0.2212  0.7306 -0.5711
  101MOL   H24930449   1.879   6.860   3.747 -0.6905  1.4294  0.3888
  101MOL   H25030450   1.749   6.752   3.747  2.4409  0.1286 -0.3176
  101MOL   H25130451   1.572   6.929   3.791 -0.0806 -1.3325  0.7596
  101MOL   H25230452   1.563   6.931   3.360 -1.7628 -2.1101 -2.1678
  101MOL   H25330453   1.403   6.872   3.403  0.7017 -0.9542  2.2695
  101MOL   H25430454   1.416   7.087   3.277 -0.0345 -1.6475 -0.7029
  101MOL   H25530455   1.471   7.165   3.428 -1.7732  1.4717  0.0927
  101MOL   H25630456   1.308   7.078   3.406  0.0144 -0.7425  0.5197
  101MOL   C25730457   1.707   7.091   3.797  0.1599 -1.0132  0.2989
  101MOL   C25830458   1.595   7.199   3.808 -0.1111 -0.3142  0.4763
  101MOL   C25930459   1.653   7.341   3.808  0.1935 -0.4781  0.8850
  101MOL   O26030460   1.655   7.411   3.709  1.0216 -0.1278  0.1857
  101MOL   O26130461   1.669   7.392   3.933 -0.0181  0.2406 -0.1381
  101MOL   C26230462   1.702   7.522   3.961 -0.5076 -0.0509  0.2359
  101MOL   C26330463   1.668   7.536   4.110  0.3146 -0.6228 -0.2275
  101MOL   H26430464   1.749   7.074   3.896  0.3244 -0.9764  0.2354
  101MOL   H26530465   1.774   7.128   3.719  0.6157  0.2469  1.2619
  101MOL   H26630466   1.536   7.199   3.716 -0.5590 -2.6028  0.7191
  101MOL   H26730467   1.807   7.547   3.944 -0.5197 -0.4048 -0.3725
  101MOL   H26830468   1.643   7.589   3.898 -1.2986 -0.5368  0.4573
  101MOL   H26930469   1.563   7.524   4.136  0.3538  2.1499  1.4011
  101MOL   H27030470   1.697   7.636   4.140 -0.3626  0.1919 -2.1946
  101MOL   H27130471   1.724   7.459   4.164 -1.3104 -1.9481 -0.3774
  101MOL   C27230472   1.488   7.174   3.918 -0.1321 -0.1849 -0.4216
  101MOL   C27330473   1.359   7.260   3.912  0.6289  0.2706 -0.0803
  101MOL   C27430474   1.314   7.294   4.058 -0.5761  0.2661 -0.6205
  101MOL   O27530475   1.294   7.209   4.146  0.1690  0.2370 -0.3482
  101MOL   O27630476   1.308   7.426   4.076 -0.3709  0.2554 -0.5271
  101MOL   C27730477   1.256   7.483   4.197  0.4318  0.1589 -0.1597
  101MOL   C27830478   1.287   7.629   4.197  0.2166  0.0275 -0.2122
  101MOL   H27930479   1.456   7.071   3.907 -2.2190  0.1857  1.9584
  101MOL   H28030480   1.545   7.185   4.011 -1.0952  5.1884 -0.3337
  101MOL   H28130481   1.375   7.355   3.859 -0.1888 -0.5340 -1.8156
  101MOL   H28230482   1.147   7.480   4.199  0.3465 -1.4962 -3.5904
  101MOL   H28330483   1.289   7.442   4.293  0.4181  1.8823  0.5953
  101MOL   H28430484   1.241   7.669   4.287  0.4663  1.3707 -0.6798
  101MOL   H28530485   1.241   7.676   4.110 -1.5321  1.1935  1.3062
  101MOL   H28630486   1.392   7.655   4.189  0.6902 -1.4710  0.9107
  101MOL   C28730487   1.247   7.188   3.833  0.5860 -0.0780 -0.0792
  101MOL   C28830488   1.116   7.271   3.823 -1.1155 -0.3342 -0.1737
  101MOL   C28930489   1.013   7.206   3.729 -0.2848 -0.0349 -0.0614
  101MOL   O29030490   0.998   7.239   3.613  0.5630 -0.3503  0.3765
  101MOL   O29130491   0.953   7.113   3.797  0.0742 -0.4597  0.5966
  101MOL   C29230492   0.835   7.050   3.745 -0.5694 -0.0105  0.3862
  101MOL   C29330493   0.849   6.900   3.720 -0.4051  0.2635  0.9150
  101MOL   H29430494   1.273   7.164   3.730 -1.1765 -1.3709 -0.2530
  101MOL   H29530495   1.232   7.089   3.876  0.8969  0.1357  0.5286
  101MOL   H29630496   1.066   7.274   3.920 -0.2771  1.6810  0.2244
  101MOL   H29730497   0.756   7.085   3.812 -0.5375  1.5184 -0.3471
  101MOL   H29830498   0.797   7.095   3.654  0.5502  1.9721  0.8732
  101MOL   H29930499   0.887   6.834   3.798  0.5130 -0.0377  0.2182
  101MOL   H30030500   0.910   6.880   3.633 -0.5133  1.0711  0.6499
  101MOL   H30130501   0.752   6.851   3.705 -0.1138 -0.3381  0.9711
  101MOL   H30230502   1.123   7.372   3.783 -0.4723 -0.9552 -1.6580
  102MOL     C130503   2.571   1.162   6.013 -0.0306  1.2110  0.1563
  102MOL     C230504   2.560   1.313   6.037 -0.2227  0.5216  0.0896
  102MOL     C330505   2.648   1.397   5.939 -0.3860  0.0734 -0.5573
  102MOL     O430506   2.736   1.352   5.870 -0.2420  0.5931 -0.2018
  102MOL     O530507   2.608   1.523   5.943 -0.7317  0.1359  0.3490
  102MOL     C630508   2.662   1.615   5.853 -1.0091 -0.3659 -0.3661
  102MOL     C730509   2.808   1.645   5.895  0.1878  0.0207 -0.9393
  102MOL     H830510   2.506   1.098   6.073  3.2015 -3.4464 -1.0198
  102MOL     H930511   2.666   1.121   6.048 -1.2405 -1.3768  0.5641
  102MOL    H1030512   2.456   1.332   6.010  0.0104  2.1281  0.2636
  102MOL    H1130513   2.665   1.576   5.751  2.1214 -0.3732 -0.3374
  102MOL    H1230514   2.601   1.705   5.849 -1.1335 -0.5026 -1.8781
  102MOL    H1330515   2.810   1.682   5.997  3.0974  0.4181 -1.1211
  102MOL    H1430516   2.854   1.719   5.830 -1.9627  1.8290 -0.4540
  102MOL    H1530517   2.872   1.557   5.886  0.8249  0.5003 -1.1097
  102MOL    H1630518   2.555   1.129   5.910 -2.4869 -0.1231  0.9128
  102MOL    C1730519   2.569   1.356   6.182  0.5295  0.5317  0.4473
  102MOL    C1830520   2.712   1.387   6.243  0.6623  0.6214  0.9461
  102MOL    C1930521   2.795   1.259   6.238  0.9165  0.1305 -0.0705
  102MOL    O2030522   2.912   1.259   6.196  0.5521  0.4086  0.3558
  102MOL    O2130523   2.735   1.158   6.296 -0.4337 -0.0037 -0.3995
  102MOL    C2230524   2.803   1.048   6.345 -0.7388 -0.5579  0.5226
  102MOL    C2330525   2.708   0.925   6.344  0.4129  0.1514  0.2252
  102MOL    H2430526   2.519   1.451   6.198 -0.3329 -0.0223  1.1350
  102MOL    H2530527   2.525   1.281   6.249 -1.3997  0.8231 -0.4722
  102MOL    H2630528   2.771   1.465   6.197  2.6755 -0.1156  2.2168
  102MOL    H2730529   2.885   1.026   6.277 -2.0657 -1.3623 -0.8473
  102MOL    H2830530   2.845   1.063   6.444 -0.8486  0.4168  0.4241
  102MOL    H2930531   2.618   0.939   6.405  0.2676 -0.5479  0.1849
  102MOL    H3030532   2.752   0.831   6.379 -1.8388 -1.2491 -0.5663
  102MOL    H3130533   2.660   0.906   6.248  0.9581 -1.0196  0.1780
  102MOL    C3230534   2.695   1.423   6.388  0.2158  0.4307  0.3459
  102MOL    C3330535   2.637   1.570   6.409 -0.7243  0.3177 -0.0707
  102MOL    C3430536   2.719   1.677   6.334 -0.1900  0.3483 -0.2689
  102MOL    O3530537   2.670   1.755   6.251 -0.0153  0.2561 -0.5317
  102MOL    O3630538   2.842   1.674   6.375 -0.0197  0.0610  0.2808
  102MOL    C3730539   2.930   1.775   6.334  0.1219 -0.5406  0.2990
  102MOL    C3830540   2.976   1.857   6.456  0.8387 -1.0348  0.0599
  102MOL    H3930541   2.621   1.359   6.437  0.5253 -1.7834 -1.9905
  102MOL    H4030542   2.791   1.404   6.436  0.3555  0.0493 -0.0838
  102MOL    H4130543   2.546   1.584   6.351 -1.4920 -0.8711  0.8152
  102MOL    H4230544   3.002   1.718   6.276  0.5630  0.3571 -0.0477
  102MOL    H4330545   2.882   1.854   6.275  1.2952  0.7570  1.0391
  102MOL    H4430546   2.891   1.919   6.485 -0.8286 -2.2460 -2.0796
  102MOL    H4530547   3.060   1.925   6.441  0.9129 -0.8450  1.3251
  102MOL    H4630548   2.991   1.795   6.544 -1.0463 -1.1714  0.3162
  102MOL    C4730549   2.603   1.618   6.560 -0.0136 -0.0458 -0.1592
  102MOL    C4830550   2.488   1.550   6.636 -0.0938 -0.2080  0.0155
  102MOL    C4930551   2.359   1.547   6.548  0.1869 -0.0400  0.0510
  102MOL    O5030552   2.318   1.650   6.501  0.0780  0.3338 -0.2268
  102MOL    O5130553   2.294   1.430   6.530  0.5633  0.0278  0.0954
  102MOL    C5230554   2.168   1.435   6.483  0.8206 -0.1643  0.4240
  102MOL    C5330555   2.170   1.420   6.326 -0.3469  0.9042  0.4149
  102MOL    H5430556   2.695   1.604   6.616  0.0418 -0.0142 -0.2408
  102MOL    H5530557   2.581   1.725   6.548  0.4124 -0.0710 -1.2686
  102MOL    H5630558   2.517   1.445   6.647  0.1322 -0.1514 -0.0320
  102MOL    H5730559   2.110   1.348   6.514  1.8178 -1.1546 -0.4102
  102MOL    H5830560   2.108   1.517   6.522  1.1013 -0.9802  2.6193
  102MOL    H5930561   2.224   1.500   6.275  1.7843  0.1311  1.4338
  102MOL    H6030562   2.076   1.393   6.279 -0.0479 -0.1322  0.4068
  102MOL    H6130563   2.237   1.340   6.294 -0.3653 -0.1985  3.0199
  102MOL    C6230564   2.474   1.625   6.772 -0.1725  0.3453  0.2914
  102MOL    C6330565   2.333   1.612   6.840 -0.0828 -0.8399  0.5777
  102MOL    C6430566   2.340   1.710   6.955  0.5602 -0.1421  0.1237
  102MOL    O6530567   2.258   1.804   6.952 -0.0456 -0.3782 -0.1986
  102MOL    O6630568   2.439   1.696   7.052 -0.3401 -0.0723  0.3631
  102MOL    C6730569   2.450   1.807   7.136 -0.5926  0.0418  0.3980
  102MOL    C6830570   2.554   1.772   7.238 -0.5678  0.0105 -0.1651
  102MOL    H6930571   2.553   1.592   6.840  0.4200  1.5299  0.1986
  102MOL    H7030572   2.474   1.732   6.748 -2.4843  0.5022  0.8358
  102MOL    H7130573   2.254   1.654   6.778  0.7717 -0.8082 -0.5164
  102MOL    H7230574   2.495   1.886   7.076 -3.0465  0.0408 -1.4929
  102MOL    H7330575   2.350   1.841   7.161 -0.6692  0.1877 -0.1124
  102MOL    H7430576   2.652   1.757   7.191 -0.4177  0.8716 -0.1324
  102MOL    H7530577   2.545   1.673   7.282 -0.5663 -0.2325 -0.7094
  102MOL    H7630578   2.563   1.855   7.308  0.0515  0.3767 -0.6645
  102MOL    C7730579   2.296   1.461   6.880 -0.0050 -0.4384 -0.0099
  102MOL    C7830580   2.154   1.416   6.883 -0.5273  0.1649  0.3620
  102MOL    C7930581   2.063   1.500   6.976  0.0285  0.6016 -0.0637
  102MOL    O8030582   2.100   1.529   7.090 -0.1753  0.7909  0.4663
  102MOL    O8130583   1.950   1.544   6.921 -0.3901  0.5375 -0.3812
  102MOL    C8230584   1.865   1.643   6.983  0.0738 -0.8135 -0.6036
  102MOL    C8330585   1.721   1.623   6.937 -0.0688  0.2471 -0.0470
  102MOL    H8430586   2.345   1.391   6.813  0.7530 -0.4269  0.5236
  102MOL    H8530587   2.353   1.444   6.971 -0.0951 -0.1851  0.0950
  102MOL    H8630588   2.114   1.425   6.782  1.5695 -0.8795 -0.5981
  102MOL    H8730589   1.873   1.632   7.091  1.0381 -0.3502 -0.6226
  102MOL    H8830590   1.908   1.742   6.973  0.4319 -1.0293 -1.2254
  102MOL    H8930591   1.691   1.525   6.975 -0.6947  1.0241  1.5074
  102MOL    H9030592   1.701   1.632   6.830 -3.3035  1.1434  0.5773
  102MOL    H9130593   1.650   1.695   6.977 -1.3594 -1.2152  0.3192
  102MOL    C9230594   2.148   1.266   6.928 -0.1479  0.3615  0.0089
  102MOL    C9330595   2.136   1.164   6.810  0.0498  0.2114  0.0244
  102MOL    C9430596   1.984   1.145   6.784  0.2687 -0.3267  0.1915
  102MOL    O9530597   1.928   1.041   6.810  0.4820  0.3651  0.0909
  102MOL    O9630598   1.924   1.253   6.720  0.6038  0.0765 -0.2470
  102MOL    C9730599   1.780   1.260   6.725  0.3879 -1.1304  0.4405
  102MOL    C9830600   1.714   1.294   6.588  0.0942  0.5187 -0.5623
  102MOL    H9930601   2.222   1.243   7.004 -1.1511 -3.0491  0.0464
  102MOL   H10030602   2.063   1.241   6.992  0.4359 -2.8025 -0.3528
  102MOL   H10130603   2.172   1.215   6.721 -0.3493  0.1034 -0.2013
  102MOL   H10230604   1.731   1.167   6.752 -1.3244  0.0807  1.6197
  102MOL   H10330605   1.741   1.340   6.789  0.4122 -0.8668  0.1269
  102MOL   H10430606   1.715   1.209   6.520 -2.9773  1.2496 -1.5901
  102MOL   H10530607   1.752   1.381   6.534  1.8186 -0.0661 -0.3221
  102MOL   H10630608   1.606   1.296   6.600  0.2440 -0.3030  1.1558
  102MOL   C10730609   2.227   1.041   6.829 -0.7664 -0.2253 -0.2214
  102MOL   C10830610   2.375   1.074   6.795 -0.0632 -0.4646  0.7459
  102MOL   C10930611   2.402   1.094   6.646  0.1377  0.5772 -0.2936
  102MOL   O11030612   2.491   1.175   6.613 -0.1108  0.3421 -0.4280
  102MOL   O11130613   2.340   1.010   6.559 -0.1438  0.0252  0.0919
  102MOL   C11230614   2.357   1.023   6.415 -0.6923 -0.4679 -0.4090
  102MOL   C11330615   2.237   1.054   6.327 -0.8800 -0.2530 -0.0816
  102MOL   H11430616   2.221   1.020   6.936 -1.2564 -0.1686 -0.2343
  102MOL   H11530617   2.191   0.960   6.765 -3.4440  3.0735 -3.0582
  102MOL   H11630618   2.412   1.165   6.841 -4.0409  1.2111  0.8539
  102MOL   H11730619   2.443   1.089   6.400 -0.7745 -0.3304 -0.2654
  102MOL   H11830620   2.400   0.929   6.380  0.5988  0.0224 -0.1654
  102MOL   H11930621   2.185   1.136   6.377 -3.7386 -0.5495 -2.4202
  102MOL   H12030622   2.162   0.974   6.323 -1.3943  0.3493 -4.4089
  102MOL   H12130623   2.260   1.073   6.222  0.0686 -0.7810  0.0323
  102MOL   C12230624   2.466   0.969   6.864  0.4346  0.5336 -0.6204
  102MOL   C12330625   2.484   0.981   7.019  0.0243  0.5601 -0.2289
  102MOL   C12430626   2.539   1.112   7.080  0.1745  0.5447 -0.1810
  102MOL   O12530627   2.469   1.186   7.145  0.4072  0.0968  0.3434
  102MOL   O12630628   2.665   1.140   7.039 -0.1770 -0.2339 -0.4971
  102MOL   C12730629   2.730   1.263   7.083  0.1339 -0.2354  0.1930
  102MOL   C12830630   2.662   1.385   7.025  0.4870 -0.2861  0.1860
  102MOL   H12930631   2.424   0.874   6.831 -3.0286  1.8481 -0.1168
  102MOL   H13030632   2.566   0.963   6.820  0.6921  0.2742  0.0029
  102MOL   H13130633   2.388   0.968   7.068  0.6528 -1.7126  0.4565
  102MOL   H13230634   2.717   1.265   7.191  0.5320  0.5595  0.2263
  102MOL   H13330635   2.837   1.259   7.063  0.0949 -0.0360 -0.0688
  102MOL   H13430636   2.728   1.471   7.028 -0.5499  0.5844 -1.0429
  102MOL   H13530637   2.568   1.414   7.072  0.5546 -0.8312  0.6656
  102MOL   H13630638   2.641   1.369   6.919 -1.4409  1.7545  0.2101
  102MOL   C13730639   2.572   0.866   7.073  0.2922  0.1324 -0.3388
  102MOL   C13830640   2.493   0.732   7.069  0.0541 -0.2937 -0.6059
  102MOL   C13930641   2.426   0.688   7.200  0.8988 -0.0416 -0.2409
  102MOL   O14030642   2.429   0.757   7.305  0.2811 -0.3309 -0.1392
  102MOL   O14130643   2.364   0.568   7.187 -0.4034 -0.0955 -0.4394
  102MOL   C14230644   2.300   0.503   7.300  0.0107 -0.2215 -0.8492
  102MOL   C14330645   2.242   0.372   7.255  0.5565  0.3607  0.2926
  102MOL   H14430646   2.666   0.858   7.019 -1.2774  0.6290 -3.2483
  102MOL   H14530647   2.601   0.879   7.177  1.1636  0.7214 -0.6447
  102MOL   H14630648   2.407   0.745   7.003 -0.7919 -0.3154  0.4820
  102MOL   H14730649   2.383   0.490   7.369  1.7294 -1.0619 -3.0040
  102MOL   H14830650   2.227   0.572   7.343  0.6292 -1.1796  1.8588
  102MOL   H14930651   2.188   0.330   7.339  1.6937 -0.4897  0.6119
  102MOL   H15030652   2.316   0.293   7.240  1.5206  1.1377  0.8952
  102MOL   H15130653   2.171   0.393   7.175  0.7108  1.3962  0.4206
  102MOL   C15230654   2.589   0.618   7.023  0.3469  0.3479 -0.1407
  102MOL   C15330655   2.620   0.629   6.874  0.2765 -0.0082  0.3757
  102MOL   C15430656   2.496   0.595   6.792 -0.1890 -0.3150  0.7055
  102MOL   O15530657   2.460   0.670   6.706  0.7065 -0.3766  0.3636
  102MOL   O15630658   2.430   0.488   6.824  0.1899 -0.0131  0.0461
  102MOL   C15730659   2.306   0.465   6.764  0.0342 -0.2135  0.6199
  102MOL   C15830660   2.245   0.344   6.837  0.3681 -0.4429 -0.5949
  102MOL   H15930661   2.680   0.630   7.082  0.7121 -0.7241 -0.4766
  102MOL   H16030662   2.563   0.516   7.051  0.6972 -0.0594 -1.2365
  102MOL   H16130663   2.653   0.726   6.838  0.6480 -0.3969 -0.3379
  102MOL   H16230664   2.244   0.554   6.776  0.3543  0.2288 -0.8957
  102MOL   H16330665   2.321   0.435   6.660  0.2694 -0.5657  0.7565
  102MOL   H16430666   2.166   0.291   6.783 -1.3620  0.1666  1.2691
  102MOL   H16530667   2.209   0.393   6.927  1.4460  0.5486 -0.6904
  102MOL   H16630668   2.323   0.273   6.865  1.9563  1.6962  0.4937
  102MOL   C16730669   2.742   0.543   6.832 -0.1826  0.3971 -0.0307
  102MOL   C16830670   2.889   0.620   6.841  0.1090 -0.5496  0.0978
  102MOL   C16930671   2.924   0.712   6.723 -0.0616  0.3271 -0.2038
  102MOL   O17030672   2.848   0.726   6.629 -0.5943 -0.3425  0.1211
  102MOL   O17130673   3.018   0.795   6.756  0.7824 -0.0892 -0.0234
  102MOL   C17230674   3.034   0.915   6.678 -0.6466 -1.1268  0.2800
  102MOL   C17330675   3.181   0.949   6.704  0.9107  0.8529 -0.4049
  102MOL   H17430676   2.753   0.453   6.892  0.9187 -1.8071 -3.4261
  102MOL   H17530677   2.720   0.511   6.730 -3.2545  0.8444  0.4388
  102MOL   H17630678   2.879   0.693   6.921 -1.6678  0.6498 -1.1804
  102MOL   H17730679   3.002   0.900   6.574 -1.8231  2.6372  0.0301
  102MOL   H17830680   2.979   0.996   6.726 -0.2176 -0.3817 -0.4647
  102MOL   H17930681   3.231   0.859   6.666  2.2230  2.0988 -1.7308
  102MOL   H18030682   3.211   0.957   6.808 -0.8156 -1.1958  0.2753
  102MOL   H18130683   3.207   1.039   6.649 -0.2436  0.2956 -1.8907
  102MOL   C18230684   2.999   0.516   6.868 -0.4383  0.4641 -0.3676
  102MOL   C18330685   3.086   0.544   6.997 -0.0399 -0.3199 -0.1461
  102MOL   C18430686   3.200   0.648   6.980 -0.8692  0.1296  0.4942
  102MOL   O18530687   3.195   0.755   7.034 -0.0402 -0.4791  0.2104
  102MOL   O18630688   3.289   0.609   6.896 -0.3711  0.6449 -0.2343
  102MOL   C18730689   3.402   0.697   6.868  0.0820  0.6029 -0.1100
  102MOL   C18830690   3.498   0.701   6.977 -0.4605 -0.1487  0.2244
  102MOL   H18930691   2.956   0.416   6.868 -1.2118  0.7807 -1.5284
  102MOL   H19030692   3.057   0.501   6.776 -0.0253  3.2729 -0.5982
  102MOL   H19130693   3.018   0.590   7.068  0.0969  2.3569 -1.6755
  102MOL   H19230694   3.444   0.674   6.770  0.0526  2.0351 -0.4584
  102MOL   H19330695   3.364   0.798   6.854 -2.8548 -0.4921 -0.5349
  102MOL   H19430696   3.576   0.769   6.943 -0.9129 -0.5233 -1.6286
  102MOL   H19530697   3.551   0.608   6.995  1.7999  0.9285 -0.6958
  102MOL   H19630698   3.465   0.743   7.072  0.2133 -1.9661  1.2867
  102MOL   C19730699   3.145   0.410   7.048 -0.6948 -0.8411 -0.4560
  102MOL   C19830700   3.050   0.310   7.105  1.0023  0.0331 -0.1132
  102MOL   C19930701   2.966   0.374   7.215  0.1948 -0.3873 -0.6139
  102MOL   O20030702   3.003   0.468   7.284  0.4901 -0.0660  0.6690
  102MOL   O20130703   2.850   0.310   7.241 -0.1183  0.1049  0.0501
  102MOL   C20230704   2.777   0.344   7.362 -0.1149  0.3222  0.0929
  102MOL   C20330705   2.767   0.217   7.454  1.0692  0.0989  0.3267
  102MOL   H20430706   3.203   0.359   6.972  0.7304  0.0562 -0.0058
  102MOL   H20530707   3.221   0.432   7.124 -1.1903 -2.0049  0.3997
  102MOL   H20630708   2.989   0.273   7.023  0.0624 -1.3475  1.1772
  102MOL   H20730709   2.817   0.429   7.416 -0.5491  1.5319 -1.4550
  102MOL   H20830710   2.679   0.379   7.330  0.1059  1.4117  0.5919
  102MOL   H20930711   2.864   0.168   7.452  0.3847 -1.2921  0.6227
  102MOL   H21030712   2.699   0.144   7.410  1.8337 -0.4736  0.0802
  102MOL   H21130713   2.732   0.246   7.553 -3.0685  0.4601 -1.1441
  102MOL   C21230714   3.128   0.183   7.156 -0.6997 -0.1279  0.4303
  102MOL   C21330715   3.042   0.046   7.165  0.8556  0.2279 -0.2262
  102MOL   C21430716   3.125   7.850   7.246  1.0957 -0.5255 -0.1500
  102MOL   O21530717   3.078   7.787   7.341  0.2685  0.2368  0.1075
  102MOL   O21630718   3.246   7.825   7.192 -0.3624 -0.1971  0.0319
  102MOL   C21730719   3.340   7.742   7.256 -0.4869 -0.2483  0.5525
  102MOL   C21830720   3.451   7.702   7.163 -0.4983 -0.1281  0.1471
  102MOL   H21930721   3.200   0.162   7.077 -1.7867  0.7151 -0.8185
  102MOL   H22030722   3.175   0.193   7.254 -0.7902 -1.9644  0.6888
  102MOL   H22130723   2.960   0.059   7.235  0.6124 -1.2601 -0.2216
  102MOL   H22230724   3.373   7.794   7.346  2.6857 -1.3894  0.1072
  102MOL   H22330725   3.294   7.644   7.272 -0.3489 -0.5243 -0.6393
  102MOL   H22430726   3.421   7.606   7.122 -1.1072 -0.4038  1.2181
  102MOL   H22530727   3.537   7.688   7.229  1.1917 -1.1355 -2.1607
  102MOL   H22630728   3.467   7.772   7.082  0.5839 -1.8209 -1.1507
  102MOL   C22730729   3.006   7.901   7.022 -0.2517 -0.4110  0.1015
  102MOL   C22830730   2.854   7.858   7.011 -0.3684  0.2667 -0.6600
  102MOL   C22930731   2.812   7.739   7.103 -0.4845 -0.7393  0.0274
  102MOL   O23030732   2.732   7.760   7.193 -0.4664  0.6113 -0.0384
  102MOL   O23130733   2.875   7.624   7.057 -0.4920  0.0976  0.4178
  102MOL   C23230734   2.827   7.502   7.100 -0.0205 -0.3191 -0.7694
  102MOL   C23330735   2.878   7.390   7.017 -0.4107  0.3448  0.2089
  102MOL   H23430736   3.038   0.068   6.950 -0.6489 -0.3803 -0.0474
  102MOL   H23530737   3.068   7.813   7.002  2.3458  1.1763  0.9521
  102MOL   H23630738   2.793   0.033   7.046  1.5584  1.0591  0.9608
  102MOL   H23730739   2.857   7.486   7.203 -0.1553  0.4367 -0.6133
  102MOL   H23830740   2.719   7.502   7.086 -0.4667  0.5641  2.3365
  102MOL   H23930741   2.974   7.343   7.039 -0.7584 -1.8267 -2.5550
  102MOL   H24030742   2.887   7.435   6.918 -0.0238 -1.8030 -0.7750
  102MOL   H24130743   2.808   7.308   6.998 -1.3179  1.3441 -0.8268
  102MOL   C24230744   2.816   7.826   6.864  0.0169  0.2077 -0.0978
  102MOL   C24330745   2.840   0.028   6.753  0.8763 -0.3034  1.4073
  102MOL   C24430746   2.711   0.111   6.736  0.5768  0.1558  0.5156
  102MOL   O24530747   2.714   0.232   6.767  0.2325  0.2004 -0.1259
  102MOL   O24630748   2.605   0.044   6.690 -0.0240 -0.2927 -0.2203
  102MOL   C24730749   2.486   0.117   6.674  0.1250 -0.5085  0.0809
  102MOL   C24830750   2.483   0.152   6.528 -0.4663  0.2805 -0.0855
  102MOL   H24930751   2.866   7.736   6.827  1.9917  0.8301  1.0068
  102MOL   H25030752   2.713   7.798   6.884 -0.2251  0.9457 -0.2960
  102MOL   H25130753   2.916   0.104   6.773  0.4434  0.4985  0.0892
  102MOL   H25230754   2.394   0.064   6.699  0.5410 -1.4121 -0.2721
  102MOL   H25330755   2.494   0.204   6.739  3.4742 -0.3270 -0.5078
  102MOL   H25430756   2.387   0.197   6.502 -1.7784 -2.5117 -0.2881
  102MOL   H25530757   2.510   0.071   6.461  0.3028  1.7570 -1.5828
  102MOL   H25630758   2.558   0.221   6.491  0.8534 -1.0320  0.0845
  102MOL   C25730759   2.892   7.869   6.622 -0.2944 -0.2714 -0.5483
  102MOL   C25830760   2.891   0.047   6.489  0.6727  0.0121  0.2112
  102MOL   C25930761   2.846   7.868   6.372  0.3868  0.1117 -0.0330
  102MOL   O26030762   2.921   7.812   6.294  0.3298  0.4488  0.2329
  102MOL   O26130763   2.713   7.846   6.371 -0.5561  0.0248 -0.3282
  102MOL   C26230764   2.659   7.741   6.294 -0.2896 -0.2495 -0.0709
  102MOL   C26330765   2.510   7.770   6.262  0.7965  0.0026  0.6664
  102MOL   H26430766   2.990   7.823   6.633 -1.1070 -1.6904  1.1087
  102MOL   H26530767   2.830   7.781   6.601  0.2492 -0.7231 -0.2557
  102MOL   H26630768   2.811   0.122   6.492 -0.0133 -0.6953 -0.2457
  102MOL   H26730769   2.702   7.726   6.195 -1.3705 -1.0155 -0.4282
  102MOL   H26830770   2.668   7.658   6.363  0.8577  1.1729  1.5307
  102MOL   H26930771   2.448   7.791   6.349 -1.4590  1.3069 -1.1874
  102MOL   H27030772   2.471   7.686   6.205 -0.6312  1.0882  0.0101
  102MOL   H27130773   2.502   7.855   6.195 -2.2992  0.3587  1.4327
  102MOL   C27230774   3.031   0.116   6.472 -0.8999  0.2360  0.2244
  102MOL   C27330775   3.055   0.228   6.374 -0.3104 -0.0717  0.5406
  102MOL   C27430776   2.976   0.350   6.431 -0.1686 -0.4170  0.7104
  102MOL   O27530777   3.020   0.410   6.526 -0.0938  0.3024  0.4259
  102MOL   O27630778   2.859   0.373   6.377  0.2639  0.6734  0.0720
  102MOL   C27730779   2.777   0.480   6.429 -0.5642  0.0027 -0.2626
  102MOL   C27830780   2.659   0.508   6.335  0.0891  0.0146 -0.8020
  102MOL   H27930781   3.077   0.145   6.567 -1.9716  0.5999  0.6392
  102MOL   H28030782   3.102   0.046   6.429  0.4343  0.0181  2.6853
  102MOL   H28130783   3.162   0.246   6.377 -0.0451 -1.2464 -0.8711
  102MOL   H28230784   2.740   0.450   6.527 -1.5612 -0.0370 -0.6479
  102MOL   H28330785   2.840   0.567   6.447  1.4155 -1.7086  1.3569
  102MOL   H28430786   2.585   0.578   6.373  0.6816 -0.6499  1.6947
  102MOL   H28530787   2.617   0.410   6.312 -2.3442  0.9085 -0.2292
  102MOL   H28630788   2.690   0.548   6.238  0.7880  1.3274 -0.0588
  102MOL   C28730789   3.032   0.201   6.222 -0.4144  0.5518 -0.2428
  102MOL   C28830790   3.111   0.300   6.130 -0.0771  0.5612  0.0458
  102MOL   C28930791   3.266   0.289   6.137 -0.0613  0.3874 -1.5102
  102MOL   O29030792   3.329   0.351   6.225  0.1173  0.1747  0.7293
  102MOL   O29130793   3.325   0.196   6.061 -0.2947 -0.8978 -0.3976
  102MOL   C29230794   3.460   0.198   6.028 -0.4536 -0.5766  0.0979
  102MOL   C29330795   3.473   0.164   5.883 -0.0863 -0.1250  0.2456
  102MOL   H29430796   3.056   0.096   6.207 -2.0050  0.2118 -0.4943
  102MOL   H29530797   2.924   0.209   6.205 -0.1696 -1.0327 -2.6208
  102MOL   H29630798   3.075   0.304   6.027 -0.9409  2.3021  0.3899
  102MOL   H29730799   3.493   0.302   6.028 -0.7924 -0.4603 -0.8413
  102MOL   H29830800   3.507   0.126   6.094  1.2689  1.4958  1.2068
  102MOL   H29930801   3.468   0.058   5.857 -0.2050 -0.1088  0.2012
  102MOL   H30030802   3.574   0.191   5.851  0.0828  2.6787  2.9926
  102MOL   H30130803   3.406   0.230   5.827 -1.3925  0.7081  2.7472
  102MOL   H30230804   3.088   0.396   6.177  1.8952  0.3055  1.6050
  103MOL     C130805   5.871   4.819   5.250  0.0346  0.3066 -0.2758
  103MOL     C230806   5.976   4.712   5.237 -0.2006 -0.1465 -0.5586
  103MOL     C330807   5.963   4.647   5.097  0.5025  0.2333 -0.5083
  103MOL     O430808   6.049   4.669   5.009  0.1617 -0.1800  0.3606
  103MOL     O530809   5.855   4.567   5.088 -0.0573 -0.1702 -0.4580
  103MOL     C630810   5.827   4.515   4.956 -0.4052 -0.0854 -0.0638
  103MOL     C730811   5.691   4.466   4.948  0.5088  0.3668 -0.4710
  103MOL     H830812   5.773   4.775   5.233  0.9333 -1.6278 -0.5316
  103MOL     H930813   5.885   4.903   5.181  1.3099  0.3379  0.0020
  103MOL    H1030814   6.072   4.760   5.254 -0.2355  0.3618 -1.7919
  103MOL    H1130815   5.838   4.596   4.885  0.1504  0.2519  0.4023
  103MOL    H1230816   5.892   4.433   4.927 -0.0525  0.5311 -1.0073
  103MOL    H1330817   5.683   4.370   4.998 -2.7474  0.5199 -0.5547
  103MOL    H1430818   5.658   4.434   4.849 -2.9975  1.5362  0.2147
  103MOL    H1530819   5.608   4.525   4.987 -0.5290  0.0516 -2.1464
  103MOL    H1630820   5.865   4.872   5.345  0.2367 -0.0987 -0.0385
  103MOL    C1730821   5.970   4.619   5.362  0.1134 -0.5507 -0.0038
  103MOL    C1830822   6.103   4.571   5.423  0.4543  0.3019  0.0105
  103MOL    C1930823   6.199   4.508   5.328 -0.2064  0.0481 -0.2825
  103MOL    O2030824   6.319   4.534   5.327 -0.2690 -0.1641 -0.4193
  103MOL    O2130825   6.147   4.411   5.252  0.5298 -0.1318 -0.1008
  103MOL    C2230826   6.228   4.332   5.168  0.5798  0.0295  0.1165
  103MOL    C2330827   6.230   4.198   5.240  0.4574 -0.7096  0.2139
  103MOL    H2430828   5.920   4.666   5.447  0.8837 -0.3046  0.3160
  103MOL    H2530829   5.912   4.528   5.346  0.9959 -0.9064 -1.2386
  103MOL    H2630830   6.146   4.666   5.455  0.5081  0.6752 -1.1525
  103MOL    H2730831   6.188   4.323   5.068  0.5448 -0.9023  0.2179
  103MOL    H2830832   6.332   4.365   5.162  0.6743 -0.5070 -1.4927
  103MOL    H2930833   6.293   4.126   5.188  1.3508 -0.0402  0.3591
  103MOL    H3030834   6.129   4.157   5.232  0.0081  0.2182  0.8951
  103MOL    H3130835   6.248   4.199   5.347  0.2177 -0.4411  0.2545
  103MOL    C3230836   6.079   4.497   5.551  0.2509 -0.1351 -0.3032
  103MOL    C3330837   6.068   4.590   5.680  0.4157  0.2114 -0.1342
  103MOL    C3430838   6.205   4.660   5.709  0.3443  0.7532  0.4959
  103MOL    O3530839   6.220   4.777   5.670  0.1963  0.1375  0.0691
  103MOL    O3630840   6.295   4.579   5.777  0.0297  0.5739  0.5457
  103MOL    C3730841   6.420   4.633   5.805  0.0665 -0.3162  0.1077
  103MOL    C3830842   6.515   4.514   5.826 -0.0517  0.1956  0.6490
  103MOL    H3930843   5.990   4.435   5.539 -0.0874  0.5031 -1.1042
  103MOL    H4030844   6.164   4.430   5.564  0.0971 -0.2748 -0.0031
  103MOL    H4130845   6.007   4.678   5.659  0.4713  0.1050 -0.7435
  103MOL    H4230846   6.466   4.696   5.729  1.0141 -1.3289 -0.1829
  103MOL    H4330847   6.398   4.695   5.891  0.2932  1.0282 -0.7861
  103MOL    H4430848   6.618   4.541   5.850 -0.3279  0.4342  1.6016
  103MOL    H4530849   6.512   4.448   5.740  1.5280 -1.7655  2.0346
  103MOL    H4630850   6.483   4.446   5.905  0.2518 -0.1893  0.4393
  103MOL    C4730851   6.018   4.514   5.805 -0.4341 -0.0894  0.8272
  103MOL    C4830852   5.863   4.486   5.796  0.5052  0.2801 -0.3440
  103MOL    C4930853   5.774   4.610   5.768 -0.4485 -0.1292 -0.5494
  103MOL    O5030854   5.710   4.624   5.664 -0.6396 -0.2450 -0.1870
  103MOL    O5130855   5.764   4.701   5.867  0.0493  0.6823 -0.2513
  103MOL    C5230856   5.694   4.823   5.837 -0.0816 -0.1929  0.1157
  103MOL    C5330857   5.763   4.948   5.880 -0.2072 -0.5523 -0.5589
  103MOL    H5430858   6.073   4.421   5.794 -0.0325  0.0450  1.6535
  103MOL    H5530859   6.041   4.554   5.904 -1.3693  1.1520  0.5590
  103MOL    H5630860   5.864   4.419   5.710  1.1274 -0.3225  0.1313
  103MOL    H5730861   5.673   4.845   5.732 -2.8927 -2.0056  0.2564
  103MOL    H5830862   5.596   4.810   5.882 -0.1835 -0.5973 -0.2224
  103MOL    H5930863   5.709   5.035   5.844  2.4624 -0.3915 -4.3589
  103MOL    H6030864   5.866   4.944   5.844  0.5036  1.2291  1.1843
  103MOL    H6130865   5.768   4.944   5.989 -1.5120  1.0602 -0.4134
  103MOL    C6230866   5.818   4.396   5.920  0.0697  0.1643  0.0292
  103MOL    C6330867   5.732   4.276   5.872 -0.1016  0.3202 -0.9348
  103MOL    C6430868   5.589   4.265   5.930  0.0129  0.6247  0.0144
  103MOL    O6530869   5.498   4.259   5.848 -0.2014 -0.0041 -0.0249
  103MOL    O6630870   5.580   4.242   6.069  0.2799 -0.1489 -0.0692
  103MOL    C6730871   5.447   4.203   6.120 -0.3784 -0.3741  0.3810
  103MOL    C6830872   5.448   4.045   6.154  0.1795  0.4722 -0.2353
  103MOL    H6930873   5.903   4.356   5.975 -0.6241 -1.9300 -0.3645
  103MOL    H7030874   5.750   4.452   5.985 -1.3976  0.6829 -1.8930
  103MOL    H7130875   5.714   4.292   5.765 -1.1819 -0.5479 -0.8863
  103MOL    H7230876   5.428   4.245   6.219  0.9032  0.3073  0.3475
  103MOL    H7330877   5.366   4.233   6.053  1.0499 -0.3816 -1.3970
  103MOL    H7430878   5.373   4.006   6.223 -0.9768 -0.1658 -1.8153
  103MOL    H7530879   5.548   4.025   6.192  0.1304  1.1208  0.2544
  103MOL    H7630880   5.449   3.985   6.063 -1.3644  1.5198 -0.9714
  103MOL    C7730881   5.810   4.140   5.883  0.5295 -0.0621 -0.3939
  103MOL    C7830882   5.929   4.113   5.783 -0.3988 -0.6407  0.6318
  103MOL    C7930883   5.874   4.106   5.641  0.3250 -0.7097  0.5557
  103MOL    O8030884   5.935   4.163   5.549  0.7556 -0.2123  0.5223
  103MOL    O8130885   5.761   4.040   5.619  0.2738 -0.0088 -0.4060
  103MOL    C8230886   5.695   4.031   5.494 -0.3455  0.4156 -0.1534
  103MOL    C8330887   5.613   3.905   5.502  0.9730  0.2828 -0.1160
  103MOL    H8430888   5.850   4.151   5.984  0.3351  0.3893 -0.3634
  103MOL    H8530889   5.739   4.058   5.880  0.3184  0.0793  0.5985
  103MOL    H8630890   5.989   4.203   5.788 -0.7861 -0.1993 -1.9557
  103MOL    H8730891   5.629   4.117   5.479  0.7918  1.3361  0.0254
  103MOL    H8830892   5.766   4.032   5.411 -0.2749  2.6430 -0.0971
  103MOL    H8930893   5.562   3.890   5.406 -0.6875 -3.4159  1.2424
  103MOL    H9030894   5.551   3.905   5.592 -1.4772  0.5697 -1.7368
  103MOL    H9130895   5.678   3.821   5.525 -1.2007 -1.2180  0.7800
  103MOL    C9230896   6.002   3.987   5.833  0.1075  0.3756  1.2406
  103MOL    C9330897   6.090   4.003   5.958 -0.2774  0.1325  0.5405
  103MOL    C9430898   6.196   4.109   5.930  0.2479  0.0156 -0.0822
  103MOL    O9530899   6.203   4.213   5.992 -0.7290 -0.3691  0.3280
  103MOL    O9630900   6.273   4.070   5.826 -0.1849 -0.7895 -0.2419
  103MOL    C9730901   6.384   4.146   5.785 -0.1594  0.8333 -0.2552
  103MOL    C9830902   6.357   4.189   5.646  0.0581 -0.2643 -0.3913
  103MOL    H9930903   5.934   3.902   5.846 -0.4179  0.5755 -0.1321
  103MOL   H10030904   6.055   3.941   5.749 -0.8206  0.4584  0.6051
  103MOL   H10130905   6.034   4.053   6.037  1.1241 -0.1519  1.7467
  103MOL   H10230906   6.399   4.221   5.863 -0.2542  0.3074  0.2783
  103MOL   H10330907   6.475   4.085   5.784 -0.9104 -0.2859 -1.1080
  103MOL   H10430908   6.251   4.214   5.648 -0.9272 -4.1768  1.1372
  103MOL   H10530909   6.356   4.104   5.577 -0.6188  0.6442 -1.5169
  103MOL   H10630910   6.415   4.274   5.612  0.4934 -1.3731 -2.5330
  103MOL   C10730911   6.146   3.870   6.017 -0.6902  0.4339  0.3230
  103MOL   C10830912   6.083   3.822   6.146 -0.2730 -0.1623  0.4484
  103MOL   C10930913   6.168   3.713   6.210 -0.2737 -0.1093  0.4580
  103MOL   O11030914   6.205   3.719   6.326 -0.0772 -0.8054  0.0439
  103MOL   O11130915   6.191   3.612   6.132 -0.3610  0.3428  0.4963
  103MOL   C11230916   6.279   3.507   6.168 -0.0112  0.7324 -0.2837
  103MOL   C11330917   6.296   3.428   6.036 -0.4019 -0.8067  0.2271
  103MOL   H11430918   6.133   3.793   5.941 -0.6826 -0.9943  1.7461
  103MOL   H11530919   6.253   3.880   6.031 -0.4677 -0.8146 -0.4698
  103MOL   H11630920   6.098   3.906   6.214  0.5506  1.6310 -1.8821
  103MOL   H11730921   6.372   3.545   6.211  0.1759  0.3473 -0.3443
  103MOL   H11830922   6.238   3.442   6.246  0.0879  0.1207 -0.7318
  103MOL   H11930923   6.207   3.374   6.004 -1.1696  1.7696 -2.1836
  103MOL   H12030924   6.376   3.354   6.046  1.4865  1.3407  1.4361
  103MOL   H12130925   6.310   3.498   5.954 -2.1404  0.4769  1.0207
  103MOL   C12230926   5.934   3.781   6.137 -0.5889  0.4752 -0.6749
  103MOL   C12330927   5.847   3.792   6.272 -0.2065 -0.5403  0.0056
  103MOL   C12430928   5.882   3.914   6.361  0.0045 -0.4851 -0.3628
  103MOL   O12530929   5.892   3.912   6.483  0.5804 -0.1258 -0.1242
  103MOL   O12630930   5.877   4.031   6.291 -0.6881  0.0595  0.7509
  103MOL   C12730931   5.888   4.154   6.353 -0.7296  0.2956  0.4875
  103MOL   C12830932   5.991   4.245   6.274 -0.2460 -0.3186 -0.3525
  103MOL   H12930933   5.888   3.861   6.080  0.0296  1.0984 -0.2999
  103MOL   H13030934   5.926   3.691   6.076  3.1358  0.9366 -1.9678
  103MOL   H13130935   5.745   3.812   6.239  0.0829 -3.4135 -2.9401
  103MOL   H13230936   5.788   4.196   6.346 -1.1687 -0.7133  0.6778
  103MOL   H13330937   5.909   4.148   6.460  1.0542  0.2213  0.1516
  103MOL   H13430938   6.087   4.196   6.287 -1.3848 -1.6733  3.7775
  103MOL   H13530939   5.989   4.344   6.319  0.2385  0.7722 -2.6289
  103MOL   H13630940   5.971   4.250   6.167  1.2571  1.4059 -0.5755
  103MOL   C13730941   5.836   3.660   6.344  0.0909 -0.5851 -0.2101
  103MOL   C13830942   5.789   3.537   6.273  0.2073  0.1720 -0.1193
  103MOL   C13930943   5.634   3.553   6.248 -0.4218  0.0974  0.1788
  103MOL   O14030944   5.559   3.636   6.302 -0.4264 -0.2421  0.2160
  103MOL   O14130945   5.590   3.458   6.162 -0.4986  0.0857 -0.5954
  103MOL   C14230946   5.453   3.470   6.120  0.2729  0.4151 -0.3491
  103MOL   C14330947   5.414   3.365   6.011  0.2033  0.0130  0.1381
  103MOL   H14430948   5.935   3.632   6.379  0.5909 -1.0133 -1.9273
  103MOL   H14530949   5.782   3.673   6.438 -0.5156 -0.5373 -0.5605
  103MOL   H14630950   5.837   3.524   6.176  2.0054 -0.5269  0.8474
  103MOL   H14730951   5.383   3.453   6.202 -1.1321  0.8179 -1.4398
  103MOL   H14830952   5.425   3.569   6.086  0.0141 -0.3153 -2.3556
  103MOL   H14930953   5.460   3.270   6.037  0.7153 -0.5702 -2.7895
  103MOL   H15030954   5.449   3.389   5.911 -2.3527 -0.3318 -0.8714
  103MOL   H15130955   5.311   3.329   6.003  0.2076  0.0652 -0.1383
  103MOL   C15230956   5.841   3.412   6.352 -0.3493 -0.0970  0.3603
  103MOL   C15330957   5.818   3.278   6.279  0.0986  0.1210 -0.8062
  103MOL   C15430958   5.786   3.164   6.379 -0.0483 -0.1263  0.2731
  103MOL   O15530959   5.725   3.061   6.344 -0.8076  0.5316 -0.0578
  103MOL   O15630960   5.847   3.172   6.504  0.4450  0.3958  0.0612
  103MOL   C15730961   5.803   3.093   6.616 -0.3249  0.0203  0.0463
  103MOL   C15830962   5.839   3.149   6.749  0.6272  0.1865  0.1930
  103MOL   H15930963   5.946   3.416   6.378 -0.2337 -0.4328 -0.0342
  103MOL   H16030964   5.797   3.418   6.451  1.1293  1.6434  0.9171
  103MOL   H16130965   5.724   3.288   6.225 -0.8115 -0.4114  0.6604
  103MOL   H16230966   5.698   3.066   6.621  0.3105 -2.5699 -0.0142
  103MOL   H16330967   5.844   2.992   6.619 -1.1077 -0.2864  0.6221
  103MOL   H16430968   5.776   3.104   6.826  0.8803 -0.9350 -0.2562
  103MOL   H16530969   5.821   3.255   6.766 -1.0787 -0.3835  2.0583
  103MOL   H16630970   5.945   3.136   6.771  0.8333  2.3079  0.6309
  103MOL   C16730971   5.932   3.233   6.187 -0.6546 -0.5395 -0.2053
  103MOL   C16830972   5.873   3.206   6.047 -0.0219 -0.0615 -0.1923
  103MOL   C16930973   5.960   3.100   5.975 -0.5542 -0.0025  0.4167
  103MOL   O17030974   5.917   3.002   5.914  0.0895 -0.3479 -0.1714
  103MOL   O17130975   6.089   3.132   5.992  0.5214 -0.2334  0.5512
  103MOL   C17230976   6.181   3.041   5.965 -0.3770  0.1366  0.3460
  103MOL   C17330977   6.312   3.098   5.906 -0.2073 -0.8740  0.2338
  103MOL   H17430978   6.002   3.316   6.178  0.1103 -1.1613  0.0359
  103MOL   H17530979   5.986   3.145   6.222  0.4446 -0.7308 -2.3058
  103MOL   H17630980   5.782   3.148   6.057 -0.8677  0.7927 -2.6113
  103MOL   H17730981   6.209   2.999   6.062  0.3006  1.1899  0.6076
  103MOL   H17830982   6.144   2.957   5.907  2.0496 -1.1616  0.5738
  103MOL   H17930983   6.280   3.184   5.849 -2.2258 -2.1090 -0.5301
  103MOL   H18030984   6.357   3.028   5.836  0.4148 -2.1711  1.8796
  103MOL   H18130985   6.376   3.149   5.979 -4.3533  2.6490  1.6299
  103MOL   C18230986   5.840   3.333   5.963 -0.2940  0.1371 -0.5929
  103MOL   C18330987   5.803   3.321   5.812 -0.1610  0.0754  0.1121
  103MOL   C18430988   5.767   3.464   5.763  0.2934  0.9878 -0.3221
  103MOL   O18530989   5.843   3.516   5.683 -0.1363  0.0815 -0.1687
  103MOL   O18630990   5.659   3.522   5.821  0.8163 -0.1324 -0.5034
  103MOL   C18730991   5.613   3.651   5.767  0.1144  0.2503  0.0684
  103MOL   C18830992   5.613   3.751   5.884 -0.7249  0.1148  0.4713
  103MOL   H18930993   5.754   3.379   6.013  0.2631 -2.2481  2.6967
  103MOL   H19030994   5.921   3.406   5.972  0.3710 -1.0137  3.2496
  103MOL   H19130995   5.888   3.293   5.750  0.9117  1.5718  0.8855
  103MOL   H19230996   5.677   3.681   5.685 -0.3615  1.6633  0.2078
  103MOL   H19330997   5.511   3.634   5.731  0.3965  1.2319 -1.2130
  103MOL   H19430998   5.567   3.847   5.858 -0.7635  0.1335  0.6116
  103MOL   H19530999   5.711   3.780   5.923  0.2416 -1.6463 -0.5905
  103MOL   H19631000   5.547   3.714   5.962 -0.0882 -2.5407 -0.2024
  103MOL   C19731001   5.683   3.216   5.783  0.2822  0.4102 -0.1274
  103MOL   C19831002   5.648   3.202   5.634 -0.7377  0.3512 -0.4520
  103MOL   C19931003   5.494   3.198   5.613  0.1229  0.4653  0.0951
  103MOL   O20031004   5.438   3.108   5.552 -0.6210 -0.1616 -0.2057
  103MOL   O20131005   5.433   3.310   5.659 -0.4822 -0.2616  0.5087
  103MOL   C20231006   5.291   3.322   5.651  0.7997 -0.0852  0.7307
  103MOL   C20331007   5.248   3.466   5.691 -0.1883  0.2690 -0.0634
  103MOL   H20431008   5.708   3.113   5.810 -2.5758 -0.5358 -0.8784
  103MOL   H20531009   5.593   3.243   5.838 -1.7871 -1.3262 -2.5312
  103MOL   H20631010   5.693   3.287   5.583 -0.7787  1.6492  1.6113
  103MOL   H20731011   5.269   3.300   5.547  0.2843  0.9609  0.6166
  103MOL   H20831012   5.240   3.251   5.715 -0.5078  0.6798  0.5513
  103MOL   H20931013   5.139   3.467   5.684 -0.1581 -1.7534 -1.1563
  103MOL   H21031014   5.280   3.547   5.625  0.7986  1.2206  1.5477
  103MOL   H21131015   5.274   3.486   5.795 -2.7411 -0.7842  0.8233
  103MOL   C21231016   5.722   3.074   5.568 -0.1734 -0.5516  1.1437
  103MOL   C21331017   5.726   3.085   5.416  0.3072  0.1383 -0.6461
  103MOL   C21431018   5.698   2.948   5.357  0.5437  0.6782  0.2149
  103MOL   O21531019   5.717   2.842   5.420  0.0382  0.0279  0.6805
  103MOL   O21631020   5.639   2.948   5.231  0.0089  0.4869  0.1030
  103MOL   C21731021   5.605   2.815   5.173  0.1127  0.5745 -0.2664
  103MOL   C21831022   5.528   2.850   5.045 -0.3209  0.7536  0.2859
  103MOL   H21931023   5.824   3.067   5.606 -0.0413  0.6956  1.0467
  103MOL   H22031024   5.664   2.991   5.608 -1.0810 -1.0719 -1.1716
  103MOL   H22131025   5.637   3.141   5.386  0.5052  0.4865 -0.5798
  103MOL   H22231026   5.697   2.763   5.149 -0.7751 -1.2723  0.2477
  103MOL   H22331027   5.539   2.759   5.239 -1.1554  1.7013 -0.5484
  103MOL   H22431028   5.440   2.913   5.058 -1.8259 -1.5915  1.7634
  103MOL   H22531029   5.493   2.760   4.995  4.0215 -0.5772 -0.5512
  103MOL   H22631030   5.600   2.898   4.978 -1.4756  0.3824 -1.2319
  103MOL   C22731031   5.869   3.135   5.362  0.6214 -0.7876 -0.3644
  103MOL   C22831032   5.896   3.285   5.392  0.5869  0.1073 -0.4644
  103MOL   C22931033   5.800   3.383   5.322 -0.2304 -0.3375 -0.0950
  103MOL   O23031034   5.718   3.343   5.236 -0.0852 -0.3620 -0.5111
  103MOL   O23131035   5.806   3.509   5.376  0.2570 -0.1002 -0.2616
  103MOL   C23231036   5.714   3.613   5.333  0.3198  0.7174  0.2105
  103MOL   C23331037   5.572   3.577   5.392 -0.3242  0.0127 -0.3965
  103MOL   H23431038   5.942   3.068   5.406 -0.5621 -1.6867  0.2746
  103MOL   H23531039   5.883   3.111   5.257 -2.7297  0.8908 -1.2959
  103MOL   H23631040   5.889   3.305   5.499  2.0005 -0.3949 -0.2584
  103MOL   H23731041   5.751   3.709   5.370 -2.9749  2.4224 -0.7566
  103MOL   H23831042   5.714   3.615   5.224 -2.6978  1.1476  0.1714
  103MOL   H23931043   5.493   3.635   5.345  1.0035 -0.3085 -3.1248
  103MOL   H24031044   5.558   3.593   5.499 -1.4733  0.8841 -0.6601
  103MOL   H24131045   5.543   3.479   5.355  0.6796  0.0872 -1.4024
  103MOL   C24231046   6.038   3.321   5.373 -0.5647  0.3390  0.4744
  103MOL   C24331047   6.134   3.271   5.478 -0.2444 -0.1734 -0.0096
  103MOL   C24431048   6.144   3.354   5.609  1.1223  0.1414  0.1235
  103MOL   O24531049   6.125   3.305   5.725 -0.4338 -0.3126  0.1278
  103MOL   O24631050   6.181   3.490   5.588 -0.3282 -0.0038  0.0190
  103MOL   C24731051   6.169   3.584   5.691 -0.4972 -0.1488 -0.4233
  103MOL   C24831052   6.307   3.656   5.692  1.0081 -0.1210  0.7016
  103MOL   H24931053   6.073   3.280   5.278 -2.0634 -0.1470  0.1193
  103MOL   H25031054   6.066   3.425   5.358 -1.2776  0.3334 -0.9531
  103MOL   H25131055   6.094   3.178   5.519 -2.7917  1.0342  0.3563
  103MOL   H25231056   6.094   3.662   5.677 -1.3609 -0.8635  0.1737
  103MOL   H25331057   6.159   3.532   5.787  2.3511 -2.0245 -1.0684
  103MOL   H25431058   6.337   3.695   5.595  1.8307  0.5676  1.2247
  103MOL   H25531059   6.387   3.588   5.724  0.8038 -0.2870  0.8564
  103MOL   H25631060   6.329   3.732   5.767 -1.6005  1.6668 -0.2994
  103MOL   C25731061   6.278   3.237   5.423 -0.4276  0.8327 -0.3612
  103MOL   C25831062   6.283   3.092   5.366  0.1270  0.1453  0.2755
  103MOL   C25931063   6.287   2.982   5.480  0.1284  0.5797  0.2468
  103MOL   O26031064   6.348   3.002   5.588 -0.5399 -0.4870 -0.3920
  103MOL   O26131065   6.188   2.899   5.462 -0.1676  0.3464 -0.4413
  103MOL   C26231066   6.168   2.788   5.549 -0.2990 -0.4652 -0.1191
  103MOL   C26331067   6.020   2.768   5.542 -0.2831  0.3147 -0.3723
  103MOL   H26431068   6.306   3.313   5.350  0.1062 -0.8202 -1.9139
  103MOL   H26531069   6.350   3.255   5.502 -0.6326 -2.6388  0.6945
  103MOL   H26631070   6.194   3.076   5.305 -1.2665  0.3963  2.1856
  103MOL   H26731071   6.213   2.696   5.511 -1.4873 -0.3679 -1.8174
  103MOL   H26831072   6.195   2.813   5.652 -1.2935 -0.2363  0.0940
  103MOL   H26931073   5.986   2.684   5.602 -0.8326  0.9063  0.1522
  103MOL   H27031074   5.992   2.743   5.440  1.6653  0.9066 -1.0768
  103MOL   H27131075   5.965   2.855   5.578  0.9584  0.7837  0.4262
  103MOL   C27231076   6.411   3.065   5.268  0.2522  0.8183 -0.6168
  103MOL   C27331077   6.381   3.070   5.114  0.1805  0.0417 -0.4889
  103MOL   C27431078   6.310   2.947   5.054 -0.3524 -0.3663  0.1937
  103MOL   O27531079   6.359   2.882   4.968 -0.1258 -0.0087  0.4340
  103MOL   O27631080   6.188   2.919   5.111 -0.4955 -0.2481 -0.4198
  103MOL   C27731081   6.107   2.808   5.068 -0.3814  0.3651  0.0360
  103MOL   C27831082   5.973   2.822   5.138  0.3720  0.4777  0.6536
  103MOL   H27931083   6.491   3.138   5.288  0.4609  1.4126 -3.4678
  103MOL   H28031084   6.459   2.971   5.293 -1.0850  0.1660 -0.5068
  103MOL   H28131085   6.317   3.157   5.097 -0.4168 -0.2707  0.1523
  103MOL   H28231086   6.091   2.809   4.960 -0.4345 -1.3983  0.0013
  103MOL   H28331087   6.151   2.713   5.100  1.0629  0.6073 -1.1599
  103MOL   H28431088   5.929   2.914   5.101  2.8214  0.3806 -2.7326
  103MOL   H28531089   6.000   2.839   5.243  1.0742 -0.6368  0.6662
  103MOL   H28631090   5.903   2.740   5.124 -0.8827  2.0839 -3.0836
  103MOL   C28731091   6.511   3.105   5.038 -0.3328 -0.7263  0.0948
  103MOL   C28831092   6.490   3.162   4.901  0.5795  0.0744  0.2444
  103MOL   C28931093   6.416   3.291   4.894 -0.1064  0.7885 -0.8635
  103MOL   O29031094   6.473   3.399   4.931 -0.0780  0.2257  0.0711
  103MOL   O29131095   6.292   3.274   4.862 -0.6490  0.7844  0.1663
  103MOL   C29231096   6.197   3.375   4.891  0.1018  0.0411 -0.4576
  103MOL   C29331097   6.086   3.311   4.976  0.1923  0.0953  0.4069
  103MOL   H29431098   6.569   3.183   5.086  1.3504 -1.5248 -0.6154
  103MOL   H29531099   6.587   3.029   5.024  0.8670  0.5929 -0.6810
  103MOL   H29631100   6.588   3.186   4.860  1.0290  0.3582  1.4881
  103MOL   H29731101   6.243   3.460   4.941  1.8449 -0.6350 -0.8753
  103MOL   H29831102   6.156   3.419   4.800  1.3650 -1.3662 -1.7294
  103MOL   H29931103   6.131   3.258   5.060  1.3241  3.1503  1.8216
  103MOL   H30031104   6.023   3.244   4.916 -0.3244  0.6442  0.3322
  103MOL   H30131105   6.017   3.384   5.017 -0.4257 -0.9384  1.2111
  103MOL   H30231106   6.431   3.094   4.838  0.8792 -0.5816  0.6644
  104MOL     C131107   7.383   6.473   3.444 -0.0423 -0.4910 -0.5118
  104MOL     C231108   7.371   6.373   3.558  0.5420  0.1200 -0.1890
  104MOL     C331109   7.355   6.230   3.500 -0.2745 -0.2834  0.5243
  104MOL     O431110   7.442   6.145   3.521 -0.1014  0.3346  0.0919
  104MOL     O531111   7.238   6.208   3.441 -0.1700  0.1381  0.6619
  104MOL     C631112   7.231   6.087   3.353 -0.1532 -0.3541 -0.0863
  104MOL     C731113   7.187   5.965   3.430 -0.2968 -0.1677  0.5641
  104MOL     H831114   7.315   6.448   3.363  0.7757  1.9728 -2.0163
  104MOL     H931115   7.480   6.477   3.396  0.7067  0.7144  1.0296
  104MOL    H1031116   7.464   6.375   3.615 -0.1327  2.8737  0.8837
  104MOL    H1131117   7.159   6.099   3.272  0.5712  1.6283 -0.4522
  104MOL    H1231118   7.331   6.064   3.316  0.2794 -2.1681  2.0481
  104MOL    H1331119   7.080   5.974   3.444 -0.5427  0.8584 -1.7074
  104MOL    H1431120   7.226   5.975   3.531 -0.4525  2.5534  0.3790
  104MOL    H1531121   7.208   5.868   3.383  1.0330  0.4927 -0.2499
  104MOL    H1631122   7.350   6.570   3.482 -0.7555 -0.9620  0.0935
  104MOL    C1731123   7.250   6.413   3.644  0.1420 -0.3222  0.5444
  104MOL    C1831124   7.232   6.316   3.761 -0.4100  0.1705  0.7504
  104MOL    C1931125   7.099   6.341   3.831  0.3666 -0.1725  0.1264
  104MOL    O2031126   7.083   6.435   3.913  0.1847 -0.0119  0.6793
  104MOL    O2131127   7.008   6.251   3.794  0.3372 -0.2981  0.1962
  104MOL    C2231128   6.882   6.242   3.860  0.5545 -0.5830 -0.1936
  104MOL    C2331129   6.874   6.109   3.930  0.6797  0.7114  0.6573
  104MOL    H2431130   7.266   6.516   3.674  0.8049 -0.1009 -0.5418
  104MOL    H2531131   7.163   6.411   3.578 -0.8756  1.2615  1.7951
  104MOL    H2631132   7.211   6.220   3.713  1.1127  0.8666 -1.3292
  104MOL    H2731133   6.841   6.321   3.923  0.4985 -1.2357  0.5880
  104MOL    H2831134   6.808   6.240   3.780  0.6910  3.2335 -0.4911
  104MOL    H2931135   6.949   6.108   4.008  2.3551  0.5942 -0.9207
  104MOL    H3031136   6.904   6.018   3.877 -1.9437  0.0207  0.2365
  104MOL    H3131137   6.774   6.086   3.969 -0.1948  0.0971 -1.8254
  104MOL    C3231138   7.344   6.286   3.858 -0.1834 -0.0930  0.1652
  104MOL    C3331139   7.332   6.186   3.976  0.4122 -0.4582 -1.5658
  104MOL    C3431140   7.448   6.212   4.070  0.6410  0.2898  0.4185
  104MOL    O3531141   7.550   6.152   4.057  0.5931 -0.0356 -0.0909
  104MOL    O3631142   7.415   6.295   4.162  0.1080  0.2832 -0.1247
  104MOL    C3731143   7.489   6.313   4.284 -0.2946 -0.2476  0.0484
  104MOL    C3831144   7.465   6.458   4.321 -0.2103 -0.1893 -1.0088
  104MOL    H3931145   7.433   6.259   3.801  1.3190 -1.7483  3.1900
  104MOL    H4031146   7.361   6.384   3.903  1.3165 -1.0936  1.8568
  104MOL    H4131147   7.242   6.221   4.026  0.7915 -0.2918 -0.9941
  104MOL    H4231148   7.456   6.245   4.362  0.4516 -0.6108  0.0576
  104MOL    H4331149   7.595   6.291   4.267 -0.1713  1.1666 -1.1506
  104MOL    H4431150   7.359   6.476   4.342  0.1557  0.0673  0.7157
  104MOL    H4531151   7.492   6.535   4.249  1.1632  0.5775  0.2937
  104MOL    H4631152   7.524   6.486   4.408  0.2118  0.9351 -1.6421
  104MOL    C4731153   7.324   6.042   3.928 -0.1641  0.0524 -0.3074
  104MOL    C4831154   7.268   5.941   4.034 -0.6411 -1.1137 -0.1076
  104MOL    C4931155   7.374   5.897   4.141 -0.0502 -0.6027 -0.2472
  104MOL    O5031156   7.351   5.929   4.255 -0.2219 -0.0009 -0.3079
  104MOL    O5131157   7.476   5.828   4.083  1.0806  0.2346  0.1023
  104MOL    C5231158   7.586   5.802   4.170 -0.1679 -0.1838 -0.5102
  104MOL    C5331159   7.555   5.666   4.234 -0.4130 -0.7646 -0.0448
  104MOL    H5431160   7.255   6.039   3.844 -3.0005  0.0373  1.9596
  104MOL    H5531161   7.414   5.997   3.884  1.1010  0.9750  1.2836
  104MOL    H5631162   7.208   6.003   4.100  0.7154 -1.0271  1.0810
  104MOL    H5731163   7.676   5.799   4.109  0.6597  0.9120  0.6243
  104MOL    H5831164   7.596   5.881   4.245 -0.9067 -2.7788  2.4399
  104MOL    H5931165   7.637   5.639   4.301  0.8272  0.5503 -0.9966
  104MOL    H6031166   7.542   5.589   4.158 -0.3214 -1.2075  0.3915
  104MOL    H6131167   7.468   5.673   4.300 -0.1803 -0.9857  0.2882
  104MOL    C6231168   7.201   5.815   3.965 -0.0810 -0.5496  0.4676
  104MOL    C6331169   7.157   5.702   4.058  0.3539  0.3844  0.5487
  104MOL    C6431170   7.203   5.563   4.019 -0.9552 -0.4694  0.0517
  104MOL    O6531171   7.264   5.490   4.098 -0.1475  0.5091 -0.2177
  104MOL    O6631172   7.167   5.533   3.884 -0.3646  0.2266 -0.8584
  104MOL    C6731173   7.210   5.406   3.823 -0.4084 -0.2873  0.0345
  104MOL    C6831174   7.163   5.374   3.684 -0.0550 -0.1448 -0.8947
  104MOL    H6931175   7.123   5.852   3.898 -2.8158 -2.5149  2.4715
  104MOL    H7031176   7.277   5.773   3.899 -0.2997 -0.7796  0.3646
  104MOL    H7131177   7.205   5.721   4.155 -0.3024  1.3325  0.6965
  104MOL    H7231178   7.319   5.414   3.819 -0.4118 -0.0136  0.3707
  104MOL    H7331179   7.173   5.333   3.894 -1.1831 -0.4895 -0.5712
  104MOL    H7431180   7.199   5.441   3.606 -2.0294 -1.4427 -3.0005
  104MOL    H7531181   7.056   5.371   3.669 -0.1745  0.4377 -0.1709
  104MOL    H7631182   7.200   5.274   3.657 -1.4947 -1.1392  0.7435
  104MOL    C7731183   7.003   5.712   4.068 -0.3333  0.5529  0.5961
  104MOL    C7831184   6.939   5.603   4.168  0.0655  0.3271 -0.7215
  104MOL    C7931185   6.820   5.524   4.112 -0.3125  0.1011 -0.3924
  104MOL    O8031186   6.706   5.533   4.152  0.1010  0.2422 -0.3650
  104MOL    O8131187   6.864   5.439   4.009 -0.0812 -0.3138 -0.2203
  104MOL    C8231188   6.777   5.332   3.969 -0.3502  0.1201 -0.2304
  104MOL    C8331189   6.843   5.245   3.856  0.1058 -0.0217  1.1236
  104MOL    H8431190   6.976   5.810   4.106  2.6921  0.7305  2.4229
  104MOL    H8531191   6.960   5.709   3.968  2.2144  0.2113 -0.5371
  104MOL    H8631192   7.006   5.521   4.194  0.3483  0.3275 -1.4300
  104MOL    H8731193   6.761   5.261   4.050 -0.5660 -2.0796 -2.1426
  104MOL    H8831194   6.687   5.378   3.927 -1.2933 -0.4529  1.1253
  104MOL    H8931195   6.927   5.186   3.890  0.7341 -0.4183 -1.0151
  104MOL    H9031196   6.876   5.312   3.777  3.2810 -1.1391  1.4480
  104MOL    H9131197   6.765   5.179   3.819  0.6892 -0.6124  0.9532
  104MOL    C9231198   6.900   5.675   4.297 -0.3553  0.7490 -0.2338
  104MOL    C9331199   7.019   5.727   4.391 -0.3706  0.3198  0.3710
  104MOL    C9431200   7.116   5.631   4.457  0.8217 -0.8274  0.4944
  104MOL    O9531201   7.082   5.516   4.471 -0.0917 -0.1422 -0.1424
  104MOL    O9631202   7.233   5.692   4.484 -0.2102 -0.1677  0.4285
  104MOL    C9731203   7.307   5.641   4.588  0.3190 -0.2454 -0.2290
  104MOL    C9831204   7.416   5.738   4.624 -0.2625 -0.8449 -0.4234
  104MOL    H9931205   6.822   5.750   4.284 -0.9222  0.3365  0.7190
  104MOL   H10031206   6.858   5.598   4.361  1.4947  0.0941  0.2376
  104MOL   H10131207   7.083   5.792   4.331  1.7404 -1.0472  1.1333
  104MOL   H10231208   7.236   5.628   4.669 -0.4706  1.2626 -0.6491
  104MOL   H10331209   7.348   5.542   4.569  0.6788 -0.0217 -0.6188
  104MOL   H10431210   7.380   5.827   4.676  0.4152 -1.3185  0.9005
  104MOL   H10531211   7.483   5.766   4.543  0.4333 -1.1650  0.0346
  104MOL   H10631212   7.473   5.689   4.703  0.3663 -1.5374 -1.2897
  104MOL   C10731213   6.961   5.808   4.510 -0.5727  0.4770  1.2074
  104MOL   C10831214   6.873   5.924   4.477 -0.1664  0.0181 -0.1345
  104MOL   C10931215   6.923   6.024   4.373  0.4959  0.1562 -0.2053
  104MOL   O11031216   6.890   6.019   4.261 -0.0245  0.0154 -0.2909
  104MOL   O11131217   7.040   6.082   4.407  0.0377 -0.1921 -0.1434
  104MOL   C11231218   7.103   6.167   4.315 -0.2340 -0.2873 -0.7125
  104MOL   C11331219   7.057   6.313   4.342  0.2122  0.5668  0.2035
  104MOL   H11431220   6.915   5.740   4.582 -0.2795  2.0243  2.9074
  104MOL   H11531221   7.049   5.852   4.558 -0.6234 -0.7817  2.4845
  104MOL   H11631222   6.782   5.877   4.441 -1.5140 -0.5747  3.8138
  104MOL   H11731223   7.210   6.159   4.333 -0.3780  0.2450  0.4569
  104MOL   H11831224   7.094   6.138   4.210  0.5239 -1.2664 -0.5163
  104MOL   H11931225   6.952   6.332   4.319 -0.8344 -1.2321  3.1993
  104MOL   H12031226   7.117   6.379   4.280  2.1516  0.8203  2.2979
  104MOL   H12131227   7.079   6.344   4.444  1.1325  0.6016 -0.0017
  104MOL   C12231228   6.815   6.000   4.596 -0.3324 -0.4560 -0.2402
  104MOL   C12331229   6.885   6.116   4.673 -1.3136 -0.2051 -0.5347
  104MOL   C12431230   7.010   6.062   4.740 -0.0532 -0.1771 -0.2360
  104MOL   O12531231   7.008   5.964   4.813 -0.2893  0.4948  0.2666
  104MOL   O12631232   7.101   6.147   4.717 -0.1740 -0.2434 -0.2517
  104MOL   C12731233   7.233   6.118   4.749 -0.3331  0.1771 -0.5136
  104MOL   C12831234   7.319   6.115   4.624  0.2141 -0.6712  0.2839
  104MOL   H12931235   6.716   6.035   4.568 -0.4611 -1.2734 -0.8435
  104MOL   H13031236   6.785   5.928   4.673 -0.0654  0.3273  0.5962
  104MOL   H13131237   6.909   6.189   4.596 -0.8818  0.7211  0.4690
  104MOL   H13231238   7.272   6.197   4.814  2.0182 -0.6582 -0.8726
  104MOL   H13331239   7.254   6.020   4.792  3.0236  1.3781  0.7249
  104MOL   H13431240   7.425   6.127   4.645 -0.0591  2.1863  0.1809
  104MOL   H13531241   7.297   6.210   4.574 -1.1057 -1.6808 -1.1119
  104MOL   H13631242   7.297   6.031   4.558  1.4601  0.0982 -1.1435
  104MOL   C13731243   6.775   6.166   4.778 -0.0103 -0.3213 -1.1516
  104MOL   C13831244   6.825   6.280   4.867  0.1544 -0.2828 -1.0075
  104MOL   C13931245   6.731   6.326   4.979  0.2038 -0.1309 -0.2402
  104MOL   O14031246   6.609   6.298   4.961 -0.4612  0.1513  0.0755
  104MOL   O14131247   6.784   6.391   5.083  0.1765  0.2146  0.0520
  104MOL   C14231248   6.694   6.421   5.187  0.4512 -0.2911 -0.3956
  104MOL   C14331249   6.774   6.475   5.306  0.8275  0.0485 -0.4435
  104MOL   H14431250   6.685   6.193   4.723 -2.2022 -1.6598  1.6500
  104MOL   H14531251   6.743   6.093   4.852  0.7271 -0.8248 -1.3137
  104MOL   H14631252   6.902   6.227   4.923 -0.0810  2.1142  1.6630
  104MOL   H14731253   6.617   6.489   5.152  0.7051  0.3487  0.2713
  104MOL   H14831254   6.638   6.339   5.232 -0.0894 -0.2555 -1.0083
  104MOL   H14931255   6.715   6.512   5.389  1.4715  1.8052 -0.7385
  104MOL   H15031256   6.850   6.550   5.283  0.6739  0.5351  0.6330
  104MOL   H15131257   6.832   6.392   5.348  1.3799  0.4492 -0.4012
  104MOL   C15231258   6.880   6.405   4.788  0.1395  0.5984 -0.2664
  104MOL   C15331259   6.790   6.471   4.677 -0.0928 -0.1048 -0.7922
  104MOL   C15431260   6.870   6.554   4.582 -0.7802  0.3719 -0.1676
  104MOL   O15531261   6.881   6.510   4.469  0.4028 -0.0133  0.0273
  104MOL   O15631262   6.925   6.668   4.636 -0.3131 -0.6432 -0.1691
  104MOL   C15731263   7.024   6.731   4.556  0.2475 -0.4291  0.0081
  104MOL   C15831264   7.080   6.856   4.615 -0.4943 -0.5859  0.0101
  104MOL   H15931265   6.916   6.475   4.863  1.9307  0.2068 -0.7479
  104MOL   H16031266   6.974   6.370   4.745  1.0314 -0.2173  2.2568
  104MOL   H16131267   6.744   6.397   4.611 -1.1780  0.3435 -0.5383
  104MOL   H16231268   7.111   6.668   4.539 -1.0151 -2.5919  1.2668
  104MOL   H16331269   6.981   6.758   4.460 -1.3578 -0.1829  0.7810
  104MOL   H16431270   7.141   6.828   4.701  1.0473  1.5684 -0.3283
  104MOL   H16531271   7.001   6.925   4.645  1.6366  1.2624  1.5817
  104MOL   H16631272   7.155   6.899   4.549 -1.3678  0.7545 -0.1309
  104MOL   C16731273   6.676   6.553   4.730  0.5941 -1.1277 -0.3775
  104MOL   C16831274   6.576   6.611   4.629  0.9001  0.5092  0.2301
  104MOL   C16931275   6.613   6.760   4.590  0.1528 -0.1742  0.6203
  104MOL   O17031276   6.622   6.796   4.472 -0.4970  0.0156 -0.0535
  104MOL   O17131277   6.638   6.840   4.692  0.2776  0.1356 -0.1108
  104MOL   C17231278   6.686   6.976   4.678 -0.0181  0.0929 -0.2525
  104MOL   C17331279   6.767   7.024   4.804 -0.3046 -0.0201  0.6730
  104MOL   H17431280   6.611   6.494   4.794 -0.6492  0.7560  0.1383
  104MOL   H17531281   6.710   6.630   4.798 -1.1191 -0.7715  0.0877
  104MOL   H17631282   6.581   6.557   4.534 -0.6854 -1.0061  0.9744
  104MOL   H17731283   6.752   6.988   4.592 -0.8321  1.8262 -0.6616
  104MOL   H17831284   6.594   7.030   4.653 -0.7595 -1.8994 -1.9157
  104MOL   H17931285   6.845   6.955   4.838  1.0638  0.2912 -1.7000
  104MOL   H18031286   6.702   7.056   4.885 -0.5427 -1.3160  1.0092
  104MOL   H18131287   6.820   7.115   4.778  1.6620 -1.1307  0.6713
  104MOL   C18231288   6.434   6.592   4.680 -0.2662  0.6215  0.6844
  104MOL   C18331289   6.312   6.639   4.596  0.6219  0.0207  0.8661
  104MOL   C18431290   6.275   6.791   4.606  0.7707 -0.2142  0.4121
  104MOL   O18531291   6.301   6.861   4.702 -0.5656  0.0398 -0.4770
  104MOL   O18631292   6.224   6.832   4.493  0.6050 -0.5044  0.0972
  104MOL   C18731293   6.224   6.970   4.462 -0.8131 -0.1725 -0.2436
  104MOL   C18831294   6.360   7.024   4.419 -0.0010  0.7073 -0.0863
  104MOL   H18931295   6.419   6.486   4.702  0.1030  0.4367  0.0250
  104MOL   H19031296   6.439   6.643   4.777 -0.4147  1.0008  0.4931
  104MOL   H19131297   6.336   6.620   4.491 -2.2276  1.6598 -0.1335
  104MOL   H19231298   6.158   6.983   4.376 -2.7046  1.0006  1.3583
  104MOL   H19331299   6.191   7.024   4.551  0.0381 -3.6525  2.2770
  104MOL   H19431300   6.341   7.127   4.388 -4.7151 -0.2167 -0.7452
  104MOL   H19531301   6.401   6.988   4.326 -0.5559  1.1813 -0.5231
  104MOL   H19631302   6.433   7.034   4.499 -0.7785  2.6073  0.4340
  104MOL   C19731303   6.182   6.554   4.600 -0.0910  0.1941 -0.4561
  104MOL   C19831304   6.119   6.547   4.744 -0.5601 -0.3144  0.3601
  104MOL   C19931305   6.176   6.421   4.819 -0.1534  0.2018 -0.2644
  104MOL   O20031306   6.148   6.307   4.784  0.1135  0.0760  0.3319
  104MOL   O20131307   6.241   6.460   4.929 -0.0734  0.5379  0.6375
  104MOL   C20231308   6.300   6.360   5.011 -0.2742  0.2370  0.3458
  104MOL   C20331309   6.194   6.323   5.121  0.5045  0.4189  0.8528
  104MOL   H20431310   6.117   6.602   4.527  0.4909 -1.9201 -2.4035
  104MOL   H20531311   6.204   6.462   4.546 -2.9591  0.2777 -1.8536
  104MOL   H20631312   6.150   6.641   4.790  1.3524 -0.1479 -1.1891
  104MOL   H20731313   6.322   6.270   4.954  0.1514 -0.2462  1.2659
  104MOL   H20831314   6.388   6.396   5.065  0.2732 -0.1644 -0.2766
  104MOL   H20931315   6.172   6.405   5.190 -0.4345  0.8263  0.0824
  104MOL   H21031316   6.221   6.237   5.183  0.9187  0.1511  0.3113
  104MOL   H21131317   6.105   6.296   5.065  1.8852  1.8838 -2.2074
  104MOL   C21231318   5.968   6.538   4.727 -0.5579 -0.0149 -0.1399
  104MOL   C21331319   5.868   6.542   4.836 -0.3608  0.4444  0.5212
  104MOL   C21431320   5.884   6.660   4.932 -0.7471 -0.4805  0.5483
  104MOL   O21531321   5.808   6.755   4.947  0.2354 -0.2337  0.2387
  104MOL   O21631322   5.996   6.656   5.008  1.2041  0.4981  0.5142
  104MOL   C21731323   6.038   6.764   5.092  0.3349  0.3379  0.4263
  104MOL   C21831324   6.144   6.850   5.023  0.4007  0.2108 -0.6922
  104MOL   H21931325   5.935   6.615   4.657 -0.4753 -0.5520 -0.7838
  104MOL   H22031326   5.944   6.451   4.665 -1.7981  0.1146  0.1436
  104MOL   H22131327   5.774   6.566   4.785 -0.5665  1.0705  1.1731
  104MOL   H22231328   5.954   6.819   5.134  0.7086  0.3982  1.1114
  104MOL   H22331329   6.073   6.718   5.185  0.8834 -1.2194 -0.5328
  104MOL   H22431330   6.225   6.793   4.978  2.2937  1.5864  0.8810
  104MOL   H22531331   6.182   6.911   5.105 -1.2474  0.7325 -0.2977
  104MOL   H22631332   6.097   6.911   4.946  1.4025  2.6982  0.6143
  104MOL   C22731333   5.840   6.401   4.896 -0.1499  0.4738 -0.0874
  104MOL   C22831334   5.726   6.396   4.996  0.1394 -0.4754 -0.7309
  104MOL   C22931335   5.781   6.374   5.142 -0.5603  0.4659  0.0216
  104MOL   O23031336   5.751   6.275   5.212  0.4063 -0.1398  0.6648
  104MOL   O23131337   5.867   6.467   5.182 -0.2348  0.3140  0.0996
  104MOL   C23231338   5.931   6.462   5.310  0.5537 -0.8668  0.2019
  104MOL   C23331339   5.839   6.486   5.431 -0.4813 -0.6391  0.3688
  104MOL   H23431340   5.820   6.322   4.824  0.1356 -0.2861  0.6620
  104MOL   H23531341   5.935   6.357   4.926 -0.4552 -0.3553 -0.3275
  104MOL   H23631342   5.671   6.490   4.989  1.8472  0.7321  1.4673
  104MOL   H23731343   5.977   6.364   5.318  0.7290 -0.5979  2.9659
  104MOL   H23831344   5.999   6.546   5.299 -1.1324  0.4433 -0.4686
  104MOL   H23931345   5.901   6.526   5.512  2.1953 -0.3313 -1.7258
  104MOL   H24031346   5.778   6.400   5.457 -0.1935 -1.1823 -0.7046
  104MOL   H24131347   5.770   6.562   5.395  2.0577  0.5378 -2.2957
  104MOL   C24231348   5.627   6.292   4.961 -0.1391 -0.0058 -0.0538
  104MOL   C24331349   5.487   6.296   5.028 -0.5002  0.2361 -0.1655
  104MOL   C24431350   5.398   6.205   4.952  0.2965  0.1336  0.3064
  104MOL   O24531351   5.398   6.085   4.972  0.3478 -0.4073  0.2628
  104MOL   O24631352   5.353   6.259   4.835 -0.3106 -0.1886 -0.4224
  104MOL   C24731353   5.282   6.178   4.748  0.6527 -0.2144  0.1869
  104MOL   C24831354   5.372   6.088   4.667 -0.1805 -0.0293 -0.2860
  104MOL   H24931355   5.603   6.304   4.856 -1.1047  1.7245  0.3483
  104MOL   H25031356   5.655   6.187   4.974 -0.2170 -0.1492 -1.0141
  104MOL   H25131357   5.491   6.246   5.124  0.6113  1.3120  0.3724
  104MOL   H25231358   5.212   6.116   4.804 -0.4624  0.7587 -0.1005
  104MOL   H25331359   5.221   6.249   4.691 -1.7399 -1.1286  1.5234
  104MOL   H25431360   5.430   6.023   4.732 -0.1573  0.2996  0.0255
  104MOL   H25531361   5.454   6.142   4.620 -1.0686  0.5416 -1.2153
  104MOL   H25631362   5.325   6.035   4.584 -0.9211  0.6638 -0.3201
  104MOL   C25731363   5.417   6.438   5.040  0.3342  0.6889  0.0641
  104MOL   C25831364   5.451   6.523   5.174 -0.3884 -0.3135  0.1406
  104MOL   C25931365   5.396   6.462   5.295  0.0926  0.5889 -0.4207
  104MOL   O26031366   5.282   6.413   5.299 -0.5710 -0.1031  0.4336
  104MOL   O26131367   5.481   6.466   5.408 -0.0814  0.2991  0.0107
  104MOL   C26231368   5.447   6.401   5.526  0.0992 -0.1579 -0.8570
  104MOL   C26331369   5.372   6.486   5.633 -1.2805  1.0988 -0.1065
  104MOL   H26431370   5.450   6.504   4.959  1.1807  1.2875  0.8763
  104MOL   H26531371   5.309   6.424   5.036  0.2375  1.5449 -0.5693
  104MOL   H26631372   5.560   6.529   5.175 -0.3590 -0.8543  0.4701
  104MOL   H26731373   5.393   6.310   5.501  1.2817 -1.2244  0.3166
  104MOL   H26831374   5.538   6.354   5.564  1.0902  0.7794 -2.0580
  104MOL   H26931375   5.278   6.524   5.595 -2.2851 -0.4443  0.7757
  104MOL   H27031376   5.427   6.576   5.662 -0.5658  0.3014  1.0487
  104MOL   H27131377   5.345   6.434   5.725  2.2829 -3.0953 -1.2854
  104MOL   C27231378   5.402   6.668   5.169  0.2986 -0.1503  0.0043
  104MOL   C27331379   5.496   6.765   5.090 -0.5895  0.3518  0.1469
  104MOL   C27431380   5.581   6.851   5.183  0.2005 -0.3353 -0.2538
  104MOL   O27531381   5.578   6.974   5.182  0.0107 -0.2266 -0.3064
  104MOL   O27631382   5.647   6.777   5.267  0.2639  0.3469  0.0695
  104MOL   C27731383   5.718   6.825   5.373  0.6024 -0.3009 -0.1054
  104MOL   C27831384   5.651   6.813   5.507  0.6658 -0.0583  0.2627
  104MOL   H27931385   5.303   6.655   5.125  0.0361  0.5778  0.3634
  104MOL   H28031386   5.379   6.698   5.272  1.1949  0.0917  0.1356
  104MOL   H28131387   5.575   6.713   5.036 -0.8846  1.4191 -1.3289
  104MOL   H28231388   5.807   6.761   5.376 -1.0498 -2.6535  4.6617
  104MOL   H28331389   5.756   6.926   5.354 -0.0366 -0.0101  0.1507
  104MOL   H28431390   5.723   6.838   5.586  0.0764  0.9068  0.5027
  104MOL   H28531391   5.614   6.711   5.510 -3.4524  1.2920 -1.4939
  104MOL   H28631392   5.565   6.879   5.523  0.7697  0.0906  0.2036
  104MOL   C28731393   5.424   6.846   4.986  0.0469  0.0894  0.2611
  104MOL   C28831394   5.334   6.783   4.879  0.4170  0.3219 -0.4359
  104MOL   C28931395   5.397   6.742   4.750 -0.5569 -0.0287  0.2726
  104MOL   O29031396   5.518   6.724   4.740 -0.0782  0.5979  0.7072
  104MOL   O29131397   5.301   6.717   4.660  0.4923 -0.4423 -0.2748
  104MOL   C29231398   5.323   6.694   4.523 -0.2520  0.3166 -0.6873
  104MOL   C29331399   5.357   6.544   4.515 -0.3238 -0.6372 -0.4895
  104MOL   H29431400   5.366   6.910   5.053 -0.8242 -0.4194 -0.0038
  104MOL   H29531401   5.490   6.913   4.931 -2.0516 -0.0673 -2.5674
  104MOL   H29631402   5.270   6.705   4.920 -0.1568  0.6630 -0.6685
  104MOL   H29731403   5.230   6.722   4.474  0.7138  2.6457 -1.2572
  104MOL   H29831404   5.406   6.746   4.477  0.9753 -2.0751 -1.2697
  104MOL   H29931405   5.290   6.481   4.574 -1.7001  2.8519  1.8633
  104MOL   H30031406   5.461   6.525   4.539  0.2323 -1.8647 -3.5842
  104MOL   H30131407   5.341   6.508   4.413  2.1045 -0.8535 -0.8282
  104MOL   H30231408   5.259   6.856   4.848  2.9454  2.3765 -1.9254
  105MOL     C131409   6.292   5.144   0.259 -0.1197 -0.0893 -0.4350
  105MOL     C231410   6.426   5.226   0.269  0.2689 -0.6219 -0.1858
  105MOL     C331411   6.508   5.171   0.390  0.1259 -0.1703 -0.8051
  105MOL     O431412   6.615   5.106   0.370  0.4643 -0.4289 -0.9131
  105MOL     O531413   6.461   5.224   0.506  0.0453  0.5669 -0.2850
  105MOL     C631414   6.556   5.225   0.621  0.1148  0.2307 -0.6464
  105MOL     C731415   6.487   5.190   0.748  0.6728 -0.0506 -0.0093
  105MOL     H831416   6.242   5.132   0.355  0.4953  0.3583 -0.0600
  105MOL     H931417   6.294   5.045   0.213 -2.3886  0.1141 -1.0547
  105MOL    H1031418   6.494   5.201   0.188 -0.1921  2.8145 -1.7255
  105MOL    H1131419   6.634   5.153   0.597  0.5703 -0.6899  3.2152
  105MOL    H1231420   6.594   5.327   0.628 -1.1544  0.6515  0.2203
  105MOL    H1331421   6.416   5.267   0.782 -0.3179  0.5153 -3.1980
  105MOL    H1431422   6.560   5.174   0.828  0.3696  0.5678  0.4008
  105MOL    H1531423   6.423   5.104   0.729 -2.5301  1.5424  2.8837
  105MOL    H1631424   6.223   5.208   0.204  0.9282 -0.8172 -2.6620
  105MOL    C1731425   6.390   5.376   0.271  0.1486 -0.6404  0.2926
  105MOL    C1831426   6.494   5.487   0.287 -0.0977  0.3474 -0.3868
  105MOL    C1931427   6.423   5.619   0.328 -0.2889  0.3366  0.2242
  105MOL    O2031428   6.459   5.689   0.424  0.1949  0.0134 -0.7700
  105MOL    O2131429   6.319   5.650   0.254 -0.6035  0.4186 -0.3103
  105MOL    C2231430   6.247   5.763   0.275 -1.3460 -0.3245  0.2925
  105MOL    C2331431   6.112   5.755   0.195  1.0123  0.3910 -0.6468
  105MOL    H2431432   6.344   5.398   0.175 -1.3390 -0.6291  0.9796
  105MOL    H2531433   6.302   5.385   0.336 -0.4753  1.4844 -0.8060
  105MOL    H2631434   6.561   5.468   0.370  0.9551  2.0242 -0.8251
  105MOL    H2731435   6.232   5.775   0.382  0.4303  2.5874  0.2835
  105MOL    H2831436   6.307   5.844   0.233 -0.2851 -1.8146 -1.1581
  105MOL    H2931437   6.050   5.672   0.229 -0.0304  1.4023 -0.0361
  105MOL    H3031438   6.141   5.749   0.090  1.8814  0.2476 -0.3980
  105MOL    H3131439   6.054   5.847   0.200 -2.3947 -1.7559  2.4277
  105MOL    C3231440   6.576   5.515   0.160 -0.1820  0.4788 -0.9408
  105MOL    C3331441   6.711   5.588   0.184 -0.5059  0.1782  0.4786
  105MOL    C3431442   6.780   5.619   0.049  0.0512 -0.3443 -0.3190
  105MOL    O3531443   6.780   5.729   7.901 -0.0638 -0.4035  0.2844
  105MOL    O3631444   6.842   5.514   7.904 -0.3035  0.0348 -0.4599
  105MOL    C3731445   6.923   5.518   7.790  0.0931 -0.5417 -0.4084
  105MOL    C3831446   7.056   5.442   7.818 -1.3184  0.9678 -0.1009
  105MOL    H3931447   6.599   5.421   0.108  0.9400 -0.3907  1.0394
  105MOL    H4031448   6.525   5.564   0.078  0.4281 -0.8203 -2.1365
  105MOL    H4131449   6.687   5.690   0.212 -0.2379  0.7234 -1.1915
  105MOL    H4231450   6.860   5.486   7.707  0.5766 -1.4280 -0.4342
  105MOL    H4331451   6.945   5.621   7.761  1.9516  0.4394  3.9960
  105MOL    H4431452   7.035   5.350   7.874  1.6516 -0.4206 -1.1776
  105MOL    H4531453   7.128   5.495   7.881  0.8297 -0.5023 -1.2656
  105MOL    H4631454   7.108   5.414   7.727  0.4177  0.9193  0.8754
  105MOL    C4731455   6.803   5.518   0.293 -0.7699  0.6341 -0.0253
  105MOL    C4831456   6.810   5.607   0.422 -0.0971  0.2743  0.1398
  105MOL    C4931457   6.880   5.746   0.395 -0.1008 -0.2532  0.4063
  105MOL    O5031458   7.002   5.744   0.375 -0.0462  0.3438  0.5118
  105MOL    O5131459   6.797   5.853   0.402  0.0228 -0.8592  0.5143
  105MOL    C5231460   6.847   5.987   0.379  0.1706 -0.4665  0.1885
  105MOL    C5331461   6.845   6.007   0.229 -0.0184  0.5897  0.1594
  105MOL    H5431462   6.765   5.419   0.319  2.4154 -0.1050  2.0812
  105MOL    H5531463   6.906   5.503   0.261 -0.7956 -1.0280  0.6202
  105MOL    H5631464   6.705   5.621   0.447 -0.1681 -0.2381  0.1341
  105MOL    H5731465   6.780   6.062   0.423  1.4580 -0.3932  2.1032
  105MOL    H5831466   6.945   6.007   0.422 -1.0286  1.0818  2.3657
  105MOL    H5931467   6.865   6.112   0.209  1.0345 -0.0126 -2.1484
  105MOL    H6031468   6.750   5.985   0.180  0.5639 -1.8416  0.0522
  105MOL    H6131469   6.923   5.938   0.196 -0.4466 -1.3495  2.9673
  105MOL    C6231470   6.880   5.536   0.534  0.0893 -0.3964  0.1023
  105MOL    C6331471   6.844   5.573   0.682  0.4772 -0.3582 -0.6751
  105MOL    C6431472   6.847   5.721   0.720 -0.3432 -0.1498  0.3323
  105MOL    O6531473   6.743   5.788   0.729 -0.1396  0.3959 -0.3850
  105MOL    O6631474   6.969   5.776   0.734  0.1677  0.0472 -1.0010
  105MOL    C6731475   6.970   5.913   0.771  0.7518  0.2903 -0.4272
  105MOL    C6831476   7.117   5.966   0.784  0.2945 -0.0943  1.3244
  105MOL    H6931477   6.849   5.432   0.518  0.9022 -0.4397 -1.2572
  105MOL    H7031478   6.989   5.533   0.523  0.2721 -0.1642  1.7454
  105MOL    H7131479   6.736   5.555   0.683  0.6135 -1.1612  0.2151
  105MOL    H7231480   6.906   5.976   0.709  0.8385 -0.2690 -1.0851
  105MOL    H7331481   6.931   5.926   0.873  0.3053 -1.9854 -0.2840
  105MOL    H7431482   7.152   6.017   0.694 -3.5066  0.4932  0.0899
  105MOL    H7531483   7.180   5.878   0.790  1.1259  0.4155  0.2858
  105MOL    H7631484   7.133   6.038   0.864 -0.7520  0.2023  1.2776
  105MOL    C7731485   6.904   5.489   0.796  0.0067  0.0205  0.2454
  105MOL    C7831486   6.810   5.392   0.875  0.4512  0.2149 -0.3072
  105MOL    C7931487   6.695   5.462   0.953 -0.3323  0.0092 -0.3737
  105MOL    O8031488   6.589   5.406   0.963  0.3940 -0.0151  0.3072
  105MOL    O8131489   6.735   5.572   1.019 -0.3796  0.6273 -0.9476
  105MOL    C8231490   6.649   5.641   1.111 -0.6591  0.5145  0.1182
  105MOL    C8331491   6.634   5.776   1.054  0.0679 -0.3627  0.0556
  105MOL    H8431492   6.989   5.443   0.744 -0.7058  2.3925 -3.1995
  105MOL    H8531493   6.957   5.546   0.873  3.4211 -0.5632 -1.5741
  105MOL    H8631494   6.759   5.336   0.796 -1.4174  0.2525  0.8503
  105MOL    H8731495   6.551   5.596   1.125  0.5882 -2.2454  0.2717
  105MOL    H8831496   6.689   5.653   1.211  0.9210  1.4535 -0.6074
  105MOL    H8931497   6.585   5.847   1.120  1.2617  1.1996 -0.7109
  105MOL    H9031498   6.573   5.776   0.963  0.6980 -1.6173 -0.3806
  105MOL    H9131499   6.728   5.823   1.024  0.9319 -1.6775  0.6480
  105MOL    C9231500   6.882   5.298   0.968 -0.2301  0.8591  0.1952
  105MOL    C9331501   6.975   5.353   1.088  0.2447 -0.1387 -0.3766
  105MOL    C9431502   7.118   5.383   1.041 -0.3802  0.3453 -0.2106
  105MOL    O9531503   7.152   5.501   1.016 -0.0071 -0.2352  0.2896
  105MOL    O9631504   7.189   5.273   1.027 -0.1391  0.3860 -0.0838
  105MOL    C9731505   7.319   5.281   0.967 -0.0242  0.0635  0.0144
  105MOL    C9831506   7.405   5.187   1.053 -0.2315 -0.1318  0.9916
  105MOL    H9931507   6.810   5.221   0.996  1.6064 -0.5909  1.0333
  105MOL   H10031508   6.942   5.227   0.911  0.3749  0.9785  0.6755
  105MOL   H10131509   6.935   5.444   1.133  1.3335  0.1086  0.1014
  105MOL   H10231510   7.316   5.236   0.868 -1.7102  0.4422 -0.1170
  105MOL   H10331511   7.356   5.383   0.972  0.1456 -0.0321  0.9004
  105MOL   H10431512   7.412   5.218   1.157  0.5330 -1.9370  1.4875
  105MOL   H10531513   7.506   5.193   1.014 -0.9001  1.1951 -0.6138
  105MOL   H10631514   7.366   5.085   1.052  0.3928 -0.3756  1.1449
  105MOL   C10731515   6.976   5.247   1.203 -0.0477 -0.4356  0.5110
  105MOL   C10831516   6.893   5.274   1.328 -0.9249  0.2127 -0.1086
  105MOL   C10931517   6.739   5.254   1.317  0.3156  0.6654  0.4673
  105MOL   O11031518   6.680   5.156   1.357  1.0139  0.1376 -0.2901
  105MOL   O11131519   6.679   5.359   1.266 -0.9579  0.0383  0.0149
  105MOL   C11231520   6.537   5.353   1.261  0.1894 -0.0140  0.0331
  105MOL   C11331521   6.477   5.370   1.403  0.1948 -0.2754 -0.7023
  105MOL   H11431522   6.932   5.156   1.162  2.2109 -1.5516  0.4649
  105MOL   H11531523   7.077   5.219   1.234 -0.1073 -0.6882  0.4719
  105MOL   H11631524   6.928   5.202   1.402  1.5353 -1.0152 -2.3939
  105MOL   H11731525   6.501   5.441   1.209  0.4447 -0.7815 -1.4484
  105MOL   H11831526   6.502   5.267   1.204  2.0366 -1.3343  0.8357
  105MOL   H11931527   6.534   5.440   1.465 -0.3580 -0.1491 -0.3308
  105MOL   H12031528   6.466   5.274   1.453  0.0312  0.0457 -0.1129
  105MOL   H12131529   6.375   5.410   1.399  0.7250  1.1230 -0.6871
  105MOL   C12231530   6.925   5.409   1.396  0.1620 -0.3639  0.6286
  105MOL   C12331531   6.882   5.399   1.545 -0.0577 -0.2239  0.3953
  105MOL   C12431532   6.857   5.536   1.609  0.6449 -0.0997 -0.1124
  105MOL   O12531533   6.749   5.569   1.662 -0.5041  0.0635  0.3267
  105MOL   O12631534   6.973   5.613   1.598  0.5830 -0.4299 -0.0810
  105MOL   C12731535   6.992   5.716   1.689 -0.7255 -0.2642 -0.0956
  105MOL   C12831536   7.141   5.722   1.719  0.4906  0.1103 -0.3425
  105MOL   H12931537   7.030   5.438   1.399  0.3189 -0.5349 -2.0820
  105MOL   H13031538   6.879   5.497   1.353 -1.1496 -1.0462  0.6272
  105MOL   H13131539   6.785   5.349   1.541 -0.2128  0.0356  0.9727
  105MOL   H13231540   6.974   5.821   1.664  1.9682 -0.2300 -2.1343
  105MOL   H13331541   6.949   5.690   1.786  1.2977 -1.3392  0.5339
  105MOL   H13431542   7.207   5.728   1.633  0.3696 -0.7558 -0.5025
  105MOL   H13531543   7.166   5.627   1.767 -0.0868 -0.1671 -0.5983
  105MOL   H13631544   7.174   5.802   1.785 -2.1232  0.2500  0.8535
  105MOL   C13731545   6.983   5.312   1.632 -0.5478 -0.7723  0.3151
  105MOL   C13831546   6.916   5.249   1.759 -0.4988  0.1111 -0.1986
  105MOL   C13931547   7.023   5.195   1.857  0.3040  0.6241 -0.5307
  105MOL   O14031548   7.027   5.236   1.973  0.0760  0.0788  0.4317
  105MOL   O14131549   7.106   5.104   1.798  0.3084 -0.4877  0.1548
  105MOL   C14231550   7.214   5.043   1.871  0.7930  0.8894 -1.0297
  105MOL   C14331551   7.171   4.935   1.969 -0.3741  0.5149 -0.5837
  105MOL   H14431552   7.043   5.238   1.579  1.3716  0.0932  1.2450
  105MOL   H14531553   7.059   5.384   1.661 -0.1368 -2.1027  2.6100
  105MOL   H14631554   6.854   5.324   1.809 -0.4801  0.6293 -0.9556
  105MOL   H14731555   7.275   4.984   1.803 -1.3242 -0.3011 -1.9689
  105MOL   H14831556   7.271   5.120   1.923  1.6059 -0.5211  0.1784
  105MOL   H14931557   7.123   4.963   2.063  0.9433 -2.8214  1.1847
  105MOL   H15031558   7.260   4.878   1.996 -0.8271  0.8219  1.6565
  105MOL   H15131559   7.110   4.863   1.914  1.0818  0.5113 -2.2543
  105MOL   C15231560   6.823   5.135   1.714 -0.2497  0.6823  0.3748
  105MOL   C15331561   6.723   5.084   1.825 -0.0087 -0.3280 -0.6257
  105MOL   C15431562   6.781   4.955   1.886 -0.0790 -1.0358 -0.1123
  105MOL   O15531563   6.835   4.874   1.819 -0.3846  0.3629  0.1671
  105MOL   O15631564   6.759   4.939   2.021  0.2359  0.0953  0.2533
  105MOL   C15731565   6.797   4.822   2.093  0.0859  0.4256  0.6647
  105MOL   C15831566   6.696   4.717   2.089 -0.2463  0.4366 -0.2455
  105MOL   H15931567   6.761   5.159   1.627 -1.6399 -0.9643  0.8841
  105MOL   H16031568   6.889   5.061   1.669 -3.2321 -2.6395  1.2275
  105MOL   H16131569   6.728   5.153   1.909  1.0517  0.3763 -1.2553
  105MOL   H16231570   6.900   4.803   2.064  0.2604  1.5442  0.5070
  105MOL   H16331571   6.808   4.844   2.200 -0.9028 -3.7584  1.7001
  105MOL   H16431572   6.679   4.672   1.991  3.9339 -0.5306 -0.6321
  105MOL   H16531573   6.609   4.756   2.143 -0.9727 -2.2621  0.6071
  105MOL   H16631574   6.716   4.631   2.153 -0.9913 -0.7484 -1.5716
  105MOL   C16731575   6.580   5.066   1.789 -1.3435 -0.4364 -0.2395
  105MOL   C16831576   6.506   5.197   1.731 -0.2008  0.1297 -0.7575
  105MOL   C16931577   6.499   5.321   1.827  0.8897  0.4355 -0.2750
  105MOL   O17031578   6.546   5.331   1.942  0.2725 -0.1239  0.4435
  105MOL   O17131579   6.426   5.417   1.767 -0.2346  0.0075  0.3692
  105MOL   C17231580   6.409   5.534   1.837  0.2478  0.5090  0.1589
  105MOL   C17331581   6.313   5.616   1.762  0.7406 -0.2931 -0.2382
  105MOL   H17431582   6.581   4.980   1.722 -2.1400  0.2650 -1.1755
  105MOL   H17531583   6.537   5.016   1.875 -1.1833 -0.5740 -0.2387
  105MOL   H17631584   6.568   5.241   1.654 -1.3437  3.6048  0.2229
  105MOL   H17731585   6.356   5.508   1.929 -0.1180  1.0952  0.1154
  105MOL   H17831586   6.505   5.585   1.846  1.0272 -0.6643 -1.2912
  105MOL   H17931587   6.212   5.575   1.761  0.6125 -0.0335  1.0403
  105MOL   H18031588   6.348   5.643   1.663 -3.6403  0.8344 -1.6082
  105MOL   H18131589   6.303   5.715   1.806  1.5106 -1.2728  2.2426
  105MOL   C18231590   6.362   5.161   1.686 -0.6809 -0.6941  0.1066
  105MOL   C18331591   6.263   5.112   1.797 -0.3196 -0.5235 -0.8517
  105MOL   C18431592   6.230   4.965   1.775  0.9390  0.0948 -0.2821
  105MOL   O18531593   6.137   4.928   1.700 -0.3159 -0.0346 -0.2521
  105MOL   O18631594   6.310   4.884   1.842 -0.2668  0.4930  0.2791
  105MOL   C18731595   6.294   4.749   1.830 -0.5107 -0.2007  0.9113
  105MOL   C18831596   6.427   4.696   1.867 -0.1384 -0.2272  0.1291
  105MOL   H18931597   6.315   5.246   1.635  0.2857 -0.1547  0.0974
  105MOL   H19031598   6.378   5.095   1.601  2.4819  1.3641 -0.9909
  105MOL   H19131599   6.316   5.125   1.891 -1.8675 -0.7179  0.0732
  105MOL   H19231600   6.220   4.710   1.899 -1.9915 -0.4352 -0.7764
  105MOL   H19331601   6.282   4.721   1.725  0.0381  0.4446  0.6715
  105MOL   H19431602   6.458   4.740   1.962 -1.9692  0.0016  0.6313
  105MOL   H19531603   6.503   4.725   1.794  0.7520 -2.5255  0.0967
  105MOL   H19631604   6.415   4.588   1.865  4.7997 -0.8603 -1.3170
  105MOL   C19731605   6.126   5.191   1.818  0.2421  0.3945  0.4321
  105MOL   C19831606   6.061   5.178   1.965  0.0291 -0.0900 -0.2042
  105MOL   C19931607   6.161   5.230   2.069 -0.2112 -0.1059 -0.0656
  105MOL   O20031608   6.211   5.151   2.152  0.0888 -0.1788 -0.3821
  105MOL   O20131609   6.178   5.364   2.058 -0.6404  0.3311  0.2367
  105MOL   C20231610   6.235   5.424   2.175  0.3872  0.2385 -0.0207
  105MOL   C20331611   6.193   5.566   2.189 -0.7474  0.9708  0.2937
  105MOL   H20431612   6.142   5.295   1.791 -1.5491  0.3000 -1.1458
  105MOL   H20531613   6.053   5.168   1.739 -1.3058  0.3910  1.8342
  105MOL   H20631614   5.980   5.250   1.977  1.1867  1.1911  0.0339
  105MOL   H20731615   6.194   5.373   2.262 -3.3332 -4.0564 -4.0012
  105MOL   H20831616   6.342   5.401   2.181  0.2102 -0.6612 -0.1912
  105MOL   H20931617   6.233   5.604   2.283 -1.3989 -0.5384  1.1949
  105MOL   H21031618   6.086   5.584   2.188 -0.6899  1.3606 -2.1436
  105MOL   H21131619   6.239   5.627   2.110 -0.7238  0.6643  0.0711
  105MOL   C21231620   6.003   5.036   2.001 -0.5822 -0.2882 -0.4495
  105MOL   C21331621   5.875   4.994   1.931 -0.4039  0.1285 -0.3739
  105MOL   C21431622   5.750   5.075   1.966  0.6048  0.5727 -0.0228
  105MOL   O21531623   5.753   5.178   2.026 -0.1436 -0.2630 -0.2267
  105MOL   O21631624   5.633   5.011   1.923  0.6175 -0.6884  0.3441
  105MOL   C21731625   5.508   5.050   1.977  0.5747 -0.1628  0.0441
  105MOL   C21831626   5.400   4.958   1.927  0.3119  0.1089 -0.0988
  105MOL   H21931627   6.074   4.958   1.973 -0.0618 -0.1159  0.3715
  105MOL   H22031628   5.991   5.038   2.110 -0.7927  1.2341 -0.4908
  105MOL   H22131629   5.894   5.005   1.824 -0.6548 -0.6701 -0.5045
  105MOL   H22231630   5.518   5.050   2.085  0.9160 -0.4587  0.0133
  105MOL   H22331631   5.487   5.149   1.937 -0.9767 -0.4895 -0.0084
  105MOL   H22431632   5.309   4.971   1.986 -0.5737  0.9723 -1.6107
  105MOL   H22531633   5.440   4.857   1.925 -1.1277 -0.4566 -1.6178
  105MOL   H22631634   5.377   4.996   1.827 -2.5450  1.2943  0.9353
  105MOL   C22731635   5.854   4.839   1.948  0.4718 -0.0572 -0.3785
  105MOL   C22831636   5.831   4.794   2.099 -0.1598  0.0832  0.5381
  105MOL   C22931637   5.959   4.714   2.156  0.1278 -0.5458 -0.1880
  105MOL   O23031638   5.984   4.601   2.122 -0.0348 -0.3506  0.0211
  105MOL   O23131639   6.025   4.789   2.240  0.5410  0.2247  0.1452
  105MOL   C23231640   6.146   4.743   2.307 -0.2795 -0.2775  0.0621
  105MOL   C23331641   6.271   4.820   2.267  0.0747 -0.3492 -0.1374
  105MOL   H23431642   5.766   4.804   1.894 -0.9994 -1.4429  2.7667
  105MOL   H23531643   5.930   4.787   1.890 -1.4280 -1.8546 -1.3262
  105MOL   H23631644   5.839   4.890   2.149  3.6170  0.5601 -0.7743
  105MOL   H23731645   6.130   4.745   2.414  0.4857 -2.3926  0.2549
  105MOL   H23831646   6.167   4.640   2.276 -0.4830 -0.6761  1.2121
  105MOL   H23931647   6.280   4.822   2.158  0.4510  0.6154 -0.0947
  105MOL   H24031648   6.359   4.776   2.313  1.3745 -0.4187 -2.6370
  105MOL   H24131649   6.254   4.924   2.295  0.7139 -0.2714 -0.0481
  105MOL   C24231650   5.695   4.727   2.126  0.2767 -0.0157 -0.0973
  105MOL   C24331651   5.636   4.729   2.269 -0.1664 -0.0324  0.0821
  105MOL   C24431652   5.505   4.655   2.282  0.6836 -0.0204  0.1158
  105MOL   O24531653   5.486   4.572   2.364 -0.2642  0.2177  0.9190
  105MOL   O24631654   5.407   4.711   2.187  0.4531  0.0298  0.4280
  105MOL   C24731655   5.282   4.644   2.188  1.1967  0.6813 -1.1548
  105MOL   C24831656   5.190   4.759   2.230  0.4592 -0.4710 -0.2587
  105MOL   H24931657   5.623   4.776   2.060 -0.2587 -0.9368 -0.2062
  105MOL   H25031658   5.695   4.627   2.082  0.7219 -0.7018  1.4371
  105MOL   H25131659   5.709   4.670   2.325  0.4560  1.4819  0.8852
  105MOL   H25231660   5.257   4.600   2.092  2.3837 -0.2723 -1.0461
  105MOL   H25331661   5.283   4.557   2.254  3.9866  1.2609 -0.3578
  105MOL   H25431662   5.088   4.722   2.221  0.0431  0.5443  0.1799
  105MOL   H25531663   5.195   4.846   2.164  1.7383  0.0115  0.4354
  105MOL   H25631664   5.202   4.789   2.335 -0.5264  1.4918 -0.6811
  105MOL   C25731665   5.621   4.865   2.341 -0.2012 -0.0637  0.7046
  105MOL   C25831666   5.750   4.909   2.417  0.1346 -0.2331  0.3976
  105MOL   C25931667   5.765   4.809   2.535  0.3770  0.6992 -0.2109
  105MOL   O26031668   5.869   4.743   2.563  0.0596  0.7004 -0.1589
  105MOL   O26131669   5.651   4.796   2.612 -1.0387 -0.1584  0.9007
  105MOL   C26231670   5.662   4.716   2.729  0.0635  0.6270  0.6265
  105MOL   C26331671   5.534   4.729   2.798 -0.3190 -0.8268 -0.1082
  105MOL   H26431672   5.600   4.943   2.267  0.7488  0.1102  0.6174
  105MOL   H26531673   5.532   4.857   2.403 -1.3880  3.7315 -0.3833
  105MOL   H26631674   5.839   4.922   2.355  0.3770 -2.0866  0.3035
  105MOL   H26731675   5.690   4.615   2.697  1.5795  0.7277  1.5853
  105MOL   H26831676   5.745   4.754   2.789  1.0590  0.5011 -0.6296
  105MOL   H26931677   5.442   4.706   2.743 -0.9200 -0.5399  0.7596
  105MOL   H27031678   5.517   4.823   2.851 -2.4470 -0.7904 -0.7847
  105MOL   H27131679   5.526   4.667   2.888 -2.1023 -0.4246  0.0333
  105MOL   C27231680   5.720   5.052   2.478  0.0957  0.3896  0.0761
  105MOL   C27331681   5.820   5.108   2.580  0.0513 -0.3262 -0.6812
  105MOL   C27431682   5.750   5.207   2.678  0.0221 -0.3135 -0.3843
  105MOL   O27531683   5.643   5.261   2.649 -0.5081 -0.1433 -0.2891
  105MOL   O27631684   5.807   5.222   2.792 -0.0906 -0.2923 -0.3131
  105MOL   C27731685   5.774   5.314   2.896  0.1333 -1.1272  0.2261
  105MOL   C27831686   5.813   5.454   2.857 -0.1701 -0.1926 -0.0635
  105MOL   H27931687   5.695   5.127   2.402  1.6425  0.4155 -0.4332
  105MOL   H28031688   5.626   5.036   2.530 -0.1392 -0.0393 -0.4808
  105MOL   H28131689   5.854   5.026   2.644  0.0766 -0.3993 -0.7880
  105MOL   H28231690   5.671   5.312   2.932  1.1476 -0.5500  3.3502
  105MOL   H28331691   5.833   5.290   2.985 -1.3662  0.1209  1.5757
  105MOL   H28431692   5.806   5.520   2.944 -1.9863 -2.3818  1.4916
  105MOL   H28531693   5.731   5.497   2.799 -0.1982  1.5081  1.1842
  105MOL   H28631694   5.903   5.461   2.796 -0.1256 -3.5235 -0.4441
  105MOL   C28731695   5.935   5.184   2.500  0.1333 -0.0082  0.0091
  105MOL   C28831696   6.063   5.096   2.497  0.1726 -0.3493  0.0946
  105MOL   C28931697   6.183   5.159   2.572 -0.2517  0.1367 -0.3094
  105MOL   O29031698   6.270   5.209   2.504 -0.0569  0.1818 -0.1788
  105MOL   O29131699   6.166   5.157   2.713  0.1342 -0.1793  0.1206
  105MOL   C29231700   6.269   5.195   2.798  0.2585  0.3915  0.0282
  105MOL   C29331701   6.320   5.089   2.891 -0.4919  0.1050 -0.0562
  105MOL   H29431702   5.902   5.203   2.398  0.7214 -2.0795 -0.5850
  105MOL   H29531703   5.955   5.284   2.539  0.4763 -0.0802  0.0172
  105MOL   H29631704   6.054   4.992   2.530  1.6848 -0.9893 -1.3989
  105MOL   H29731705   6.352   5.239   2.743  2.1253 -2.7176  0.2592
  105MOL   H29831706   6.226   5.273   2.861 -0.7301  1.0343 -1.4049
  105MOL   H29931707   6.322   4.999   2.830 -2.7625 -0.5314  0.7329
  105MOL   H30031708   6.258   5.062   2.977  0.1041 -0.2402  0.2671
  105MOL   H30131709   6.416   5.121   2.930  0.3642  0.5763 -2.4976
  105MOL   H30231710   6.083   5.092   2.390 -1.9463  0.8034 -0.3586
  106MOL     C131711   6.606   5.119   4.742  0.1700  0.6466  0.6184
  106MOL     C231712   6.476   5.202   4.737 -0.2970 -0.5147 -0.3200
  106MOL     C331713   6.505   5.340   4.798  0.8487 -0.8122 -0.0178
  106MOL     O431714   6.420   5.400   4.870 -0.4340  0.8150 -0.3477
  106MOL     O531715   6.636   5.386   4.765  0.9010  1.2600 -0.4366
  106MOL     C631716   6.681   5.513   4.806 -0.5729  0.1674  0.1046
  106MOL     C731717   6.775   5.501   4.928 -0.1191  0.0016  0.0845
  106MOL     H831718   6.677   5.133   4.661  0.4936 -0.4978  0.6954
  106MOL     H931719   6.566   5.019   4.723  1.7365  0.0074  0.5769
  106MOL    H1031720   6.446   5.216   4.633 -1.7995 -2.6659 -0.2209
  106MOL    H1131721   6.731   5.573   4.729  0.8509 -0.3407  0.6181
  106MOL    H1231722   6.594   5.576   4.827  0.1480  1.0725  0.4234
  106MOL    H1331723   6.791   5.600   4.969 -0.9262  0.3203 -0.3579
  106MOL    H1431724   6.862   5.444   4.894 -1.0480 -1.6250  0.3698
  106MOL    H1531725   6.724   5.449   5.009 -0.2361 -1.7081 -1.0570
  106MOL    H1631726   6.657   5.125   4.838 -1.5676  2.3127  1.4801
  106MOL    C1731727   6.348   5.137   4.793  0.2095 -0.0877  1.3102
  106MOL    C1831728   6.362   5.086   4.931 -0.1683  0.3610 -0.3276
  106MOL    C1931729   6.422   4.946   4.929  0.1530  0.0895 -0.1741
  106MOL    O2031730   6.531   4.917   4.980 -0.0790 -0.1234 -0.2686
  106MOL    O2131731   6.341   4.856   4.860  0.0431 -0.7282  0.8776
  106MOL    C2231732   6.376   4.726   4.828 -0.0557  0.1494 -0.4896
  106MOL    C2331733   6.368   4.635   4.951 -0.3300 -0.7619 -0.2252
  106MOL    H2431734   6.258   5.196   4.778 -0.4154 -1.5611 -0.8977
  106MOL    H2531735   6.327   5.054   4.726 -0.3263  0.7013  0.4938
  106MOL    H2631736   6.433   5.144   4.990  0.7323  0.4191 -1.4512
  106MOL    H2731737   6.315   4.689   4.745 -1.0242  1.1298 -0.2416
  106MOL    H2831738   6.479   4.732   4.795 -0.5144 -0.5822 -2.1077
  106MOL    H2931739   6.462   4.618   5.004 -0.8800 -0.4615  0.8561
  106MOL    H3031740   6.346   4.540   4.903 -1.6319 -0.5802 -0.0014
  106MOL    H3131741   6.290   4.666   5.020 -0.9603  0.3652 -1.4191
  106MOL    C3231742   6.227   5.092   5.006  0.9894 -0.0339  0.3282
  106MOL    C3331743   6.212   5.174   5.133  0.6339  0.2194 -0.0780
  106MOL    C3431744   6.298   5.100   5.241 -0.8596  0.0128 -0.5133
  106MOL    O3531745   6.367   5.170   5.319  0.7288  0.7292  0.0973
  106MOL    O3631746   6.277   4.963   5.251  0.8439  0.3129 -0.1919
  106MOL    C3731747   6.354   4.886   5.338  0.4369  0.5679 -0.1319
  106MOL    C3831748   6.490   4.857   5.283 -1.2052 -0.5704  0.3299
  106MOL    H3931749   6.158   5.153   4.948  0.3045 -0.5729  0.5809
  106MOL    H4031750   6.186   4.991   5.009 -0.8369  0.7329  1.8345
  106MOL    H4131751   6.249   5.275   5.116  0.6235 -0.0067 -1.4989
  106MOL    H4231752   6.359   4.933   5.437 -1.5774  0.3274  0.1013
  106MOL    H4331753   6.286   4.805   5.360 -0.6485  1.0015 -1.8363
  106MOL    H4431754   6.534   4.804   5.368  0.9128  1.6635  0.6618
  106MOL    H4531755   6.542   4.949   5.260  0.0917 -1.4026 -0.1389
  106MOL    H4631756   6.493   4.785   5.201 -1.9820  0.5792 -0.7213
  106MOL    C4731757   6.067   5.173   5.196 -0.8915  0.2595  0.3502
  106MOL    C4831758   5.959   5.240   5.103  0.0970  0.3684 -0.2479
  106MOL    C4931759   5.998   5.379   5.052 -0.0772  0.6197 -0.4486
  106MOL    O5031760   6.009   5.474   5.128 -0.1661 -0.2849  0.0345
  106MOL    O5131761   6.039   5.385   4.928  0.3152 -0.0920 -0.6502
  106MOL    C5231762   6.080   5.506   4.862  0.3510  0.5645  0.4223
  106MOL    C5331763   6.116   5.463   4.716  0.1274  0.5679 -0.3490
  106MOL    H5431764   6.044   5.071   5.226 -2.6916  0.2628 -0.8821
  106MOL    H5531765   6.078   5.221   5.293  0.0040  2.4523 -0.8135
  106MOL    H5631766   5.948   5.180   5.012  1.0816 -0.2280  0.0270
  106MOL    H5731767   6.001   5.580   4.860  1.3476  1.6261 -0.3276
  106MOL    H5831768   6.170   5.542   4.913  0.2301  0.6211  0.5954
  106MOL    H5931769   6.035   5.412   4.663 -1.0748  2.2030 -0.1205
  106MOL    H6031770   6.205   5.400   4.713  0.2831  0.7788 -0.1545
  106MOL    H6131771   6.152   5.545   4.655  1.0930 -0.4130 -1.1178
  106MOL    C6231772   5.819   5.245   5.166 -0.3711 -0.0551  0.5823
  106MOL    C6331773   5.705   5.331   5.099 -0.5861  0.0806 -0.9377
  106MOL    C6431774   5.588   5.313   5.193  0.3426 -0.0117 -0.3747
  106MOL    O6531775   5.545   5.203   5.223 -0.4168 -0.0592  0.5406
  106MOL    O6631776   5.535   5.429   5.225  0.1159 -0.6604  0.5749
  106MOL    C6731777   5.413   5.436   5.292  0.9239  0.3849 -0.5895
  106MOL    C6831778   5.300   5.501   5.214  0.0033 -0.5518  0.1661
  106MOL    H6931779   5.791   5.140   5.159  1.3675 -0.5267  0.5818
  106MOL    H7031780   5.830   5.270   5.272 -0.7058  0.5340  0.4811
  106MOL    H7131781   5.744   5.433   5.112 -0.8805 -0.0257  0.8725
  106MOL    H7231782   5.367   5.341   5.320  0.0909  1.5660  2.3195
  106MOL    H7331783   5.427   5.493   5.384 -2.3816  1.5301 -0.7049
  106MOL    H7431784   5.292   5.464   5.112 -1.3819 -0.0652  0.0785
  106MOL    H7531785   5.315   5.607   5.194  0.3235 -1.1309 -2.8065
  106MOL    H7631786   5.207   5.489   5.270  0.0108 -0.5067  0.1873
  106MOL    C7731787   5.679   5.305   4.954  0.4329  0.4940 -0.2273
  106MOL    C7831788   5.605   5.177   4.913 -0.5070  0.2417  0.1910
  106MOL    C7931789   5.685   5.043   4.928  1.0163  0.3020 -0.0115
  106MOL    O8031790   5.645   4.940   4.980 -0.0843 -0.0856 -0.4982
  106MOL    O8131791   5.798   5.051   4.865 -0.7383  0.3011  0.1018
  106MOL    C8231792   5.893   4.944   4.877  0.5208 -0.5266  0.0081
  106MOL    C8331793   5.993   4.961   4.769  0.3415 -0.5613  0.5415
  106MOL    H8431794   5.622   5.393   4.925 -0.4469  0.1738  0.5028
  106MOL    H8531795   5.769   5.321   4.895  1.7859  1.3715  2.0293
  106MOL    H8631796   5.516   5.160   4.974 -0.4975 -1.0798 -0.1551
  106MOL    H8731797   5.933   4.955   4.978  2.7317  0.1493 -0.9041
  106MOL    H8831798   5.840   4.852   4.854 -0.7983  0.3316 -0.4238
  106MOL    H8931799   5.959   4.944   4.667  0.7727  2.4695 -0.1436
  106MOL    H9031800   6.083   4.901   4.785  0.6175  0.2377  2.0152
  106MOL    H9131801   6.030   5.063   4.759  1.1065 -0.7983  0.9158
  106MOL    C9231802   5.551   5.199   4.773  0.0430 -0.0470  0.0807
  106MOL    C9331803   5.411   5.265   4.769 -0.0324 -0.3014  0.2205
  106MOL    C9431804   5.303   5.153   4.764  0.3843 -0.1412 -0.1926
  106MOL    O9531805   5.217   5.139   4.859  0.3203  0.0187 -0.2767
  106MOL    O9631806   5.309   5.085   4.650  0.0487 -0.4681  0.6237
  106MOL    C9731807   5.198   4.993   4.624 -0.4483 -0.6614  0.9057
  106MOL    C9831808   5.235   4.918   4.499 -0.4393 -0.2393  0.4803
  106MOL    H9931809   5.623   5.265   4.723 -0.0661  0.8673  1.1100
  106MOL   H10031810   5.544   5.103   4.721  0.1734  0.0319 -0.0852
  106MOL   H10131811   5.387   5.311   4.865  0.6702  2.5196 -0.9014
  106MOL   H10231812   5.183   4.928   4.709  0.5004 -0.6138  1.1158
  106MOL   H10331813   5.105   5.048   4.610 -0.9522 -0.9389  3.0276
  106MOL   H10431814   5.145   4.881   4.450  1.0315 -0.4620 -2.1387
  106MOL   H10531815   5.287   4.831   4.539  2.1753  0.4598 -1.2784
  106MOL   H10631816   5.302   4.971   4.431 -1.2819 -1.1638 -1.1132
  106MOL   C10731817   5.387   5.364   4.659  0.6402 -0.4183  0.2133
  106MOL   C10831818   5.473   5.500   4.663 -0.0508  0.0789 -0.1957
  106MOL   C10931819   5.430   5.599   4.764 -0.2325  0.2921  0.5048
  106MOL   O11031820   5.307   5.603   4.793 -0.7865  0.1213 -0.2070
  106MOL   O11131821   5.528   5.671   4.817  0.3032  0.0090 -0.4489
  106MOL   C11231822   5.491   5.761   4.916  0.2709 -0.1399  0.4547
  106MOL   C11331823   5.604   5.820   5.001 -0.1617 -0.8199  0.0031
  106MOL   H11431824   5.409   5.315   4.564 -0.6712 -0.5157 -0.0489
  106MOL   H11531825   5.279   5.381   4.649  0.0628 -3.5883  0.2891
  106MOL   H11631826   5.576   5.476   4.690 -0.0821  1.9944  1.7708
  106MOL   H11731827   5.443   5.848   4.871  1.1251 -0.1898 -0.5592
  106MOL   H11831828   5.417   5.720   4.985  0.6251  0.5327  1.2425
  106MOL   H11931829   5.576   5.889   5.079 -3.0258  1.0591 -2.5925
  106MOL   H12031830   5.683   5.863   4.939  2.1245 -2.1690  1.8678
  106MOL   H12131831   5.654   5.744   5.061  2.1792  0.4712 -0.2523
  106MOL   C12231832   5.459   5.573   4.525 -0.8783 -0.0719 -1.0003
  106MOL   C12331833   5.578   5.555   4.428  0.8107  0.1069 -0.3196
  106MOL   C12431834   5.710   5.599   4.488  0.2147  0.0017 -0.5355
  106MOL   O12531835   5.795   5.515   4.508  0.3716 -0.1245  0.2199
  106MOL   O12631836   5.712   5.730   4.505 -0.0817  0.1526 -0.1800
  106MOL   C12731837   5.832   5.795   4.543  0.1823 -0.5836  0.2854
  106MOL   C12831838   5.835   5.826   4.689  0.1062 -0.3548 -0.5323
  106MOL   H12931839   5.369   5.533   4.478 -1.0604 -1.2251  0.3107
  106MOL   H13031840   5.458   5.682   4.535 -0.6429 -0.0389 -1.3267
  106MOL   H13131841   5.600   5.449   4.416  0.5505  0.0729 -0.4911
  106MOL   H13231842   5.916   5.731   4.514  0.3529  1.2125 -3.5496
  106MOL   H13331843   5.844   5.884   4.481 -1.8055  0.3071  1.1413
  106MOL   H13431844   5.757   5.894   4.723 -0.1920 -1.1457  0.3860
  106MOL   H13531845   5.940   5.850   4.701  0.4232 -0.3955 -2.9783
  106MOL   H13631846   5.837   5.738   4.754  1.6043  0.0757  0.0176
  106MOL   C13731847   5.548   5.605   4.283 -0.0152 -0.1694 -0.2161
  106MOL   C13831848   5.665   5.588   4.182  0.3872 -0.2004  0.0996
  106MOL   C13931849   5.627   5.640   4.041  0.4214 -0.2373 -0.1313
  106MOL   O14031850   5.709   5.698   3.971  0.4978  0.2332 -0.1095
  106MOL   O14131851   5.494   5.621   4.016  0.0587  1.0427  0.5890
  106MOL   C14231852   5.443   5.671   3.887 -0.3832  0.0701  0.0526
  106MOL   C14331853   5.292   5.662   3.888  0.5801  0.5983  0.1171
  106MOL   H14431854   5.456   5.557   4.248  0.3088  1.2762 -3.2548
  106MOL   H14531855   5.508   5.706   4.276  0.9350  0.1696 -0.8675
  106MOL   H14631856   5.738   5.665   4.208  1.5439 -1.5104  0.7561
  106MOL   H14731857   5.465   5.776   3.871  0.3492 -0.5507 -3.1921
  106MOL   H14831858   5.483   5.615   3.803 -2.0715 -0.0431 -0.6950
  106MOL   H14931859   5.241   5.672   3.985 -0.2373  1.9185 -0.4356
  106MOL   H15031860   5.275   5.562   3.849  3.1871  0.2510 -0.1917
  106MOL   H15131861   5.240   5.736   3.826 -1.8564 -1.7370 -0.7276
  106MOL   C15231862   5.710   5.443   4.182 -0.6057 -0.6085 -0.5724
  106MOL   C15331863   5.611   5.337   4.129  0.3776  0.3042 -0.0738
  106MOL   C15431864   5.556   5.242   4.233  0.7886 -0.9030 -0.4919
  106MOL   O15531865   5.433   5.232   4.254  0.0167  0.3914 -0.7208
  106MOL   O15631866   5.651   5.166   4.292 -0.0596 -0.3371  0.1129
  106MOL   C15731867   5.606   5.073   4.389  0.2775  0.0304 -0.2224
  106MOL   C15831868   5.725   5.016   4.473 -0.4618  0.2765  0.0119
  106MOL   H15931869   5.803   5.432   4.126 -0.2706  0.1359 -0.1631
  106MOL   H16031870   5.746   5.415   4.282 -2.9520 -0.8036  0.2327
  106MOL   H16131871   5.524   5.380   4.081 -1.1692 -1.8781  0.6965
  106MOL   H16231872   5.537   5.135   4.446  2.3929  2.8691 -0.6391
  106MOL   H16331873   5.552   4.990   4.343 -0.5909 -1.1154  2.7353
  106MOL   H16431874   5.756   5.079   4.557 -1.2384  0.6546  0.0149
  106MOL   H16531875   5.818   4.999   4.418 -1.5792 -1.5372 -1.3431
  106MOL   H16631876   5.705   4.917   4.512  0.3878  0.7408  1.6731
  106MOL   C16731877   5.665   5.253   4.017  0.4043 -0.6139  0.0295
  106MOL   C16831878   5.657   5.319   3.878  0.1357 -0.1516 -0.5224
  106MOL   C16931879   5.542   5.269   3.792  0.4058  0.1344 -0.5042
  106MOL   O17031880   5.435   5.330   3.795 -0.5612  0.1509  0.5785
  106MOL   O17131881   5.570   5.151   3.726  0.2314 -0.2805 -0.1780
  106MOL   C17231882   5.488   5.083   3.629 -0.0505 -1.7251 -0.4261
  106MOL   C17331883   5.581   5.079   3.505 -0.1040 -0.1805  0.0290
  106MOL   H17431884   5.767   5.218   4.035 -0.4137 -2.0304  2.0859
  106MOL   H17531885   5.604   5.163   4.009  1.7545 -1.5630  0.2326
  106MOL   H17631886   5.624   5.420   3.903 -1.1069 -1.0587  1.5097
  106MOL   H17731887   5.460   4.992   3.682 -2.5445 -0.8959 -0.2559
  106MOL   H17831888   5.394   5.136   3.610  0.6376 -0.3979 -0.1677
  106MOL   H17931889   5.537   5.018   3.426  0.4474 -0.8648  0.2442
  106MOL   H18031890   5.668   5.027   3.545 -1.5294 -2.6564  0.0534
  106MOL   H18131891   5.602   5.172   3.454 -1.5231  0.0283 -0.1856
  106MOL   C18231892   5.796   5.332   3.813  0.0152  0.4447 -1.2067
  106MOL   C18331893   5.794   5.379   3.669  0.6599  0.8378  0.8197
  106MOL   C18431894   5.931   5.369   3.612  0.5581 -0.3189 -0.3233
  106MOL   O18531895   5.982   5.255   3.600 -0.1401 -0.5780 -0.2311
  106MOL   O18631896   5.989   5.497   3.580  0.0802  0.0240 -0.6771
  106MOL   C18731897   6.118   5.516   3.507  0.2360  0.7418 -1.0930
  106MOL   C18831898   6.091   5.649   3.429  0.0980 -0.3475  0.5954
  106MOL   H18931899   5.854   5.404   3.870  0.1634 -1.6633  1.4094
  106MOL   H19031900   5.846   5.241   3.845  0.4688  1.3559  0.7495
  106MOL   H19131901   5.745   5.294   3.622  0.3031  0.1847  2.3528
  106MOL   H19231902   6.196   5.522   3.582  0.3401 -0.0505 -1.1302
  106MOL   H19331903   6.147   5.438   3.436 -2.2140 -0.8819 -0.4030
  106MOL   H19431904   6.166   5.683   3.357 -0.9484  2.1384  0.6233
  106MOL   H19531905   6.060   5.726   3.500 -1.1326 -2.4944  2.4503
  106MOL   H19631906   6.008   5.631   3.361 -0.7431  3.0477  0.6449
  106MOL   C19731907   5.714   5.512   3.649 -0.0811  0.0630 -0.0898
  106MOL   C19831908   5.708   5.560   3.504 -0.1971 -0.3091  0.1108
  106MOL   C19931909   5.691   5.713   3.490  0.4138  0.0036 -1.0870
  106MOL   O20031910   5.774   5.787   3.435  0.2587 -0.0483  0.1078
  106MOL   O20131911   5.581   5.757   3.547  0.0007 -0.1996 -0.2550
  106MOL   C20231912   5.549   5.897   3.542 -0.0527 -0.6180 -0.6138
  106MOL   C20331913   5.410   5.911   3.607  0.1068 -0.1440 -0.4594
  106MOL   H20431914   5.610   5.500   3.681  0.1075  0.7051  0.7815
  106MOL   H20531915   5.768   5.584   3.710  1.7843 -0.0718 -1.5309
  106MOL   H20631916   5.801   5.551   3.447 -1.5602  1.5340 -2.5671
  106MOL   H20731917   5.637   5.945   3.584  0.8486 -0.8453 -2.1754
  106MOL   H20831918   5.543   5.939   3.442 -2.0430 -1.7048 -0.9920
  106MOL   H20931919   5.400   5.920   3.715 -1.8142 -3.9883 -0.2635
  106MOL   H21031920   5.345   5.826   3.588 -1.1330  0.9827 -1.3795
  106MOL   H21131921   5.358   5.991   3.555 -0.6626  0.0879  0.6455
  106MOL   C21231922   5.610   5.474   3.409  0.7783  0.5238  0.2075
  106MOL   C21331923   5.644   5.456   3.254 -0.5553 -0.4166  0.2194
  106MOL   C21431924   5.791   5.423   3.226 -0.0073  0.3487 -0.5485
  106MOL   O21531925   5.870   5.506   3.177  0.0190 -1.2347 -0.2070
  106MOL   O21631926   5.822   5.290   3.255 -0.0460  0.2708  0.3372
  106MOL   C21731927   5.956   5.242   3.243 -0.2166  0.8615 -0.3090
  106MOL   C21831928   5.970   5.092   3.253 -0.2653 -0.2626  0.2955
  106MOL   H21931929   5.595   5.378   3.458 -2.6122  0.3074 -1.1181
  106MOL   H22031930   5.510   5.515   3.420  0.0457 -0.4142 -2.4445
  106MOL   H22131931   5.585   5.369   3.226 -2.3125  0.3147  1.5535
  106MOL   H22231932   6.001   5.270   3.148  0.7909  1.8003  0.4420
  106MOL   H22331933   6.016   5.286   3.322 -0.5951  2.1083 -0.7099
  106MOL   H22431934   6.076   5.066   3.248  0.2397  1.9383 -1.2878
  106MOL   H22531935   5.923   5.032   3.174  0.5186 -0.9187  0.3246
  106MOL   H22631936   5.938   5.054   3.350  0.9264  2.6747  1.8914
  106MOL   C22731937   5.589   5.573   3.166  0.0591 -0.0165 -0.2707
  106MOL   C22831938   5.433   5.579   3.165  0.2328  0.5599  0.1902
  106MOL   C22931939   5.367   5.454   3.098  0.2448  0.4093 -0.3983
  106MOL   O23031940   5.428   5.379   3.027  0.4371  0.3646  0.5926
  106MOL   O23131941   5.237   5.448   3.125  0.7092 -0.4997 -0.3208
  106MOL   C23231942   5.181   5.322   3.077  0.0573  0.8605 -0.0663
  106MOL   C23331943   5.043   5.281   3.136  0.1202  0.3925  0.0064
  106MOL   H23431944   5.617   5.669   3.209  0.6052 -0.3320  0.0745
  106MOL   H23531945   5.633   5.579   3.066  2.6560 -0.4785  0.8149
  106MOL   H23631946   5.390   5.588   3.265 -1.7328 -0.4344 -0.5256
  106MOL   H23731947   5.183   5.324   2.968 -1.0569  2.0797 -0.0757
  106MOL   H23831948   5.245   5.240   3.112 -1.0220 -0.7969 -1.8426
  106MOL   H23931949   5.049   5.276   3.244 -1.3242  0.9709  0.1192
  106MOL   H24031950   5.027   5.183   3.090  0.3895  0.2733  0.1657
  106MOL   H24131951   4.960   5.342   3.100  2.0351  2.5619 -0.8721
  106MOL   C24231952   5.383   5.715   3.100 -0.2987  0.7745 -0.5570
  106MOL   C24331953   5.249   5.771   3.142  0.4658  0.7596 -0.2316
  106MOL   C24431954   5.203   5.857   3.023  0.3840 -0.0077 -0.1624
  106MOL   O24531955   5.117   5.818   2.946  0.3613  0.2137  0.3519
  106MOL   O24631956   5.272   5.975   3.017  0.1236  0.3833  0.4332
  106MOL   C24731957   5.285   6.053   2.896  0.7122 -0.5119  0.3856
  106MOL   C24831958   5.178   6.157   2.894 -0.0147  0.5732  1.0145
  106MOL   H24931959   5.462   5.788   3.120 -0.9235  0.8095  1.8474
  106MOL   H25031960   5.394   5.696   2.993 -2.4608  0.6934 -0.7790
  106MOL   H25131961   5.175   5.692   3.158 -1.1551  2.5331  1.3198
  106MOL   H25231962   5.387   6.092   2.901  0.6577 -0.3455  0.2191
  106MOL   H25331963   5.285   5.984   2.811 -0.0086  0.7679 -0.6820
  106MOL   H25431964   5.187   6.224   2.808 -1.0060 -0.7816 -0.1524
  106MOL   H25531965   5.193   6.227   2.977 -3.3844  0.0148  2.1530
  106MOL   H25631966   5.076   6.120   2.887  0.0912  0.7638 -1.8875
  106MOL   C25731967   5.256   5.859   3.267  0.1366  1.1186  0.3753
  106MOL   C25831968   5.136   5.866   3.351  0.5022  0.1589  0.2206
  106MOL   C25931969   5.083   5.729   3.410  0.5619 -0.0449 -0.3404
  106MOL   O26031970   4.956   5.702   3.412 -0.1442 -0.2445  0.2615
  106MOL   O26131971   5.186   5.656   3.460  0.0273 -0.1358  0.5039
  106MOL   C26231972   5.149   5.543   3.527 -0.6364 -0.2672  0.4051
  106MOL   C26331973   5.269   5.455   3.533  0.4179 -0.6216  0.6239
  106MOL   H26431974   5.331   5.812   3.331 -0.9699 -1.0040  0.1473
  106MOL   H26531975   5.302   5.955   3.246  1.0027  0.6433  0.0636
  106MOL   H26631976   5.159   5.924   3.441  0.0994  1.1506 -0.3052
  106MOL   H26731977   5.120   5.557   3.631 -0.9134  3.0390 -0.0615
  106MOL   H26831978   5.067   5.490   3.480  0.1145  0.2711 -1.5384
  106MOL   H26931979   5.349   5.510   3.581 -0.3399  1.3548 -0.3103
  106MOL   H27031980   5.286   5.443   3.426 -0.1359 -1.3408  0.6108
  106MOL   H27131981   5.246   5.356   3.572 -4.9327 -0.0361 -0.6307
  106MOL   C27231982   5.020   5.957   3.290  0.1024 -0.4289 -0.3868
  106MOL   C27331983   5.046   6.107   3.252  0.0479  0.5484 -0.0007
  106MOL   C27431984   5.110   6.179   3.375 -0.0158 -0.3663  0.5647
  106MOL   O27531985   5.224   6.231   3.365 -0.0904  0.4207  0.2585
  106MOL   O27631986   5.028   6.183   3.484 -0.2717  0.4047  0.0231
  106MOL   C27731987   5.060   6.256   3.601 -0.6366  1.0304 -0.0115
  106MOL   C27831988   5.005   6.401   3.584 -0.5775 -0.0016 -0.6917
  106MOL   H27931989   4.971   5.905   3.208 -1.8290  1.4531 -0.4890
  106MOL   H28031990   4.940   5.959   3.364 -0.0175  2.5017 -0.5423
  106MOL   H28131991   5.129   6.100   3.181  1.1254 -1.0411  1.3748
  106MOL   H28231992   5.015   6.210   3.689  1.5827 -0.2832  0.4752
  106MOL   H28331993   5.167   6.256   3.621 -0.2124  2.9714 -2.0141
  106MOL   H28431994   5.006   6.459   3.677 -5.3976 -2.2780  0.9643
  106MOL   H28531995   4.901   6.393   3.551 -1.0169  2.0863  0.0844
  106MOL   H28631996   5.060   6.461   3.512 -1.8263  1.3805 -0.5230
  106MOL   C28731997   4.918   6.182   3.206 -0.5440  0.7749  0.1689
  106MOL   C28831998   4.952   6.320   3.152 -0.1369 -0.1006  0.0513
  106MOL   C28931999   4.844   6.423   3.177 -0.1678  0.0240  0.1016
  106MOL   O29032000   4.750   6.407   3.258 -0.2385  0.1630 -0.2026
  106MOL   O29132001   4.845   6.536   3.104  0.6556 -0.3172 -0.3320
  106MOL   C29232002   4.746   6.631   3.130 -0.1800  1.1851  0.0924
  106MOL   C29332003   4.768   6.754   3.046 -0.0427 -0.2694 -0.0032
  106MOL   H29432004   4.869   6.128   3.125  0.6135  2.2802 -1.5595
  106MOL   H29532005   4.849   6.191   3.290  0.7122  0.9493  1.1859
  106MOL   H29632006   5.043   6.360   3.198 -1.1242  1.6894  0.4862
  106MOL   H29732007   4.650   6.589   3.101  0.7629  1.1994 -3.3454
  106MOL   H29832008   4.736   6.665   3.233  0.1547 -2.9187  1.5772
  106MOL   H29932009   4.855   6.812   3.076 -0.5063  2.4415 -3.6274
  106MOL   H30032010   4.687   6.825   3.034  0.6648  0.9767  2.3357
  106MOL   H30132011   4.790   6.723   2.944  1.5345 -1.9021  0.7968
  106MOL   H30232012   4.964   6.309   3.044  0.1550 -0.6643  0.1403
  107MOL     C132013   7.299   4.705   1.661  0.2279  0.3715 -0.0650
  107MOL     C232014   7.276   4.549   1.692  0.6285  0.5022 -0.2160
  107MOL     C332015   7.142   4.533   1.759 -0.3404  0.2861 -0.1417
  107MOL     O432016   7.092   4.616   1.833 -0.3141  0.3935  0.6717
  107MOL     O532017   7.097   4.417   1.726  0.3786 -0.4727 -0.3289
  107MOL     C632018   6.975   4.359   1.774  0.4092  0.1557 -0.2668
  107MOL     C732019   6.938   4.233   1.686 -0.2259 -0.1416 -0.0837
  107MOL     H832020   7.365   4.714   1.575 -1.1570  2.9027 -0.9356
  107MOL     H932021   7.343   4.752   1.749 -0.6167 -1.5363  1.4172
  107MOL    H1032022   7.276   4.496   1.597 -0.2523  0.1780 -0.0406
  107MOL    H1132023   6.991   4.334   1.878  1.1928  1.4924 -0.0527
  107MOL    H1232024   6.889   4.426   1.767 -0.9556 -1.2466  2.2377
  107MOL    H1332025   6.897   4.267   1.591 -1.7241  1.4311  1.0905
  107MOL    H1432026   6.863   4.162   1.719 -0.5266 -0.1259 -0.7222
  107MOL    H1532027   7.031   4.178   1.670 -0.6639 -1.0055  0.3217
  107MOL    H1632028   7.207   4.753   1.628  0.6342  0.2511 -1.4120
  107MOL    C1732029   7.393   4.501   1.772  0.5178  0.4339  0.4883
  107MOL    C1832030   7.402   4.349   1.805  0.4200  1.1285  0.2489
  107MOL    C1932031   7.320   4.296   1.918  0.3280 -0.2940 -0.2809
  107MOL    O2032032   7.277   4.183   1.921  0.1886  0.3735 -0.0933
  107MOL    O2132033   7.301   4.390   2.015 -0.5546 -0.2337 -0.2169
  107MOL    C2232034   7.211   4.373   2.125 -0.4719  0.0316 -0.6031
  107MOL    C2332035   7.194   4.502   2.207 -0.0749 -0.2303 -0.2203
  107MOL    H2432036   7.478   4.529   1.710  0.0454 -1.6620 -1.1817
  107MOL    H2532037   7.403   4.569   1.856 -0.3712  0.9105  0.2120
  107MOL    H2632038   7.378   4.286   1.720  3.2856 -1.1895  1.0634
  107MOL    H2732039   7.113   4.337   2.093 -0.3618  0.7480 -1.8100
  107MOL    H2832040   7.255   4.295   2.187 -0.2744  0.3814 -0.3021
  107MOL    H2932041   7.286   4.530   2.258  0.1146 -0.2308 -0.5665
  107MOL    H3032042   7.103   4.487   2.266  0.4530  0.0550  0.6846
  107MOL    H3132043   7.163   4.591   2.151 -0.7117  0.7797  1.6670
  107MOL    C3232044   7.551   4.308   1.832 -0.2967  0.0290  0.0810
  107MOL    C3332045   7.597   4.165   1.848 -0.1404  0.5441 -0.1478
  107MOL    C3432046   7.750   4.160   1.878 -0.2122  0.1496 -0.2242
  107MOL    O3532047   7.799   4.132   1.992  0.4824 -0.4329  0.3569
  107MOL    O3632048   7.825   4.201   1.773  0.5990  0.2813 -0.5995
  107MOL    C3732049   0.060   4.193   1.784 -0.0124 -0.7894 -0.4303
  107MOL    C3832050   0.115   4.059   1.755  0.2401  0.0812 -0.0853
  107MOL    H3932051   7.614   4.344   1.750  0.0515  0.3084  0.4647
  107MOL    H4032052   7.569   4.365   1.924  2.2897 -2.0205  0.9203
  107MOL    H4132053   7.550   4.116   1.933 -2.8881  2.2523 -0.6168
  107MOL    H4232054   0.097   4.260   1.706  0.2909 -1.8250 -1.1893
  107MOL    H4332055   0.098   4.238   1.875  1.4697 -2.9034  0.0335
  107MOL    H4432056   0.110   4.000   1.847  0.7178  1.0296  0.5523
  107MOL    H4532057   0.219   4.081   1.731  0.0058  1.6325  0.2975
  107MOL    H4632058   0.071   4.020   1.663 -0.0802 -0.1379  0.1610
  107MOL    C4732059   7.565   4.081   1.724  0.5389  0.2018 -0.0580
  107MOL    C4832060   7.585   3.928   1.751 -0.0181 -0.2031 -0.2246
  107MOL    C4932061   7.584   3.840   1.622  0.0176  0.4678  0.2711
  107MOL    O5032062   7.508   3.741   1.613  0.1018 -0.5852 -0.1623
  107MOL    O5132063   7.680   3.874   1.529  0.0867  0.0854 -0.2784
  107MOL    C5232064   7.685   3.811   1.401 -0.3159 -0.2699 -0.4754
  107MOL    C5332065   7.812   3.856   1.338 -0.1826  0.3981  0.7260
  107MOL    H5432066   7.458   4.093   1.708  0.4142 -1.1745 -0.3177
  107MOL    H5532067   7.619   4.109   1.634 -1.3340  1.1600 -0.9077
  107MOL    H5632068   7.683   3.902   1.791 -0.8351 -2.7743  0.2398
  107MOL    H5732069   7.691   3.702   1.403  2.5271 -0.1438  1.3895
  107MOL    H5832070   7.609   3.855   1.338 -0.4523 -0.2487 -0.2968
  107MOL    H5932071   7.898   3.809   1.385 -0.9778 -0.7120  1.0804
  107MOL    H6032072   7.834   3.961   1.355 -1.9638  0.8348  0.4246
  107MOL    H6132073   7.824   3.835   1.231  1.1425 -0.4096  1.0189
  107MOL    C6232074   7.476   3.881   1.857  0.4969  0.3712 -1.0499
  107MOL    C6332075   7.539   3.834   1.988  0.3729  0.1282  0.1605
  107MOL    C6432076   7.593   3.692   1.975  0.7745  0.1974 -0.0727
  107MOL    O6532077   7.706   3.655   2.021 -0.2333 -0.0470 -0.1843
  107MOL    O6632078   7.497   3.608   1.925 -0.2040  0.1859 -0.8053
  107MOL    C6732079   7.513   3.472   1.936  0.1429 -0.2569  0.0313
  107MOL    C6832080   7.500   3.401   1.802 -0.2974 -0.6068  0.1236
  107MOL    H6932081   7.402   3.958   1.881 -1.2083 -0.8257 -2.3303
  107MOL    H7032082   7.414   3.802   1.816 -0.8978  1.2527 -0.6677
  107MOL    H7132083   7.630   3.892   2.002 -0.2453  1.7890 -2.4012
  107MOL    H7232084   7.602   3.444   1.991  0.5697  1.9237  0.5137
  107MOL    H7332085   7.438   3.425   2.000  1.0344 -1.2995  0.3155
  107MOL    H7432086   7.398   3.392   1.766  0.9302 -3.5246 -2.8752
  107MOL    H7532087   7.534   3.300   1.822  1.3919 -0.8535 -3.6523
  107MOL    H7632088   7.561   3.452   1.727  1.6971 -3.7938 -0.4911
  107MOL    C7732089   7.453   3.835   2.116  0.6860 -0.2329  0.0620
  107MOL    C7832090   7.420   3.973   2.187 -0.3914 -0.6694  0.7663
  107MOL    C7932091   7.553   4.042   2.213 -0.1746  0.4207  0.0262
  107MOL    O8032092   7.579   4.155   2.167 -0.3559 -0.2084  0.4796
  107MOL    O8132093   7.631   3.964   2.287  0.5177 -0.0947  1.0478
  107MOL    C8232094   7.753   4.012   2.333  0.7211 -0.1207  0.3443
  107MOL    C8332095   7.820   3.890   2.392 -0.0552 -0.0107  0.3290
  107MOL    H8432096   7.353   3.801   2.087  0.3864  0.2815  0.4864
  107MOL    H8532097   7.491   3.760   2.186  0.6117 -2.6549 -2.3688
  107MOL    H8632098   7.371   4.035   2.112  0.6839 -1.9628 -1.0445
  107MOL    H8732099   7.817   4.044   2.250  1.0374 -1.5317  0.0412
  107MOL    H8832100   7.738   4.099   2.397 -0.9213 -1.3666  1.6745
  107MOL    H8932101   0.013   3.915   2.425  0.0556  0.0667 -0.0750
  107MOL    H9032102   7.833   3.811   2.319  1.9114  0.9884 -0.4246
  107MOL    H9132103   7.772   3.849   2.481  1.9689 -2.1419  0.4650
  107MOL    C9232104   7.339   3.945   2.321  0.0267 -0.3085 -0.8930
  107MOL    C9332105   7.270   4.069   2.376 -0.1894 -0.0781 -0.3073
  107MOL    C9432106   7.365   4.156   2.462  0.1981  0.0657  0.5437
  107MOL    O9532107   7.460   4.109   2.527 -0.6954 -0.2897  0.2479
  107MOL    O9632108   7.330   4.287   2.460  0.0030  0.1902  0.0844
  107MOL    C9732109   7.411   4.388   2.522 -0.6319  0.4258  0.2799
  107MOL    C9832110   7.370   4.426   2.663 -0.1122  0.2720 -0.5436
  107MOL    H9932111   7.255   3.880   2.296  1.2328 -1.8994 -0.8937
  107MOL   H10032112   7.400   3.889   2.392  2.7632  1.9709 -1.3776
  107MOL   H10132113   7.239   4.133   2.293  1.0835 -0.6855 -1.2718
  107MOL   H10232114   7.517   4.363   2.526 -0.5546  0.6589 -0.2546
  107MOL   H10332115   7.413   4.478   2.460  1.6329  0.4789  0.3719
  107MOL   H10432116   7.352   4.334   2.719 -0.7803  0.6673 -0.1043
  107MOL   H10532117   7.272   4.474   2.665 -0.4699 -0.4479 -0.4846
  107MOL   H10632118   7.440   4.494   2.713 -0.3999  2.2377 -2.7259
  107MOL   C10732119   7.145   4.035   2.466  0.3362 -0.5871 -0.1591
  107MOL   C10832120   7.027   3.940   2.413  1.1801  0.2570 -0.3802
  107MOL   C10932121   6.955   4.014   2.301 -0.6569 -0.4388 -0.2457
  107MOL   O11032122   6.950   4.136   2.290 -0.4871 -0.4206 -0.4875
  107MOL   O11132123   6.899   3.929   2.211 -0.3073  0.1596 -0.0496
  107MOL   C11232124   6.841   3.981   2.092  0.0423 -0.5532  0.7796
  107MOL   C11332125   6.931   3.966   1.966  0.0700 -0.3469 -0.5585
  107MOL   H11432126   7.186   3.982   2.552  0.2629 -1.7660 -0.8370
  107MOL   H11532127   7.102   4.128   2.504  0.7718  0.2849 -1.7309
  107MOL   H11632128   7.053   3.844   2.370  1.7016  0.8142 -1.3272
  107MOL   H11732129   6.754   3.924   2.061  0.6113  0.6358 -3.1798
  107MOL   H11832130   6.813   4.086   2.100  2.0993 -0.1009  2.4670
  107MOL   H11932131   6.959   3.861   1.957 -0.1790 -0.5156  0.5649
  107MOL   H12032132   7.019   4.030   1.973 -2.2298  2.8652  0.0039
  107MOL   H12132133   6.874   3.987   1.876 -1.3883  1.9210  0.8409
  107MOL   C12232134   6.926   3.899   2.532 -0.8999 -0.4669 -0.4907
  107MOL   C12332135   6.971   3.844   2.668 -0.2980  0.3451  0.6236
  107MOL   C12432136   7.009   3.959   2.766 -0.3905 -0.4429  0.5047
  107MOL   O12532137   6.927   4.046   2.786 -0.0242 -0.1731  0.1794
  107MOL   O12632138   7.130   3.951   2.828 -0.2842 -0.5264  0.2074
  107MOL   C12732139   7.174   4.049   2.920  0.5035 -0.0750  0.5918
  107MOL   C12832140   7.308   3.992   2.979  0.0808  0.3365  0.5764
  107MOL   H12932141   6.875   3.991   2.560 -0.7256 -0.7496  0.7797
  107MOL   H13032142   6.846   3.833   2.500  0.6960 -1.1750 -3.1520
  107MOL   H13132143   6.879   3.810   2.714 -0.8508  0.1403 -0.6255
  107MOL   H13232144   7.191   4.144   2.870  1.0044  0.2528  1.3722
  107MOL   H13332145   7.103   4.073   3.000 -1.4391 -0.7680 -0.8878
  107MOL   H13432146   7.361   4.074   3.029  1.0984  0.6512 -0.9839
  107MOL   H13532147   7.377   3.970   2.897 -2.5426  1.7259 -2.1164
  107MOL   H13632148   7.294   3.915   3.054 -2.6862  0.6169  0.3982
  107MOL   C13732149   7.072   3.724   2.654  0.1747 -0.3656  0.0940
  107MOL   C13832150   6.999   3.594   2.637  0.6231  0.2217  0.0213
  107MOL   C13932151   6.921   3.541   2.762  0.2884  0.1542 -0.4918
  107MOL   O14032152   6.962   3.545   2.881 -0.5378  0.2554  0.1354
  107MOL   O14132153   6.803   3.489   2.722 -0.3715 -0.8256  0.0515
  107MOL   C14232154   6.727   3.406   2.809 -0.2769 -0.6736 -0.1801
  107MOL   C14332155   6.588   3.414   2.754 -0.3404  0.0134 -0.4309
  107MOL   H14432156   7.116   3.756   2.560  0.0544  0.5705  0.3540
  107MOL   H14532157   7.148   3.712   2.732  1.3885 -0.6533 -1.1096
  107MOL   H14632158   6.922   3.594   2.560  0.6854  1.1481 -0.0452
  107MOL   H14732159   6.773   3.307   2.804  2.0325  0.2911  0.8082
  107MOL   H14832160   6.733   3.432   2.915 -1.0248  1.6768 -0.7112
  107MOL   H14932161   6.521   3.361   2.822 -0.1643 -0.1225 -0.3624
  107MOL   H15032162   6.581   3.378   2.651  1.0915 -1.0698 -0.1763
  107MOL   H15132163   6.548   3.514   2.738  0.3121  0.7135  2.1066
  107MOL   C15232164   7.098   3.480   2.595  0.1932 -0.3720  0.0174
  107MOL   C15332165   7.176   3.504   2.456  0.1109  0.0400 -0.0750
  107MOL   C15432166   7.085   3.561   2.343  0.0349 -0.4001 -0.0697
  107MOL   O15532167   6.963   3.533   2.341 -0.0914 -0.3487  0.3777
  107MOL   O15632168   7.154   3.628   2.249  0.4835  0.2894 -0.5558
  107MOL   C15732169   7.091   3.681   2.138 -0.0992  0.0176 -0.7613
  107MOL   C15832170   7.121   3.589   2.024  0.0842  0.2951 -0.2615
  107MOL   H15932171   7.164   3.456   2.678  1.0936 -0.8571 -0.8266
  107MOL   H16032172   7.036   3.391   2.582  1.3699 -1.2501  0.3582
  107MOL   H16132173   7.256   3.578   2.465  1.9418 -1.9543  0.2865
  107MOL   H16232174   6.983   3.688   2.155 -0.4682 -2.2908 -1.9983
  107MOL   H16332175   7.115   3.785   2.116 -1.2041  0.3713 -0.3077
  107MOL   H16432176   7.114   3.492   2.072  2.6003  1.9290  3.6447
  107MOL   H16532177   7.214   3.615   1.973  0.7017  0.0668  0.7295
  107MOL   H16632178   7.042   3.603   1.950  1.2816  0.5018 -1.5259
  107MOL   C16732179   7.254   3.378   2.415 -1.1164  0.1263 -0.4194
  107MOL   C16832180   7.362   3.385   2.316  0.3703  1.0119  0.0527
  107MOL   C16932181   7.403   3.250   2.251 -0.4963 -0.4891 -0.1845
  107MOL   O17032182   7.360   3.142   2.290 -0.0935  0.5630 -0.2382
  107MOL   O17132183   7.503   3.266   2.159  0.3184 -0.7389  0.0986
  107MOL   C17232184   7.572   3.158   2.109 -0.0093  1.0672  0.2028
  107MOL   C17332185   7.705   3.150   2.179  0.0457  0.4404  0.0037
  107MOL   H17432186   7.293   3.340   2.509 -2.5454 -0.7836 -0.1723
  107MOL   H17532187   7.173   3.311   2.387 -0.0588 -0.6688 -1.6350
  107MOL   H17632188   7.319   3.436   2.230 -1.0545  1.3371  0.9335
  107MOL   H17732189   7.506   3.073   2.097 -1.4476  2.2774 -0.7382
  107MOL   H17832190   7.581   3.190   2.005  0.2751 -0.5507 -0.2858
  107MOL   H17932191   7.765   3.229   2.136  0.7503  0.8059  1.6142
  107MOL   H18032192   7.764   3.061   2.154 -0.0291 -0.0005  1.3442
  107MOL   H18132193   7.697   3.156   2.288  1.4986  1.0120  0.0839
  107MOL   C18232194   7.475   3.479   2.350  0.7435 -0.5336  0.5004
  107MOL   C18332195   7.595   3.429   2.434  0.0790  0.6350  0.0002
  107MOL   C18432196   7.543   3.426   2.581 -0.0390  0.9515  0.1249
  107MOL   O18532197   7.537   3.316   2.633 -0.5343  0.0147  0.2098
  107MOL   O18632198   7.508   3.540   2.637  0.1138  0.4079 -0.0943
  107MOL   C18732199   7.473   3.559   2.771 -0.6505  0.8553  0.1082
  107MOL   C18832200   7.460   3.716   2.784  0.1904 -0.1015 -0.1920
  107MOL   H18932201   7.522   3.510   2.256  0.7490  2.0980  1.3418
  107MOL   H19032202   7.437   3.574   2.388  0.7106 -1.2742  2.3362
  107MOL   H19132203   7.622   3.332   2.395 -3.0066  0.9899 -3.3047
  107MOL   H19232204   7.380   3.510   2.799 -0.5504  0.6224  0.0333
  107MOL   H19332205   7.561   3.523   2.825 -0.7265 -0.7724 -0.8480
  107MOL   H19432206   7.555   3.769   2.776  0.4885 -0.3982  1.2373
  107MOL   H19532207   7.416   3.734   2.881 -2.2513  0.0944 -1.2988
  107MOL   H19632208   7.399   3.756   2.703  1.3766  1.3401 -0.3968
  107MOL   C19732209   7.709   3.528   2.425 -0.1522  0.2899  0.2686
  107MOL   C19832210   7.846   3.471   2.467 -0.3035  0.2536  0.1600
  107MOL   C19932211   0.030   3.566   2.549  1.2211  0.3057 -0.0941
  107MOL   O20032212   0.141   3.594   2.508  0.0388 -0.2885 -0.4034
  107MOL   O20132213   7.885   3.587   2.668  0.3565  0.4271  0.1570
  107MOL   C20232214   0.045   3.648   2.769 -0.5175  0.2497 -0.1888
  107MOL   C20332215   0.023   3.798   2.768  0.0013 -0.3576  0.5422
  107MOL   H20432216   7.727   3.564   2.324  2.3066 -1.3734  0.0486
  107MOL   H20532217   7.682   3.620   2.476  0.4391  0.9995 -0.6787
  107MOL   H20632218   7.817   3.395   2.541 -1.3510 -3.6952 -4.0825
  107MOL   H20732219   0.015   3.610   2.866 -1.5354  0.2278 -0.5085
  107MOL   H20832220   0.148   3.617   2.751 -0.7383  0.1624 -1.3851
  107MOL   H20932221   0.058   3.840   2.674 -3.6198 -1.8254 -1.6085
  107MOL   H21032222   0.072   3.855   2.847 -0.6089 -0.1743  0.7968
  107MOL   H21132223   7.824   3.810   2.784  0.2916  2.1219  0.7619
  107MOL   C21232224   0.005   3.401   2.345  0.1628 -0.3169 -0.3767
  107MOL   C21332225   0.112   3.296   2.385 -0.0826  0.5744 -1.0523
  107MOL   C21432226   0.183   3.247   2.260  0.3667 -0.2064 -0.5088
  107MOL   O21532227   0.130   3.261   2.150  0.4730  0.3605  0.4484
  107MOL   O21632228   0.299   3.186   2.289 -0.6438  0.1952  0.0138
  107MOL   C21732229   0.365   3.116   2.184  0.2132 -0.1616 -0.2393
  107MOL   C21832230   0.483   3.040   2.246  0.0790  0.1361 -0.1164
  107MOL   H21932231   7.835   3.344   2.294  1.1712 -0.2319 -2.0749
  107MOL   H22032232   0.038   3.483   2.281  1.6174  0.7173  1.6665
  107MOL   H22132233   0.187   3.353   2.440 -0.7308 -0.0079  0.4539
  107MOL   H22232234   0.288   3.058   2.133  0.1814  0.5447 -1.0199
  107MOL   H22332235   0.411   3.187   2.114  0.3874 -0.6221 -0.5951
  107MOL   H22432236   0.458   2.953   2.306 -0.2311 -1.4697 -2.5294
  107MOL   H22532237   0.549   3.104   2.305  1.0898  0.2421 -1.3270
  107MOL   H22632238   0.548   3.010   2.163  0.5134  0.0192  0.2652
  107MOL   C22732239   0.065   3.182   2.483  0.2894 -0.4781 -0.7195
  107MOL   C22832240   0.098   3.214   2.636  0.7443  0.5253  0.1567
  107MOL   C22932241   0.244   3.251   2.673  0.1410  0.1997  0.0235
  107MOL   O23032242   0.271   3.357   2.729 -0.0675  0.3464  0.4038
  107MOL   O23132243   0.329   3.146   2.647 -0.0370 -0.5482  0.1972
  107MOL   C23232244   0.465   3.162   2.689 -0.6543  0.7940 -0.5674
  107MOL   C23332245   0.553   3.237   2.584 -0.7759 -0.7925  0.5050
  107MOL   H23432246   7.871   3.148   2.470  0.5748 -1.3374 -0.7140
  107MOL   H23532247   0.116   3.092   2.449 -0.3438 -1.2012  0.2574
  107MOL   H23632248   0.038   3.300   2.667  0.0095 -0.7695  2.4955
  107MOL   H23732249   0.474   3.216   2.783 -1.5904 -1.2176  0.7167
  107MOL   H23832250   0.509   3.064   2.709  1.7320  2.2379  1.5782
  107MOL   H23932251   0.654   3.198   2.593 -0.0065  1.0701  0.2340
  107MOL   H24032252   0.574   3.343   2.602  1.7363 -1.3497  1.0300
  107MOL   H24132253   0.530   3.223   2.479  0.0013  0.1520  0.2039
  107MOL   C24232254   0.043   3.094   2.723 -0.8589 -0.5183 -0.1799
  107MOL   C24332255   0.044   3.100   2.875 -0.0800  0.1077  0.7936
  107MOL   C24432256   0.030   2.957   2.939  0.2187  0.7372 -0.3341
  107MOL   O24532257   0.114   2.919   3.017 -0.1506 -0.5204 -0.1942
  107MOL   O24632258   7.827   2.890   2.904  0.3554 -0.0277 -0.3902
  107MOL   C24732259   7.798   2.773   2.978  0.4288  0.0032 -0.0710
  107MOL   C24832260   7.651   2.752   2.979  0.0316  0.0079  0.0113
  107MOL   H24932261   7.865   3.044   2.680  0.0815 -1.2467 -1.2540
  107MOL   H25032262   0.117   3.014   2.713  2.2215  2.3533 -1.6047
  107MOL   H25132263   0.142   3.131   2.910  0.8098  1.4669 -2.7035
  107MOL   H25232264   7.842   2.682   2.935 -3.2336 -1.2820 -1.3070
  107MOL   H25332265   7.832   2.794   3.079 -0.3441  1.5790 -0.1358
  107MOL   H25432266   7.629   2.666   3.042 -0.3610  0.4770  0.5186
  107MOL   H25532267   7.608   2.739   2.879  0.1205  0.3847 -0.0762
  107MOL   H25632268   7.590   2.832   3.021 -2.3895 -0.7263 -1.9409
  107MOL   C25732269   7.852   3.204   2.927  0.3868 -0.2581 -0.5177
  107MOL   C25832270   7.860   3.241   3.077 -0.5636  0.3648 -0.0032
  107MOL   C25932271   0.078   3.303   3.129  0.3746  0.4105 -0.4430
  107MOL   O26032272   0.110   3.293   3.248 -0.0810 -0.1760  0.0741
  107MOL   O26132273   0.138   3.378   3.045 -0.3089  0.4165  0.2729
  107MOL   C26232274   0.237   3.477   3.071 -0.0383  0.3802 -0.2429
  107MOL   C26332275   0.374   3.402   3.049 -0.0193 -0.4346  0.0057
  107MOL   H26432276   7.851   3.293   2.864 -1.8119 -1.6803 -2.5941
  107MOL   H26532277   7.751   3.166   2.909  1.2728 -3.5056  1.0175
  107MOL   H26632278   7.794   3.327   3.080 -1.5460 -0.3931  0.4168
  107MOL   H26732279   0.226   3.559   2.999  1.4690  1.8134  1.1173
  107MOL   H26832280   0.222   3.511   3.174 -1.1895 -0.6776 -0.0445
  107MOL   H26932281   0.403   3.371   2.949 -1.2860 -0.2958 -0.4030
  107MOL   H27032282   0.383   3.311   3.109 -2.1882  1.1520  2.8514
  107MOL   H27132283   0.460   3.466   3.071 -0.4046  0.3703 -0.8070
  107MOL   C27232284   7.796   3.148   3.176 -0.4873 -0.3784  0.0372
  107MOL   C27332285   7.727   3.205   3.298  0.2559  0.0544  0.3295
  107MOL   C27432286   7.711   3.102   3.406  0.2796 -0.5419 -0.6380
  107MOL   O27532287   7.755   3.130   3.518  0.1693 -0.6810  0.3664
  107MOL   O27632288   7.649   2.987   3.376  0.1289 -0.2801  0.0428
  107MOL   C27732289   7.655   2.895   3.479 -0.1174 -0.8281  0.3874
  107MOL   C27832290   7.639   2.767   3.407 -0.3429 -0.8957  0.4716
  107MOL   H27932291   7.726   3.086   3.119  0.0334  0.1497 -1.2141
  107MOL   H28032292   7.876   3.079   3.201  0.3264  0.9094  1.0510
  107MOL   H28132293   7.788   3.284   3.342  1.5231 -1.4674  1.3439
  107MOL   H28232294   7.748   2.894   3.536 -1.1235  0.0682  2.0862
  107MOL   H28332295   7.576   2.910   3.552  0.7835  1.3434  0.9652
  107MOL   H28432296   7.714   2.744   3.332 -0.4787  1.4679 -0.4458
  107MOL   H28532297   7.542   2.754   3.359  0.2839  1.5525 -1.5879
  107MOL   H28632298   7.647   2.677   3.468  1.4535 -0.1320  1.4097
  107MOL   C28732299   7.588   3.256   3.256  0.8239 -0.4224  0.5898
  107MOL   C28832300   7.521   3.360   3.349 -0.5170 -0.3191  0.5886
  107MOL   C28932301   7.584   3.498   3.336 -0.0296  0.2608 -0.6451
  107MOL   O29032302   7.634   3.557   3.431  0.2653  0.6530  0.2614
  107MOL   O29132303   7.579   3.557   3.211 -0.2878  0.4997 -0.2455
  107MOL   C29232304   7.605   3.693   3.195  0.2236  0.0815 -0.3178
  107MOL   C29332305   7.687   3.716   3.064 -0.0272  0.0527 -0.2586
  107MOL   H29432306   7.574   3.301   3.157 -0.9311  1.2533  1.5676
  107MOL   H29532307   7.525   3.167   3.249  0.9691 -0.4942  0.1250
  107MOL   H29632308   7.418   3.369   3.316 -0.5470 -1.2016  0.4321
  107MOL   H29732309   7.516   3.754   3.181 -0.1011 -0.3848 -0.2922
  107MOL   H29832310   7.661   3.729   3.282  1.5892 -1.0617 -0.7054
  107MOL   H29932311   7.769   3.646   3.052  0.0761 -0.1292  1.3936
  107MOL   H30032312   7.728   3.817   3.070  2.7902 -0.9250 -2.1468
  107MOL   H30132313   7.616   3.706   2.982  0.6223 -0.6036 -0.7420
  107MOL   H30232314   7.521   3.330   3.453  0.0228 -0.2453  0.6146
  108MOL     C132315   0.795   2.521   2.947  0.2727 -0.2052  0.7853
  108MOL     C232316   0.667   2.432   2.959  0.2253  0.1428  0.0116
  108MOL     C332317   0.545   2.500   2.898  0.1594 -0.1979 -0.6377
  108MOL     O432318   0.470   2.439   2.820 -0.0205  0.0199  0.0081
  108MOL     O532319   0.531   2.627   2.930  0.2570 -0.0972  0.0909
  108MOL     C632320   0.419   2.696   2.877 -0.3371 -0.5930 -0.0536
  108MOL     C732321   0.422   2.848   2.923  0.1037 -0.2901 -0.0958
  108MOL     H832322   0.782   2.614   2.893 -0.4050 -0.4971  0.4415
  108MOL     H932323   0.868   2.470   2.883  0.3240 -0.3694  0.9741
  108MOL    H1032324   0.683   2.340   2.904  0.3217 -0.3014  0.7754
  108MOL    H1132325   0.446   2.688   2.772 -2.8518 -2.0997 -0.5965
  108MOL    H1232326   0.322   2.659   2.907 -1.7340  2.7329 -0.2325
  108MOL    H1332327   0.399   2.863   3.028 -0.9276 -1.8444 -0.0869
  108MOL    H1432328   0.345   2.894   2.861 -0.5865 -0.7643  0.4110
  108MOL    H1532329   0.515   2.904   2.910  0.0681 -0.1553  0.2229
  108MOL    H1632330   0.842   2.533   3.045 -0.3289 -0.8830  1.1660
  108MOL    C1732331   0.640   2.384   3.102  0.3966  0.4768 -0.5169
  108MOL    C1832332   0.725   2.259   3.137 -0.5003  0.6091  0.6694
  108MOL    C1932333   0.666   2.126   3.070  0.2118  0.3706  0.5409
  108MOL    O2032334   0.542   2.101   3.080  0.1752  0.2260  0.2956
  108MOL    O2132335   0.755   2.047   3.003 -0.9478 -0.1527 -0.1536
  108MOL    C2232336   0.734   1.916   2.964  0.5643  1.0284 -0.5360
  108MOL    C2332337   0.868   1.883   2.896 -0.5126 -0.1209  0.1655
  108MOL    H2432338   0.635   2.467   3.172 -0.8839 -0.2218  0.2315
  108MOL    H2532339   0.537   2.350   3.113  0.3123 -0.5686 -3.8741
  108MOL    H2632340   0.819   2.278   3.085  0.6575 -2.4334  1.5287
  108MOL    H2732341   0.709   1.847   3.045  0.3635  0.6435 -0.9210
  108MOL    H2832342   0.658   1.906   2.886 -0.2655 -0.6646  0.4485
  108MOL    H2932343   0.937   1.864   2.979  1.5317  2.1970 -0.9524
  108MOL    H3032344   0.905   1.973   2.847 -0.7075 -0.1265  0.0101
  108MOL    H3132345   0.866   1.798   2.828 -1.8529  0.8754 -1.0725
  108MOL    C3232346   0.726   2.239   3.282 -0.3492 -0.8478  0.8625
  108MOL    C3332347   0.848   2.159   3.326 -0.6836 -0.6073 -0.0653
  108MOL    C3432348   0.801   2.036   3.405 -0.3778 -0.6454 -0.1913
  108MOL    O3532349   0.863   2.001   3.498 -0.3611 -0.4015 -0.6844
  108MOL    O3632350   0.684   1.973   3.363 -0.1799 -0.5471  0.3300
  108MOL    C3732351   0.643   1.847   3.427 -0.5304  0.4522  0.3101
  108MOL    C3832352   0.564   1.750   3.341 -0.7349 -0.3318 -0.3615
  108MOL    H3932353   0.727   2.334   3.336 -1.1660  0.8279 -1.9544
  108MOL    H4032354   0.630   2.212   3.326  0.8141 -0.3650  3.7572
  108MOL    H4132355   0.888   2.110   3.236  1.3222  0.2306  0.3407
  108MOL    H4232356   0.726   1.798   3.478 -1.6110 -2.3879 -0.5677
  108MOL    H4332357   0.589   1.870   3.519 -1.7326  1.8076 -0.6982
  108MOL    H4432358   0.619   1.706   3.258 -0.7626  0.2289 -0.6862
  108MOL    H4532359   0.474   1.792   3.295  0.3013  0.3832 -1.7980
  108MOL    H4632360   0.539   1.666   3.405  0.1853 -0.2206  0.1393
  108MOL    C4732361   0.961   2.236   3.400 -0.1321  0.3001 -0.0217
  108MOL    C4832362   1.016   2.355   3.324 -0.0785 -0.0805  0.6727
  108MOL    C4932363   1.098   2.325   3.198 -0.1423 -0.4679  0.0309
  108MOL    O5032364   1.075   2.375   3.092 -0.2061  0.1884  0.3524
  108MOL    O5132365   1.188   2.229   3.216 -0.1293 -0.0418  0.0471
  108MOL    C5232366   1.230   2.159   3.103 -0.1867 -0.0800  0.5432
  108MOL    C5332367   1.123   2.069   3.031 -0.0473 -0.1682  0.0416
  108MOL    H5432368   0.920   2.263   3.496 -0.2688 -1.4569  0.4374
  108MOL    H5532369   1.040   2.162   3.416 -1.0700 -0.9053 -0.8856
  108MOL    H5632370   0.930   2.403   3.277 -0.5120 -2.6806 -1.2554
  108MOL    H5732371   1.281   2.229   3.036  0.3394  0.2583  1.2942
  108MOL    H5832372   1.316   2.104   3.142  1.2601  0.4892 -1.6922
  108MOL    H5932373   1.025   2.116   3.041 -0.8601 -1.8157  0.0060
  108MOL    H6032374   1.119   1.971   3.078  0.5410 -0.0800  0.2696
  108MOL    H6132375   1.148   2.050   2.927  0.4622  0.4296  0.0526
  108MOL    C6232376   1.089   2.464   3.410 -0.0113  0.5341 -0.9327
  108MOL    C6332377   1.221   2.414   3.483  0.5414  0.3701  0.3631
  108MOL    C6432378   1.180   2.333   3.611 -0.1752 -0.4194 -0.5373
  108MOL    O6532379   1.107   2.380   3.707 -0.1989  1.0340  0.2471
  108MOL    O6632380   1.227   2.210   3.606 -0.4274 -0.1659  0.5429
  108MOL    C6732381   1.182   2.114   3.694  0.4937  0.3304 -0.0710
  108MOL    C6832382   1.183   1.976   3.632  0.0578  0.0501  0.0917
  108MOL    H6932383   1.104   2.553   3.348 -0.8888  1.6773  0.4590
  108MOL    H7032384   1.019   2.495   3.487  0.4696 -3.7455  1.3869
  108MOL    H7132385   1.274   2.349   3.413 -2.2268  0.1856 -1.6381
  108MOL    H7232386   1.244   2.107   3.784  0.5512 -0.6772 -0.1849
  108MOL    H7332387   1.078   2.127   3.727 -0.1858 -2.2589 -1.0765
  108MOL    H7432388   1.136   1.913   3.707 -3.6709  3.1562  0.5273
  108MOL    H7532389   1.280   1.933   3.607  0.4871  1.2473 -0.3539
  108MOL    H7632390   1.119   1.994   3.545 -0.5653  0.8296  0.7134
  108MOL    C7732391   1.314   2.531   3.522 -0.3490  0.2295 -0.0428
  108MOL    C7832392   1.382   2.598   3.401  0.3674 -0.2505  0.3657
  108MOL    C7932393   1.505   2.523   3.346 -0.4751  0.5582 -0.2261
  108MOL    O8032394   1.523   2.493   3.230  0.5154 -0.2347  0.3465
  108MOL    O8132395   1.589   2.503   3.442  0.0593 -0.2283 -0.7414
  108MOL    C8232396   1.718   2.449   3.435 -0.2988 -0.5522 -0.1786
  108MOL    C8332397   1.721   2.305   3.394  0.5995  0.4522  0.6466
  108MOL    H8432398   1.254   2.604   3.576 -1.5330  1.8434 -3.4167
  108MOL    H8532399   1.380   2.491   3.599  0.3450 -2.1646 -1.8158
  108MOL    H8632400   1.311   2.598   3.319 -2.0920  0.8410  2.4277
  108MOL    H8732401   1.782   2.515   3.376  2.7624 -2.7903  0.5000
  108MOL    H8832402   1.763   2.463   3.533 -1.7481 -0.9284  0.5473
  108MOL    H8932403   1.820   2.273   3.427  0.6013 -0.8341 -0.5450
  108MOL    H9032404   1.721   2.284   3.287  0.0386 -0.5826  0.8374
  108MOL    H9132405   1.655   2.230   3.437 -1.5850  2.8554  1.6349
  108MOL    C9232406   1.409   2.746   3.429 -0.1184  0.3359  0.0887
  108MOL    C9332407   1.363   2.841   3.311 -0.3294 -0.2159  0.4546
  108MOL    C9432408   1.452   2.834   3.188 -0.2323  0.2422 -0.1140
  108MOL    O9532409   1.414   2.785   3.081  0.1657 -0.1857  0.8612
  108MOL    O9632410   1.573   2.894   3.207 -0.0995 -0.0280 -0.1745
  108MOL    C9732411   1.665   2.902   3.096 -0.2954  0.0508 -0.3459
  108MOL    C9832412   1.762   2.776   3.103 -0.1667 -1.0049  0.0921
  108MOL    H9932413   1.357   2.783   3.517 -0.5799 -1.2160  0.4820
  108MOL   H10032414   1.516   2.756   3.446  0.0328  0.1123 -0.7166
  108MOL   H10132415   1.263   2.799   3.297 -0.1392 -1.6254  2.8451
  108MOL   H10232416   1.623   2.909   2.995 -0.7863 -3.4025 -0.4216
  108MOL   H10332417   1.729   2.988   3.117  3.5557 -2.6963 -0.1801
  108MOL   H10432418   1.706   2.685   3.080  1.3153 -1.4945 -1.6358
  108MOL   H10532419   1.825   2.760   3.191  1.9169 -3.1130 -1.7185
  108MOL   H10632420   1.818   2.782   3.010 -0.5742 -4.0255 -0.4057
  108MOL   C10732421   1.347   2.994   3.357  0.4083  0.0207 -0.4860
  108MOL   C10832422   1.259   3.026   3.474 -0.5125  0.2136  0.2302
  108MOL   C10932423   1.117   2.959   3.455 -0.2404 -1.2128 -0.0923
  108MOL   O11032424   1.042   2.991   3.363 -0.3213  0.7278 -0.2385
  108MOL   O11132425   1.089   2.868   3.539 -0.0934 -0.2387  0.3874
  108MOL   C11232426   0.958   2.809   3.535  0.8609  0.3520  0.3487
  108MOL   C11332427   0.935   2.746   3.669  0.0876 -0.3827  0.1938
  108MOL   H11432428   1.445   3.038   3.379  0.4192  1.1284 -2.5881
  108MOL   H11532429   1.305   3.047   3.272 -0.3946 -2.0278 -1.3787
  108MOL   H11632430   1.310   2.984   3.561 -0.0217  1.8303  0.7452
  108MOL   H11732431   0.876   2.881   3.523  0.2225 -0.2734  0.9642
  108MOL   H11832432   0.943   2.741   3.451  1.4024 -0.3259  0.7981
  108MOL   H11932433   1.008   2.665   3.685  0.6872 -0.2874 -2.0028
  108MOL   H12032434   0.838   2.698   3.679 -0.3779  0.5815  0.3424
  108MOL   H12132435   0.958   2.815   3.751  3.1924 -2.0300  0.8274
  108MOL   C12232436   1.249   3.181   3.479  0.2959  0.0141 -0.1197
  108MOL   C12332437   1.183   3.244   3.602 -0.1076 -0.0556  0.3188
  108MOL   C12432438   1.033   3.246   3.585 -0.1890 -0.1600 -0.2623
  108MOL   O12532439   0.960   3.165   3.653  0.6210 -0.6660 -0.0145
  108MOL   O12632440   0.984   3.335   3.497 -0.0209 -0.2794  0.2098
  108MOL   C12732441   0.849   3.339   3.460 -0.0269  0.6525 -0.7025
  108MOL   C12832442   0.802   3.478   3.431  0.5265  0.4831 -0.2983
  108MOL   H12932443   1.351   3.221   3.480 -0.1429  1.1003  1.4288
  108MOL   H13032444   1.208   3.217   3.384  1.1297 -1.8086 -1.2026
  108MOL   H13132445   1.194   3.196   3.700 -2.0143  2.1184  1.6405
  108MOL   H13232446   0.833   3.283   3.368  0.9170 -1.5937  0.4678
  108MOL   H13332447   0.799   3.290   3.544  2.0918 -1.0111 -0.3726
  108MOL   H13432448   0.835   3.548   3.508 -0.2709  0.2300  0.2849
  108MOL   H13532449   0.694   3.482   3.415 -0.1311  0.0180  3.4102
  108MOL   H13632450   0.858   3.505   3.342  0.6879 -2.2009 -1.0612
  108MOL   C13732451   1.235   3.388   3.624 -0.2524  0.3604 -0.0006
  108MOL   C13832452   1.305   3.416   3.759  1.0521  0.0013  0.2009
  108MOL   C13932453   1.202   3.402   3.874 -0.4072  0.1897 -0.4098
  108MOL   O14032454   1.230   3.349   3.982  0.0765 -0.1476 -0.3195
  108MOL   O14132455   1.089   3.477   3.849  0.0751  0.0433 -0.1277
  108MOL   C14232456   0.966   3.468   3.916 -0.2525  1.0008 -0.3107
  108MOL   C14332457   0.868   3.544   3.827 -0.2730 -0.0522  0.8579
  108MOL   H14432458   1.297   3.419   3.540  1.2584 -2.4830  0.0060
  108MOL   H14532459   1.151   3.457   3.619 -0.5705  0.2203  2.3913
  108MOL   H14632460   1.388   3.345   3.764  0.5698 -0.5355  0.8932
  108MOL   H14732461   0.950   3.361   3.929  1.5006  0.8799  1.0722
  108MOL   H14832462   0.956   3.511   4.016 -0.9604  2.5725 -1.0282
  108MOL   H14932463   0.772   3.553   3.879 -0.1485 -1.1067  1.2692
  108MOL   H15032464   0.859   3.489   3.733 -1.4946  3.2986 -1.1158
  108MOL   H15132465   0.919   3.639   3.809  0.1241 -0.3232  0.5317
  108MOL   C15232466   1.376   3.552   3.766  0.7915 -0.5072 -0.4598
  108MOL   C15332467   1.494   3.552   3.866  0.4194 -0.0294 -1.2312
  108MOL   C15432468   1.513   3.695   3.909  0.2097 -0.1177  0.4225
  108MOL   O15532469   1.492   3.729   4.027  0.0261  0.5357  0.2342
  108MOL   O15632470   1.561   3.777   3.807 -0.7421  0.4657 -0.1556
  108MOL   C15732471   1.579   3.912   3.837 -0.3956 -0.3967  0.7782
  108MOL   C15832472   1.707   3.936   3.917  0.3371  0.5582 -0.1495
  108MOL   H15932473   1.422   3.584   3.673  3.2306  1.9696  1.4914
  108MOL   H16032474   1.305   3.635   3.781 -0.3284 -1.6515  0.7836
  108MOL   H16132475   1.454   3.496   3.951  1.8127  3.0063  1.5162
  108MOL   H16232476   1.582   3.969   3.744  1.6798  0.2732  1.2207
  108MOL   H16332477   1.502   3.959   3.900 -0.0861  1.0974  0.0710
  108MOL   H16432478   1.700   3.885   4.013  1.7942 -1.5867 -1.1395
  108MOL   H16532479   1.728   4.037   3.952 -0.8990  0.6069  0.4747
  108MOL   H16632480   1.791   3.896   3.860  0.6003  3.0232 -1.5406
  108MOL   C16732481   1.631   3.479   3.823  0.8390  0.3533 -0.0985
  108MOL   C16832482   1.703   3.518   3.690  0.0610 -0.5835  0.3577
  108MOL   C16932483   1.708   3.399   3.593 -0.1933 -0.2182  0.2397
  108MOL   O17032484   1.790   3.308   3.600  0.4623  0.2192  0.0999
  108MOL   O17132485   1.626   3.411   3.496 -0.8398  0.1886  0.5179
  108MOL   C17232486   1.615   3.303   3.402  0.4573  0.2592  0.0088
  108MOL   C17332487   1.521   3.347   3.294  0.4698 -0.4988 -0.1959
  108MOL   H17432488   1.698   3.486   3.908  1.3774  0.2030 -0.5044
  108MOL   H17532489   1.612   3.371   3.815 -0.2221  0.4053  1.4692
  108MOL   H17632490   1.638   3.596   3.650  1.6197  0.4286 -0.2281
  108MOL   H17732491   1.714   3.281   3.360  1.0540  2.4577  0.2199
  108MOL   H17832492   1.575   3.212   3.447 -1.3914  2.3783  2.7464
  108MOL   H17932493   1.505   3.257   3.234  0.3292 -0.3216 -0.4231
  108MOL   H18032494   1.561   3.428   3.234  1.0602  0.3083  1.2445
  108MOL   H18132495   1.421   3.380   3.324 -0.8259 -0.2889 -4.4932
  108MOL   C18232496   1.846   3.583   3.704  0.7063 -0.2640 -0.2660
  108MOL   C18332497   1.913   3.663   3.590  0.3260  0.2108  0.6203
  108MOL   C18432498   1.840   3.794   3.553  0.9374  0.2996 -0.2559
  108MOL   O18532499   1.893   3.906   3.562  0.1269 -0.3995  0.1014
  108MOL   O18632500   1.710   3.767   3.508  0.3018  0.8162  0.0042
  108MOL   C18732501   1.624   3.864   3.455  0.1216  0.1982 -0.5866
  108MOL   C18832502   1.503   3.797   3.406 -0.0222 -0.0828 -0.7281
  108MOL   H18932503   1.850   3.645   3.794 -0.3294  0.8704 -0.9698
  108MOL   H19032504   1.913   3.505   3.740 -1.3027 -0.9557  2.1197
  108MOL   H19132505   2.005   3.694   3.639  0.4579 -0.6859  0.9483
  108MOL   H19232506   1.597   3.938   3.530 -1.9198 -0.5983 -0.4914
  108MOL   H19332507   1.675   3.917   3.375  2.0665  1.1714  1.2516
  108MOL   H19432508   1.538   3.719   3.339  1.3518 -1.3590  1.4194
  108MOL   H19532509   1.435   3.868   3.358 -0.9527 -0.7568 -0.4295
  108MOL   H19632510   1.443   3.755   3.487  2.3351 -4.7003 -1.2342
  108MOL   C19732511   1.946   3.584   3.459  0.6817  0.6938 -0.2088
  108MOL   C19832512   2.033   3.660   3.358  0.2958  0.2353 -0.0379
  108MOL   C19932513   1.988   3.643   3.212  0.6924 -0.6628  0.2412
  108MOL   O20032514   1.937   3.732   3.143 -0.7389  0.8361 -0.2879
  108MOL   O20132515   2.011   3.514   3.164  0.4505  0.3463 -0.4609
  108MOL   C20232516   1.978   3.487   3.027  0.1136  0.2614  0.7119
  108MOL   C20332517   1.824   3.473   3.016  0.0177  0.1845  1.0043
  108MOL   H20432518   2.004   3.498   3.493 -2.6362 -0.7255  2.1483
  108MOL   H20532519   1.854   3.542   3.417  2.3256 -3.5954  0.1849
  108MOL   H20632520   2.033   3.766   3.387 -0.7966  0.3676 -0.5237
  108MOL   H20732521   2.009   3.572   2.967  1.6399 -1.9714 -1.7758
  108MOL   H20832522   2.040   3.408   2.985  1.1905  0.8180  1.2194
  108MOL   H20932523   1.782   3.389   3.071  0.6861 -1.6368 -1.1897
  108MOL   H21032524   1.793   3.462   2.913  2.4740  2.0983  0.0231
  108MOL   H21132525   1.776   3.555   3.070  0.6526  0.2021  1.5549
  108MOL   C21232526   2.187   3.628   3.377 -0.8137  0.1717  0.0590
  108MOL   C21332527   2.282   3.747   3.360 -0.2129 -0.0904  0.1973
  108MOL   C21432528   2.265   3.817   3.224 -0.4046  0.7901  0.1907
  108MOL   O21532529   2.333   3.794   3.126  0.1540 -0.0262  0.4140
  108MOL   O21632530   2.170   3.912   3.222 -0.7470  0.4758 -0.5873
  108MOL   C21732531   2.125   3.977   3.107 -0.5338  0.4661 -0.8425
  108MOL   C21832532   2.018   4.078   3.143  0.4901 -0.3665 -0.1263
  108MOL   H21932533   2.188   3.597   3.481 -2.2738 -1.1727 -0.3111
  108MOL   H22032534   2.213   3.541   3.317  0.8408  1.3665 -1.0201
  108MOL   H22132535   2.261   3.821   3.437 -3.8810  0.3729 -1.1162
  108MOL   H22232536   2.218   4.025   3.076  0.5617 -0.2787  1.2167
  108MOL   H22332537   2.105   3.897   3.036  1.6444 -0.3542 -0.5581
  108MOL   H22432538   1.981   4.135   3.058  1.5269  1.5017  0.6601
  108MOL   H22532539   2.066   4.161   3.195 -0.8344  1.5547 -1.8787
  108MOL   H22632540   1.936   4.035   3.201  0.7097  0.8724  1.1363
  108MOL   C22732541   2.428   3.697   3.394 -0.6961 -0.3813 -0.2601
  108MOL   C22832542   2.527   3.804   3.457  0.9256 -0.6365 -0.1592
  108MOL   C22932543   2.566   3.918   3.357 -0.1542 -0.3971  0.7612
  108MOL   O23032544   2.669   3.902   3.284  0.1434 -0.2807  0.0372
  108MOL   O23132545   2.488   4.025   3.350 -0.0021  0.2696  0.0427
  108MOL   C23232546   2.530   4.126   3.264 -0.2705  0.5449  0.3465
  108MOL   C23332547   2.407   4.220   3.249 -0.7309  0.7848 -0.0710
  108MOL   H23432548   2.426   3.615   3.467 -1.9894  0.6463  0.8965
  108MOL   H23532549   2.474   3.651   3.307  1.5337  1.0434  0.1544
  108MOL   H23632550   2.470   3.846   3.539 -0.1465 -1.0828 -0.6650
  108MOL   H23732551   2.615   4.186   3.297  0.1524 -0.2275  0.6707
  108MOL   H23832552   2.549   4.079   3.167 -1.7865  1.2847 -0.3238
  108MOL   H23932553   2.371   4.262   3.343 -1.3322 -1.2311  0.6066
  108MOL   H24032554   2.332   4.166   3.192  0.3635 -2.4477  1.4362
  108MOL   H24132555   2.418   4.301   3.176 -0.3982  0.3845 -0.4662
  108MOL   C24232556   2.653   3.755   3.532  0.6349 -0.0210  0.4340
  108MOL   C24332557   2.638   3.678   3.664 -0.2718  0.4190 -0.1730
  108MOL   C24432558   2.536   3.730   3.758  0.4221  0.3451  0.6589
  108MOL   O24532559   2.566   3.824   3.828  0.2924  0.6495 -0.3197
  108MOL   O24632560   2.415   3.673   3.753  0.1703 -0.2008 -0.3784
  108MOL   C24732561   2.316   3.710   3.845  0.6713 -0.3937  0.3952
  108MOL   C24832562   2.241   3.825   3.783  0.5909  0.3919  0.8428
  108MOL   H24932563   2.698   3.695   3.453 -0.1693 -1.1775  0.8495
  108MOL   H25032564   2.734   3.828   3.540 -1.3568  2.4156 -0.8230
  108MOL   H25132565   2.598   3.582   3.629  2.2996 -0.6624 -0.2218
  108MOL   H25232566   2.245   3.627   3.844  0.7290 -0.4498 -0.9170
  108MOL   H25332567   2.340   3.734   3.948  0.9319 -3.6525  1.1415
  108MOL   H25432568   2.302   3.891   3.721  1.2096 -1.3263 -0.4267
  108MOL   H25532569   2.203   3.891   3.861 -1.8664  0.2696 -0.2129
  108MOL   H25632570   2.155   3.791   3.725  0.9364  0.5169  0.2469
  108MOL   C25732571   2.778   3.664   3.740  0.1199 -0.9658 -0.3641
  108MOL   C25832572   2.795   3.607   3.883  0.3204  0.2589  0.5940
  108MOL   C25932573   2.922   3.664   3.945  0.8259  0.1196  0.1895
  108MOL   O26032574   2.924   3.755   4.029  0.2336 -0.0332 -0.0460
  108MOL   O26132575   3.027   3.594   3.904 -0.5776  0.1620  0.1153
  108MOL   C26232576   3.164   3.639   3.918  0.3365  0.0565 -0.7195
  108MOL   C26332577   3.269   3.556   3.838  0.1270 -0.3779 -0.1958
  108MOL   H26432578   2.857   3.625   3.676  1.1562  0.4340  0.0498
  108MOL   H26532579   2.803   3.770   3.748 -1.6802 -0.6196  0.9098
  108MOL   H26632580   2.721   3.656   3.946  2.1122  1.2250  2.0132
  108MOL   H26732581   3.165   3.745   3.892  0.8029 -0.5405 -3.3017
  108MOL   H26832582   3.182   3.630   4.025  0.1622  2.4011 -0.4682
  108MOL   H26932583   3.238   3.540   3.735  0.9278  0.4697 -0.5747
  108MOL   H27032584   3.271   3.459   3.887  2.9359  1.5054  3.7149
  108MOL   H27132585   3.367   3.604   3.835 -0.5285  0.9750 -0.1461
  108MOL   C27232586   2.785   3.454   3.889  0.7982  0.3867  0.0153
  108MOL   C27332587   2.636   3.412   3.886  0.0159 -0.4274 -0.5315
  108MOL   C27432588   2.558   3.438   4.013  0.4472 -0.2030  0.3399
  108MOL   O27532589   2.444   3.482   4.007  0.3131 -0.4676 -0.2311
  108MOL   O27632590   2.614   3.407   4.129  0.0512 -0.0791 -0.5696
  108MOL   C27732591   2.528   3.391   4.244 -0.5467 -0.4422 -0.3358
  108MOL   C27832592   2.583   3.272   4.319 -0.2313 -0.0139 -0.3533
  108MOL   H27932593   2.834   3.408   3.804 -0.3134  0.3510 -0.6096
  108MOL   H28032594   2.841   3.410   3.971  1.1510 -0.2968 -0.5921
  108MOL   H28132595   2.584   3.456   3.802  1.0219 -0.6450 -1.2816
  108MOL   H28232596   2.512   3.484   4.299 -0.1092 -0.3947 -0.2874
  108MOL   H28332597   2.427   3.370   4.208 -1.3162  1.5107  0.5961
  108MOL   H28432598   2.669   3.313   4.373  0.7084 -0.2849 -1.6030
  108MOL   H28532599   2.617   3.188   4.258  0.1445 -1.1677  1.4196
  108MOL   H28632600   2.522   3.238   4.402 -0.1195 -0.3536 -0.4095
  108MOL   C28732601   2.628   3.262   3.844 -0.1359  0.0166 -0.2704
  108MOL   C28832602   2.492   3.192   3.838  0.6749 -0.6280 -0.1661
  108MOL   C28932603   2.393   3.242   3.734  0.4952  0.0636  0.0248
  108MOL   O29032604   2.430   3.284   3.619  0.2147  0.1594  0.0192
  108MOL   O29132605   2.267   3.238   3.775  0.1555 -0.3830 -0.0992
  108MOL   C29232606   2.153   3.285   3.695 -0.1009 -0.4567  0.5841
  108MOL   C29332607   2.112   3.193   3.589  0.7729 -0.0013 -0.5216
  108MOL   H29432608   2.673   3.250   3.746 -0.1790 -0.2368 -0.2608
  108MOL   H29532609   2.690   3.210   3.918  0.3784  0.7790 -0.1685
  108MOL   H29632610   2.514   3.092   3.802  2.3827  0.2432 -1.6408
  108MOL   H29732611   2.065   3.304   3.756  0.8480 -0.1613  1.8824
  108MOL   H29832612   2.176   3.383   3.652 -0.3486 -0.4427  0.4849
  108MOL   H29932613   2.096   3.094   3.630 -1.1355  0.6340  0.3063
  108MOL   H30032614   2.201   3.182   3.526  1.0721 -2.1649  0.2625
  108MOL   H30132615   2.031   3.224   3.522 -1.1994  0.1531  1.8852
  108MOL   H30232616   2.443   3.193   3.935  2.0387  0.9161  0.5205
  109MOL     C132617   4.159   2.343   3.069  0.1421 -0.1795 -0.1812
  109MOL     C232618   4.072   2.227   3.125 -0.4617 -0.0175 -0.2447
  109MOL     C332619   4.028   2.145   3.004  0.5042  0.3831 -0.7205
  109MOL     O432620   3.907   2.142   2.983 -0.2179  0.0200  0.2747
  109MOL     O532621   4.123   2.073   2.943 -0.3963  0.8847 -0.0603
  109MOL     C632622   4.098   1.982   2.836 -0.2199  0.5215 -0.0040
  109MOL     C732623   4.149   2.058   2.705  0.2689  0.8194 -0.1387
  109MOL     H832624   4.261   2.306   3.064  1.0787  2.4011 -1.1008
  109MOL     H932625   4.156   2.430   3.135  0.7655  0.1269 -0.5532
  109MOL    H1032626   4.131   2.164   3.191 -0.5530  1.1827  1.0202
  109MOL    H1132627   4.146   1.885   2.849  0.2429  0.8548  0.8364
  109MOL    H1232628   3.989   1.975   2.839 -0.2893  1.6597  0.9457
  109MOL    H1332629   4.149   1.998   2.614  0.2508 -0.4449  0.6783
  109MOL    H1432630   4.252   2.078   2.736  0.1369 -0.1813  1.0055
  109MOL    H1532631   4.102   2.151   2.676  0.1796  0.6513 -0.5298
  109MOL    H1632632   4.149   2.369   2.963 -0.9297 -2.3051 -0.6386
  109MOL    C1732633   3.959   2.285   3.214 -0.2706  0.1715 -0.4834
  109MOL    C1832634   3.873   2.177   3.293 -0.0005 -0.1358  0.8275
  109MOL    C1932635   3.740   2.246   3.335  0.1991 -0.0370  0.3842
  109MOL    O2032636   3.717   2.369   3.328  0.2261  0.1306  0.0189
  109MOL    O2132637   3.652   2.151   3.380  0.0921  0.0497  0.2690
  109MOL    C2232638   3.519   2.192   3.418  0.2169 -0.0625 -0.0137
  109MOL    C2332639   3.515   2.249   3.563 -0.8125  0.2221  0.2273
  109MOL    H2432640   3.996   2.356   3.289 -0.2194 -2.1088  1.7090
  109MOL    H2532641   3.895   2.344   3.149 -2.3201  0.0582  1.3715
  109MOL    H2632642   3.846   2.101   3.220 -0.3923 -0.1708  1.0088
  109MOL    H2732643   3.482   2.273   3.355  0.2642  1.4659  1.9047
  109MOL    H2832644   3.444   2.114   3.403  0.0032 -0.1846  1.6211
  109MOL    H2932645   3.413   2.260   3.600 -0.8937  0.8647 -0.1744
  109MOL    H3032646   3.563   2.346   3.549  0.0544 -0.2494 -0.1376
  109MOL    H3132647   3.572   2.194   3.637  0.0121  1.7895  0.7910
  109MOL    C3232648   3.943   2.107   3.412  0.0181  0.4317 -0.3631
  109MOL    C3332649   3.897   1.965   3.441  0.1664 -0.3772  0.1346
  109MOL    C3432650   3.856   1.931   3.589 -0.3754 -0.0460  0.5925
  109MOL    O3532651   3.738   1.915   3.622 -0.0024 -0.0602  0.4396
  109MOL    O3632652   3.962   1.935   3.679 -0.1665 -0.4123 -0.2915
  109MOL    C3732653   3.939   1.952   3.821 -0.0116 -0.2825 -0.3606
  109MOL    C3832654   3.940   2.095   3.882  0.4456  0.3340  0.8766
  109MOL    H3932655   4.049   2.117   3.389  0.0893  0.7979  0.1319
  109MOL    H4032656   3.919   2.166   3.500 -3.0912 -2.8649  1.1328
  109MOL    H4132657   3.803   1.935   3.394  0.6317  1.9586 -2.4711
  109MOL    H4232658   3.856   1.888   3.852 -1.9832  1.3371 -2.1485
  109MOL    H4332659   4.027   1.911   3.870 -0.6812  0.5662  1.6062
  109MOL    H4432660   3.962   2.092   3.989  0.5290  2.3559  0.9517
  109MOL    H4532661   3.854   2.162   3.869  0.9989  1.5891  3.2202
  109MOL    H4632662   4.018   2.144   3.823  0.4808  0.5494  1.1003
  109MOL    C4732663   3.990   1.858   3.380 -0.4481 -0.6048 -0.0870
  109MOL    C4832664   3.931   1.724   3.327 -0.1972  0.0197  0.0654
  109MOL    C4932665   4.008   1.605   3.366 -0.2549  0.2007 -0.6728
  109MOL    O5032666   3.969   1.518   3.442  0.3406 -0.0782 -0.4672
  109MOL    O5132667   4.127   1.601   3.313 -0.3395 -0.2863  0.0240
  109MOL    C5232668   4.212   1.492   3.344  0.2551  0.3898 -0.1408
  109MOL    C5332669   4.345   1.494   3.261  0.4083  0.6477  0.5546
  109MOL    H5432670   4.040   1.905   3.295  0.2270 -0.4270  0.4001
  109MOL    H5532671   4.059   1.844   3.463  0.1222 -0.0179 -0.4605
  109MOL    H5632672   3.837   1.713   3.380 -0.2263  1.3663  0.2991
  109MOL    H5732673   4.238   1.495   3.449 -1.9984 -2.8325  0.5680
  109MOL    H5832674   4.160   1.398   3.328  1.1346 -0.4593  1.9105
  109MOL    H5932675   4.412   1.580   3.275  2.3445 -1.1171  2.5931
  109MOL    H6032676   4.321   1.484   3.155 -0.5624  2.2328  0.6142
  109MOL    H6132677   4.399   1.401   3.277 -1.9033 -0.5911  1.3642
  109MOL    C6232678   3.916   1.740   3.172  0.8354 -0.0131 -0.2729
  109MOL    C6332679   3.834   1.641   3.088 -0.0333 -0.6163  0.1921
  109MOL    C6432680   3.690   1.628   3.143 -0.0431 -0.6243 -0.0999
  109MOL    O6532681   3.598   1.656   3.072  0.1463 -0.2902 -0.5904
  109MOL    O6632682   3.680   1.586   3.273 -0.8433  0.3850 -0.2636
  109MOL    C6732683   3.552   1.578   3.339  0.2175  0.0905  0.3638
  109MOL    C6832684   3.537   1.704   3.427  0.3335 -0.3175  0.1645
  109MOL    H6932685   3.873   1.839   3.158 -0.5433 -0.7565 -1.4819
  109MOL    H7032686   4.014   1.761   3.128 -0.1845  2.2751 -1.5473
  109MOL    H7132687   3.833   1.683   2.987 -3.6508  1.4271  0.9841
  109MOL    H7232688   3.468   1.577   3.269  0.6986 -0.0874 -0.2170
  109MOL    H7332689   3.539   1.489   3.401 -0.4662 -0.3337 -0.3830
  109MOL    H7432690   3.625   1.736   3.482  1.8669  0.9967 -2.9600
  109MOL    H7532691   3.444   1.690   3.483 -0.9604  0.1821 -1.8164
  109MOL    H7632692   3.527   1.788   3.359 -2.7117 -0.4435  0.3894
  109MOL    C7732693   3.894   1.500   3.068  0.8223 -0.4436  0.0468
  109MOL    C7832694   4.021   1.478   2.993  0.2361 -1.0238  0.4549
  109MOL    C7932695   4.024   1.556   2.867  0.0800  0.3703 -0.4218
  109MOL    O8032696   4.120   1.633   2.834 -0.5612 -0.1678 -0.1547
  109MOL    O8132697   3.918   1.532   2.790  0.3348 -0.0378 -0.5849
  109MOL    C8232698   3.892   1.598   2.666 -0.8315 -0.0176  0.4096
  109MOL    C8332699   3.801   1.514   2.573 -0.0392  0.0145  0.0889
  109MOL    H8432700   3.895   1.454   3.167 -0.5575 -2.4739 -0.8432
  109MOL    H8532701   3.821   1.433   3.022 -1.6665  2.1184  0.0898
  109MOL    H8632702   4.101   1.529   3.046 -0.9839 -0.6010  1.9459
  109MOL    H8732703   3.868   1.703   2.685  0.9601  0.3796  0.6500
  109MOL    H8832704   3.989   1.613   2.619 -0.7478 -2.1696 -0.1330
  109MOL    H8932705   3.792   1.560   2.475 -1.0187 -0.7211 -0.1631
  109MOL    H9032706   3.706   1.486   2.617 -0.2064  0.4343 -0.0049
  109MOL    H9132707   3.852   1.419   2.555 -1.8798 -0.8165 -0.7873
  109MOL    C9232708   4.057   1.326   2.992  0.0728  0.1847  0.4995
  109MOL    C9332709   4.164   1.273   2.892 -0.2283  0.3604  0.2128
  109MOL    C9432710   4.098   1.245   2.758  0.2659 -0.5447 -0.0046
  109MOL    O9532711   4.124   1.298   2.652  0.5606  0.8193 -0.3014
  109MOL    O9632712   4.002   1.148   2.765 -0.6659 -0.0009 -0.9930
  109MOL    C9732713   3.929   1.110   2.650  0.5291 -0.1274 -0.1750
  109MOL    C9832714   3.817   1.021   2.701  0.6067  0.0666 -0.3211
  109MOL    H9932715   4.085   1.311   3.096 -0.4809 -0.1834  0.5952
  109MOL   H10032716   3.968   1.263   2.992 -0.5770  1.0762 -1.0334
  109MOL   H10132717   4.244   1.345   2.882 -1.0871  1.5004  1.3856
  109MOL   H10232718   3.876   1.195   2.607  1.7290  0.9904  0.4968
  109MOL   H10332719   3.984   1.053   2.575 -0.0745 -2.4768  1.1226
  109MOL   H10432720   3.858   0.955   2.778  1.2550  0.7975 -0.0369
  109MOL   H10532721   3.768   0.959   2.626 -0.7859  1.2019 -0.3669
  109MOL   H10632722   3.748   1.080   2.760 -0.2554 -1.1669 -0.0636
  109MOL   C10732723   4.230   1.140   2.950 -0.8999  0.2970  0.4050
  109MOL   C10832724   4.337   1.165   3.048  0.1247  0.6437 -0.1760
  109MOL   C10932725   4.461   1.240   2.996 -0.1909  0.1856 -0.3300
  109MOL   O11032726   4.493   1.348   3.049 -0.5766  0.8571 -0.3991
  109MOL   O11132727   4.542   1.168   2.923 -0.4028 -0.4343  0.5082
  109MOL   C11232728   4.663   1.228   2.869  0.0891  0.0902 -0.2771
  109MOL   C11332729   4.734   1.132   2.769 -0.1243  0.1888 -0.1880
  109MOL   H11432730   4.150   1.077   2.990 -1.4941  1.6073  1.2992
  109MOL   H11532731   4.269   1.068   2.877  2.5803  1.2844  1.1865
  109MOL   H11632732   4.307   1.237   3.125  0.6495  1.9823 -1.1916
  109MOL   H11732733   4.647   1.323   2.817  1.0884 -0.0498 -0.8559
  109MOL   H11832734   4.731   1.244   2.952 -0.7225 -0.1737  0.4487
  109MOL   H11932735   4.660   1.084   2.705 -0.8968  1.9627 -0.6637
  109MOL   H12032736   4.788   1.053   2.819 -0.3708 -0.1650 -0.4781
  109MOL   H12132737   4.799   1.182   2.696 -1.8783 -0.9012 -2.5942
  109MOL   C12232738   4.376   1.034   3.131  0.2165  0.3615 -0.4494
  109MOL   C12332739   4.285   1.014   3.253  0.2115 -0.3593  0.1987
  109MOL   C12432740   4.283   1.130   3.355 -0.8156  0.5101 -0.5642
  109MOL   O12532741   4.176   1.183   3.392 -0.6227  0.2698  0.2155
  109MOL   O12632742   4.399   1.147   3.407 -0.1879  0.5166 -0.0534
  109MOL   C12732743   4.416   1.225   3.524  0.7075 -0.5961  0.7754
  109MOL   C12832744   4.550   1.290   3.540  0.3633  0.6191 -0.4902
  109MOL   H12932745   4.389   0.945   3.070  1.2840  1.2997 -1.6097
  109MOL   H13032746   4.478   1.050   3.165  0.7458  1.0463 -2.2931
  109MOL   H13132747   4.186   0.992   3.214 -0.8071 -0.8620  2.9794
  109MOL   H13232748   4.333   1.294   3.539 -1.3780 -2.4321 -1.7643
  109MOL   H13332749   4.403   1.174   3.619 -0.0314  0.9236  1.5084
  109MOL   H13432750   4.565   1.338   3.637  1.8760  2.9563 -1.8143
  109MOL   H13532751   4.569   1.368   3.466  0.3644  0.4425 -0.6775
  109MOL   H13632752   4.624   1.212   3.525 -0.4176  0.1570 -2.0813
  109MOL   C13732753   4.332   0.883   3.326  0.2192  0.0847 -0.0078
  109MOL   C13832754   4.249   0.763   3.290 -0.3681  0.8504 -0.6233
  109MOL   C13932755   4.097   0.778   3.344  0.2013 -0.4239 -0.2378
  109MOL   O14032756   4.001   0.770   3.271 -0.2968 -0.5850 -0.0531
  109MOL   O14132757   4.098   0.795   3.484 -0.4164 -0.0340 -0.0420
  109MOL   C14232758   3.977   0.791   3.559 -0.5950  0.3381  0.1083
  109MOL   C14332759   3.938   0.651   3.618 -0.2822  0.2182  0.3465
  109MOL   H14432760   4.435   0.857   3.303  0.7448  1.9265  0.1554
  109MOL   H14532761   4.330   0.884   3.435 -1.8977 -2.4599  0.0325
  109MOL   H14632762   4.249   0.756   3.182 -0.5719 -1.3401 -0.5103
  109MOL   H14732763   3.995   0.855   3.645 -2.1755 -1.3275  1.7229
  109MOL   H14832764   3.888   0.839   3.516 -0.4554  1.0110  0.5670
  109MOL   H14932765   3.856   0.658   3.690 -0.4983  2.1848 -0.0619
  109MOL   H15032766   4.024   0.600   3.662  0.8624  1.3327 -0.5869
  109MOL   H15132767   3.905   0.591   3.533  0.6717  1.9660 -1.2939
  109MOL   C15232768   4.308   0.628   3.343  0.5001  0.1020 -0.0311
  109MOL   C15332769   4.379   0.617   3.482  0.2968 -0.2664  0.1261
  109MOL   C15432770   4.535   0.640   3.469  0.0114 -0.3298  0.6056
  109MOL   O15532771   4.606   0.565   3.401  0.6343 -0.3584 -0.0233
  109MOL   O15632772   4.578   0.745   3.549  0.2192  0.7769  0.2048
  109MOL   C15732773   4.715   0.775   3.546  0.2893 -0.7988  0.5815
  109MOL   C15832774   4.725   0.921   3.509  1.0684  0.3477 -0.3604
  109MOL   H15932775   4.238   0.545   3.331 -1.0074  1.3571 -0.0323
  109MOL   H16032776   4.379   0.589   3.270 -0.3604 -1.4156 -0.0826
  109MOL   H16132777   4.345   0.701   3.543  0.4043  1.1986 -1.7704
  109MOL   H16232778   4.762   0.757   3.643  0.6207  1.7641  0.9200
  109MOL   H16332779   4.765   0.722   3.466 -0.6195 -2.8325  1.3065
  109MOL   H16432780   4.710   0.930   3.402 -2.8050  1.1548  0.1964
  109MOL   H16532781   4.827   0.946   3.540 -0.6675  0.2627  6.0847
  109MOL   H16632782   4.645   0.977   3.557 -2.6836 -1.6435 -3.9764
  109MOL   C16732783   4.346   0.488   3.552 -0.0674  0.0624  0.0582
  109MOL   C16832784   4.375   0.478   3.699  0.1102 -0.4183 -1.0897
  109MOL   C16932785   4.307   0.581   3.789 -0.3964  0.2503  0.7606
  109MOL   O17032786   4.197   0.563   3.847 -0.3631 -0.5674  0.4255
  109MOL   O17132787   4.373   0.700   3.788  0.3523 -0.9321  0.4518
  109MOL   C17232788   4.323   0.811   3.858  0.3971  0.0261 -0.2938
  109MOL   C17332789   4.322   0.928   3.758  0.9540 -0.3232  0.6101
  109MOL   H17432790   4.239   0.467   3.540 -0.6210  2.4318  0.6232
  109MOL   H17532791   4.393   0.404   3.500 -0.8323 -0.9783  1.0029
  109MOL   H17632792   4.328   0.386   3.733  0.8323  0.1885  1.6164
  109MOL   H17732793   4.222   0.796   3.896  1.1097 -1.5274  1.0539
  109MOL   H17832794   4.391   0.830   3.941  1.4418 -2.9179 -0.4395
  109MOL   H17932795   4.273   0.898   3.666  1.5948 -0.8188  0.4277
  109MOL   H18032796   4.427   0.946   3.733  0.9953 -1.4831 -0.0834
  109MOL   H18132797   4.275   1.016   3.803 -0.2723 -0.6564 -0.0174
  109MOL   C18232798   4.526   0.450   3.737  0.1208 -0.5395 -0.0505
  109MOL   C18332799   4.551   0.370   3.871  0.1495 -0.3518  0.0065
  109MOL   C18432800   4.695   0.396   3.929 -0.0221 -0.0228 -0.0358
  109MOL   O18532801   4.791   0.396   3.849  0.1265  0.4553 -0.5205
  109MOL   O18632802   4.701   0.402   4.065  0.4759  0.4919  0.1377
  109MOL   C18732803   4.831   0.402   4.120 -0.5258 -0.1619 -0.0219
  109MOL   C18832804   4.820   0.343   4.264  0.3899 -0.4961  0.0083
  109MOL   H18932805   4.589   0.417   3.655 -2.6693 -2.6133 -1.4255
  109MOL   H19032806   4.562   0.548   3.767  0.4077 -1.5222  2.9910
  109MOL   H19132807   4.486   0.397   3.954  0.1199  0.7782 -0.3753
  109MOL   H19232808   4.894   0.340   4.056 -1.3153  0.2421 -1.2072
  109MOL   H19332809   4.868   0.504   4.112 -1.3578 -0.0451 -2.7131
  109MOL   H19432810   4.796   0.236   4.255 -0.3413 -0.2874 -0.6250
  109MOL   H19532811   4.751   0.403   4.322  1.5546 -0.5828  1.5189
  109MOL   H19632812   4.917   0.343   4.315  0.4586 -2.1682 -0.0808
  109MOL   C19732813   4.536   0.217   3.829 -0.2041  0.5160 -0.8620
  109MOL   C19832814   4.521   0.120   3.945 -0.1953 -0.7400 -0.1256
  109MOL   C19932815   4.405   0.159   4.035 -0.4115 -0.7644  0.3136
  109MOL   O20032816   4.417   0.181   4.157  0.5250 -0.2732  0.0381
  109MOL   O20132817   4.288   0.158   3.976  1.0266 -0.1356 -0.3804
  109MOL   C20232818   4.165   0.194   4.037  0.3418  0.1483  0.1834
  109MOL   C20332819   4.048   0.202   3.930  0.2022  0.9691 -0.7833
  109MOL   H20432820   4.441   0.198   3.779 -0.9837  1.9715  0.0363
  109MOL   H20532821   4.608   0.196   3.750 -1.4165 -0.4946 -1.7295
  109MOL   H20632822   4.492   0.022   3.907 -2.0059 -0.6912  1.0898
  109MOL   H20732823   4.139   0.108   4.097 -0.5978 -0.0121 -0.4405
  109MOL   H20832824   4.176   0.281   4.101  2.4110  0.6533 -0.7887
  109MOL   H20932825   4.052   0.122   3.856 -1.5277 -0.9746  1.1456
  109MOL   H21032826   4.056   0.293   3.870  1.7258  1.0429 -0.4764
  109MOL   H21132827   3.947   0.210   3.972 -0.7890 -0.0801 -2.8757
  109MOL   C21232828   4.652   0.079   4.024  0.2219  0.0972  1.1741
  109MOL   C21332829   4.662   7.837   4.073  0.0801 -0.1072  0.7744
  109MOL   C21432830   4.540   7.787   4.154 -0.3759  0.0003 -0.0490
  109MOL   O21532831   4.446   7.735   4.096  0.1851  0.3948  0.3388
  109MOL   O21632832   4.558   7.792   4.289 -0.2178  0.0520 -0.4972
  109MOL   C21732833   4.442   7.772   4.373  0.6397 -0.4144  0.1826
  109MOL   C21832834   4.360   7.906   4.395 -0.4945  0.1279  0.6838
  109MOL   H21932835   4.741   0.100   3.964  0.6115 -2.2978  0.8597
  109MOL   H22032836   4.661   0.139   4.114  3.1341  0.9377  0.4047
  109MOL   H22132837   4.678   7.787   3.978  1.1023  1.8023 -0.0825
  109MOL   H22232838   4.381   7.689   4.339  1.8432 -0.9591 -0.6580
  109MOL   H22332839   4.478   7.744   4.472  0.5393  1.0933  0.6684
  109MOL   H22432840   4.296   0.003   4.307  1.0107 -0.8756 -0.5087
  109MOL   H22532841   4.425   0.085   4.409 -0.2544 -0.3906  3.0214
  109MOL   H22632842   4.290   0.010   4.477  0.2372  2.9149  0.9624
  109MOL   C22732843   4.799   7.813   4.141  0.0768  0.4093  0.4607
  109MOL   C22832844   4.843   7.668   4.163 -0.0641 -0.5881  0.1589
  109MOL   C22932845   4.941   7.662   4.277  0.0238 -0.2238 -0.0019
  109MOL   O23032846   4.923   7.589   4.379  0.1393  0.2674  0.0168
  109MOL   O23132847   5.050   7.734   4.256  0.6950  0.1553  0.1558
  109MOL   C23232848   5.146   7.741   4.362 -0.0435 -0.3034  0.0264
  109MOL   C23332849   5.159   7.885   4.411  0.0457 -0.4433  0.2096
  109MOL   H23432850   4.878   7.861   4.082  1.2519 -1.5225  0.4306
  109MOL   H23532851   4.796   7.854   4.242 -0.2568 -1.4494  1.2249
  109MOL   H23632852   4.753   7.610   4.184 -1.7920  2.5642  1.7235
  109MOL   H23732853   5.119   7.691   4.455  1.3339  1.5310  1.4467
  109MOL   H23832854   5.242   7.698   4.332 -0.7536 -1.8888 -0.0169
  109MOL   H23932855   5.062   0.024   4.425  0.9904  1.0889  1.7927
  109MOL   H24032856   5.214   0.033   4.336 -0.8873  2.5017  1.6595
  109MOL   H24132857   5.209   7.889   4.508  0.8537  1.7269 -0.2802
  109MOL   C24232858   4.904   7.605   4.028 -0.6081 -0.0195  0.2844
  109MOL   C24332859   4.879   7.449   4.015  0.0240 -0.1498 -0.0782
  109MOL   C24432860   4.973   7.367   4.108  0.1189 -0.0112  0.6714
  109MOL   O24532861   5.085   7.414   4.137  0.0577 -0.2325 -0.1131
  109MOL   O24632862   4.918   7.245   4.132  0.1951  0.3702 -0.2683
  109MOL   C24732863   4.994   7.155   4.208 -0.3010 -0.8810  0.0096
  109MOL   C24832864   4.930   7.025   4.194 -0.5309 -0.0641  0.1695
  109MOL   H24932865   4.856   7.655   3.944  0.3524 -0.9644 -0.8391
  109MOL   H25032866   5.011   7.626   4.019 -0.5291 -1.2642 -2.0351
  109MOL   H25132867   4.775   7.436   4.045 -0.4944  2.0858 -0.8226
  109MOL   H25232868   5.083   7.150   4.145 -0.6543 -1.6686 -0.4318
  109MOL   H25332869   5.023   7.176   4.311  0.8896  1.7250 -0.8137
  109MOL   H25432870   4.992   6.945   4.234  0.3665 -1.0847 -3.0717
  109MOL   H25532871   4.895   7.002   4.093  1.1245  0.4280 -0.5360
  109MOL   H25632872   4.834   7.022   4.246  0.3377  0.6474  1.8391
  109MOL   C25732873   4.889   7.415   3.863  0.6294  0.6897 -0.0973
  109MOL   C25832874   4.756   7.440   3.779 -0.3735 -0.5856 -0.5182
  109MOL   C25932875   4.646   7.340   3.822 -0.0658  0.2157 -0.2203
  109MOL   O26032876   4.539   7.374   3.869 -0.6664 -1.0147  0.1433
  109MOL   O26132877   4.675   7.209   3.791 -0.8468 -0.0454  0.5408
  109MOL   C26232878   4.587   7.109   3.834 -0.0534  0.3830  0.0161
  109MOL   C26332879   4.623   7.068   3.979 -0.8144  0.0038  0.1569
  109MOL   H26432880   4.968   7.466   3.809 -1.1197  1.4179 -2.0638
  109MOL   H26532881   4.916   7.309   3.862  1.8329  0.9903  0.5440
  109MOL   H26632882   4.706   7.535   3.798  0.2353 -0.5860  1.1731
  109MOL   H26732883   4.489   7.156   3.826 -0.4843 -0.7486 -1.4838
  109MOL   H26832884   4.598   7.019   3.774 -0.8015  1.8369 -2.3459
  109MOL   H26932885   4.722   7.023   3.988 -0.4624  1.1285  2.3001
  109MOL   H27032886   4.551   6.998   4.021  0.2252 -0.4398  1.2215
  109MOL   H27132887   4.630   7.159   4.039  1.4291 -0.7627  1.1339
  109MOL   C27232888   4.783   7.429   3.631 -0.0111 -0.1712  0.7301
  109MOL   C27332889   4.673   7.498   3.548 -0.4915  0.1823 -0.7738
  109MOL   C27432890   4.658   7.428   3.412  0.0320 -0.1996  0.1076
  109MOL   O27532891   4.730   7.459   3.315  0.2792 -1.0956  0.1049
  109MOL   O27632892   4.551   7.343   3.415 -0.0638 -0.5108  0.1617
  109MOL   C27732893   4.514   7.270   3.302 -0.8939  0.1398  0.5960
  109MOL   C27832894   4.560   7.133   3.327 -0.9905  0.0544  0.1230
  109MOL   H27932895   4.881   7.473   3.610  1.1643 -1.5943  2.9543
  109MOL   H28032896   4.787   7.322   3.608  1.3996  0.6320 -3.0550
  109MOL   H28132897   4.576   7.501   3.599 -0.6115 -1.5880 -0.8725
  109MOL   H28232898   4.405   7.276   3.297 -0.8185 -0.6978 -3.3406
  109MOL   H28332899   4.552   7.313   3.209 -3.0967  0.3204 -0.2570
  109MOL   H28432900   4.668   7.120   3.328 -1.1400 -1.5040  3.1056
  109MOL   H28532901   4.510   7.065   3.259  0.1320  0.0267 -0.6902
  109MOL   H28632902   4.536   7.100   3.428  2.8694  1.0234  1.4470
  109MOL   C28732903   4.696   7.649   3.546  0.1131  0.1461 -0.2769
  109MOL   C28832904   4.573   7.726   3.497  0.1983  0.4490  0.7162
  109MOL   C28932905   4.468   7.769   3.603  1.1968  0.5208 -0.3820
  109MOL   O29032906   4.496   7.786   3.724  0.4221 -0.0250  0.1007
  109MOL   O29132907   4.341   7.800   3.558 -0.4466 -0.3456 -0.2675
  109MOL   C29232908   4.245   7.860   3.641  0.0786 -0.4469 -0.5310
  109MOL   C29332909   4.122   0.009   3.560  0.1219  0.1318 -1.2156
  109MOL   H29432910   4.747   7.685   3.636  0.6988 -1.3972  0.0218
  109MOL   H29532911   4.775   7.680   3.477  2.2206  1.6335  2.6636
  109MOL   H29632912   4.598   7.821   3.451 -1.6633  1.2745  1.3610
  109MOL   H29732913   4.202   7.786   3.709  0.9759 -1.3527 -0.9365
  109MOL   H29832914   4.289   0.029   3.705 -1.3391 -0.4187  0.4357
  109MOL   H29932915   4.047   0.057   3.623  1.6846  1.1601 -0.0957
  109MOL   H30032916   4.082   7.831   3.507 -1.7196 -0.2390  0.7425
  109MOL   H30132917   4.160   0.073   3.479 -0.0678  0.8322 -0.7540
  109MOL   H30232918   4.518   7.668   3.422 -0.1159  0.5914  0.8341
  110MOL     C132919   4.625   2.880   1.322 -0.7753  0.0761  0.1968
  110MOL     C232920   4.564   2.861   1.466 -0.1431  0.2198  0.1644
  110MOL     C332921   4.495   2.719   1.485  0.0912 -0.4907 -0.5901
  110MOL     O432922   4.496   2.640   1.387  0.3400 -0.5607  0.4827
  110MOL     O532923   4.447   2.700   1.608 -0.0186 -0.7365  0.7358
  110MOL     C632924   4.393   2.569   1.638  0.1669 -0.3223  0.9983
  110MOL     C732925   4.243   2.563   1.599  0.9200 -0.3213 -0.1146
  110MOL     H832926   4.714   2.818   1.312  0.8438  2.3757  0.0169
  110MOL     H932927   4.648   2.985   1.306  1.5241 -0.7393 -2.0494
  110MOL    H1032928   4.645   2.876   1.537  0.6285  2.0774 -1.0689
  110MOL    H1132929   4.446   2.483   1.596 -2.1142 -0.5830 -1.4463
  110MOL    H1232930   4.405   2.553   1.746 -0.5639  0.1391  1.1498
  110MOL    H1332931   4.190   2.468   1.602 -0.6417  0.5004 -1.3455
  110MOL    H1432932   4.241   2.586   1.493  0.2765 -2.1250 -0.5077
  110MOL    H1532933   4.185   2.635   1.658  0.4143 -2.1811  1.7142
  110MOL    H1632934   4.557   2.856   1.241 -1.9087  0.3679  1.0499
  110MOL    C1732935   4.461   2.974   1.506 -0.1324  0.3392  0.2195
  110MOL    C1832936   4.470   3.026   1.649  0.3848  0.4154 -0.4845
  110MOL    C1932937   4.366   2.955   1.742 -0.8706  0.1234 -0.1843
  110MOL    O2032938   4.247   2.982   1.739 -0.1640 -0.6047 -0.4444
  110MOL    O2132939   4.424   2.885   1.840  0.1382 -0.3794 -0.2644
  110MOL    C2232940   4.339   2.831   1.944  0.2540  0.0958  0.5378
  110MOL    C2332941   4.427   2.744   2.029  0.3928 -0.4313  0.1930
  110MOL    H2432942   4.499   3.049   1.435  1.6214 -0.6248  0.1214
  110MOL    H2532943   4.361   2.955   1.468  0.5089 -2.6459 -0.0993
  110MOL    H2632944   4.565   3.011   1.701  0.1541  1.8550  0.3906
  110MOL    H2732945   4.294   2.909   2.006  1.0449  0.5933  0.4959
  110MOL    H2832946   4.260   2.770   1.900  0.1480 -0.8361  1.9879
  110MOL    H2932947   4.461   2.653   1.980  3.2463 -0.0729  1.3866
  110MOL    H3032948   4.383   2.717   2.124  3.0046 -1.6363  1.1030
  110MOL    H3132949   4.506   2.810   2.066 -1.0686  0.5831  1.5476
  110MOL    C3232950   4.460   3.176   1.647  0.6194 -0.2415  0.2691
  110MOL    C3332951   4.452   3.266   1.782 -0.1242  0.9128 -0.1497
  110MOL    C3432952   4.582   3.254   1.854 -0.2976  0.3085  0.2943
  110MOL    O3532953   4.672   3.325   1.813 -0.4686 -0.0652  0.2667
  110MOL    O3632954   4.581   3.174   1.956 -0.3245 -0.2813  0.2171
  110MOL    C3732955   4.702   3.164   2.029 -0.4233  0.0231 -0.0379
  110MOL    C3832956   4.694   3.069   2.151  0.1300 -0.2239 -0.1531
  110MOL    H3932957   4.547   3.210   1.592  0.5744 -1.6128 -0.6519
  110MOL    H4032958   4.375   3.205   1.586 -0.6658 -2.5843  0.8712
  110MOL    H4132959   4.439   3.367   1.742  1.1509  1.3008  0.4090
  110MOL    H4232960   4.781   3.127   1.963 -2.1934 -3.3269 -0.3575
  110MOL    H4332961   4.732   3.259   2.073 -0.5165  0.7335 -1.4513
  110MOL    H4432962   4.789   3.090   2.200  0.0842  1.5084 -0.7793
  110MOL    H4532963   4.670   2.964   2.132 -1.9505 -0.0222  1.1836
  110MOL    H4632964   4.619   3.114   2.216  0.3288  0.2860 -0.2810
  110MOL    C4732965   4.332   3.248   1.889 -0.3926  0.1758  0.1529
  110MOL    C4832966   4.347   3.336   2.021 -0.1224 -0.3249  0.7359
  110MOL    C4932967   4.288   3.256   2.138  0.1206 -1.3325 -0.1066
  110MOL    O5032968   4.352   3.227   2.242 -0.0059 -0.2231  0.6386
  110MOL    O5132969   4.165   3.225   2.119 -0.4780  0.1700  0.0940
  110MOL    C5232970   4.098   3.149   2.217  0.3500  0.6548  0.8806
  110MOL    C5332971   4.100   2.996   2.177  0.0131  0.5659  0.4159
  110MOL    H5432972   4.240   3.270   1.836  0.2444  1.6702 -0.3368
  110MOL    H5532973   4.319   3.141   1.909  1.1683  0.0792  0.7105
  110MOL    H5632974   4.450   3.355   2.051 -0.1598  1.7417 -0.4133
  110MOL    H5732975   4.135   3.166   2.318  2.9189 -1.5914  0.3747
  110MOL    H5832976   3.996   3.187   2.215 -0.1179 -0.6073 -0.2005
  110MOL    H5932977   4.202   2.958   2.172  0.5141  1.9726 -0.5781
  110MOL    H6032978   4.060   2.978   2.077 -1.0840 -0.8596  1.0926
  110MOL    H6132979   4.044   2.937   2.249 -0.4589  0.5262  0.0219
  110MOL    C6232980   4.282   3.474   2.007 -0.8346 -0.4030  0.1772
  110MOL    C6332981   4.321   3.563   2.130  0.1253  0.1176 -0.3663
  110MOL    C6432982   4.220   3.675   2.155  0.3488  0.0808  0.3058
  110MOL    O6532983   4.155   3.728   2.063 -0.2928  0.3029 -0.3791
  110MOL    O6632984   4.182   3.681   2.279 -0.0526 -0.4692 -0.6160
  110MOL    C6732985   4.102   3.779   2.334  0.1540  0.0698 -0.3251
  110MOL    C6832986   4.060   3.748   2.474  0.1931  0.0159 -0.3360
  110MOL    H6932987   4.320   3.517   1.914 -0.5132 -0.2312  0.3827
  110MOL    H7032988   4.174   3.460   2.001 -0.7851 -0.7500  0.0725
  110MOL    H7132989   4.316   3.490   2.211  0.6808  0.4637 -0.0173
  110MOL    H7232990   4.153   3.875   2.338  0.4484 -0.1399  1.5264
  110MOL    H7332991   4.013   3.788   2.271 -0.2927  2.1989  0.5511
  110MOL    H7432992   4.143   3.718   2.537  0.8307  0.0756 -1.1488
  110MOL    H7532993   3.976   3.678   2.475  0.0461  0.1786  1.6312
  110MOL    H7632994   4.036   3.843   2.522 -2.0701  0.3017 -1.9374
  110MOL    C7732995   4.474   3.602   2.123 -0.3300 -0.8824  0.7614
  110MOL    C7832996   4.535   3.633   2.256 -0.6285  0.1830 -0.1315
  110MOL    C7932997   4.653   3.734   2.255 -0.2867 -1.2301  0.3546
  110MOL    O8032998   4.649   3.843   2.318  0.1380 -0.3028  0.6626
  110MOL    O8132999   4.757   3.710   2.172  0.4765  0.3609  0.4554
  110MOL    C8233000   4.871   3.801   2.171  0.1006 -0.3977 -0.4332
  110MOL    C8333001   4.974   3.725   2.086 -0.0645 -0.4090  0.2641
  110MOL    H8433002   4.538   3.534   2.067  0.1951  0.3747 -0.1979
  110MOL    H8533003   4.466   3.695   2.066 -1.7451 -1.2425  0.3469
  110MOL    H8633004   4.462   3.687   2.316  0.7439  1.6057  0.3091
  110MOL    H8733005   4.856   3.898   2.123 -0.5174 -0.1595  0.2416
  110MOL    H8833006   4.904   3.805   2.274 -0.0256  0.4416 -0.4244
  110MOL    H8933007   5.070   3.775   2.071  0.2099 -0.4182  1.8457
  110MOL    H9033008   4.927   3.714   1.989 -0.5477 -1.5308  0.6188
  110MOL    H9133009   4.994   3.633   2.142  0.2960 -0.8458 -0.5886
  110MOL    C9233010   4.570   3.501   2.333 -0.0929 -0.3036 -0.5643
  110MOL    C9333011   4.644   3.512   2.470  0.6163 -0.2478  0.6982
  110MOL    C9433012   4.793   3.480   2.455  0.3320  0.3377 -0.4571
  110MOL    O9533013   4.880   3.555   2.505 -0.0444  0.4382 -0.2509
  110MOL    O9633014   4.817   3.364   2.400  0.0786  0.5269  0.5151
  110MOL    C9733015   4.949   3.316   2.385  1.4477 -0.2030  0.3297
  110MOL    C9833016   4.990   3.259   2.517 -0.3079 -0.0246  0.4520
  110MOL    H9933017   4.481   3.439   2.344  1.0794 -1.9772 -0.3032
  110MOL   H10033018   4.642   3.454   2.266  1.4149  0.7626  0.2558
  110MOL   H10133019   4.644   3.618   2.494  0.3606 -0.3027  0.9468
  110MOL   H10233020   4.941   3.239   2.308 -2.1270  0.9615 -0.5457
  110MOL   H10333021   5.033   3.378   2.353  0.8942  1.3597  1.8862
  110MOL   H10433022   5.081   3.199   2.511 -0.7689 -0.9089  2.1897
  110MOL   H10533023   4.915   3.186   2.547  1.6691 -3.0586 -1.6916
  110MOL   H10633024   5.011   3.336   2.592 -0.0170  1.8190 -1.4668
  110MOL   C10733025   4.581   3.424   2.582  0.7284 -0.3307 -1.1473
  110MOL   C10833026   4.636   3.455   2.729 -0.5127  0.7113 -0.7370
  110MOL   C10933027   4.640   3.332   2.817  0.0844 -0.4055  0.0880
  110MOL   O11033028   4.745   3.269   2.835 -0.2055 -0.4237  0.2965
  110MOL   O11133029   4.513   3.302   2.859 -0.3253  0.1960  0.3319
  110MOL   C11233030   4.496   3.192   2.950  0.2690  0.2807  0.8222
  110MOL   C11333031   4.484   3.063   2.871 -0.4574  0.3554 -0.4176
  110MOL   H11433032   4.475   3.449   2.592  0.4858 -2.0657  1.1674
  110MOL   H11533033   4.599   3.320   2.556  2.0981 -0.3121 -0.3275
  110MOL   H11633034   4.738   3.487   2.707  0.3581 -0.5804  1.2178
  110MOL   H11733035   4.587   3.199   3.010  1.3905  0.6737 -0.8789
  110MOL   H11833036   4.407   3.217   3.008  1.6805  0.6078  2.9439
  110MOL   H11933037   4.584   3.048   2.831  0.2561  2.2704  0.5709
  110MOL   H12033038   4.415   3.075   2.787  1.8068  1.3642 -2.1658
  110MOL   H12133039   4.453   2.977   2.931 -0.7732  0.6919 -0.0929
  110MOL   C12233040   4.567   3.576   2.797 -0.0097 -0.0486 -0.2893
  110MOL   C12333041   4.651   3.631   2.909 -0.3520 -0.5399 -0.8007
  110MOL   C12433042   4.570   3.654   3.044 -0.0024 -0.1668 -0.2186
  110MOL   O12533043   4.554   3.764   3.098 -0.0231  0.1448 -0.2529
  110MOL   O12633044   4.526   3.543   3.095 -0.4849  0.0873  0.3019
  110MOL   C12733045   4.444   3.542   3.214 -0.0281  0.7113  1.3435
  110MOL   C12833046   4.513   3.452   3.319 -0.4634 -0.1001  0.1437
  110MOL   H12933047   4.538   3.651   2.723  1.6347  1.3063  0.4083
  110MOL   H13033048   4.471   3.542   2.837  1.0712 -0.3504  2.1167
  110MOL   H13133049   4.733   3.561   2.927  0.2002  0.5408  1.0316
  110MOL   H13233050   4.449   3.642   3.260 -1.8827  1.3853  0.1175
  110MOL   H13333051   4.339   3.517   3.204  0.3542 -0.2413 -0.5331
  110MOL   H13433052   4.610   3.484   3.355  0.8340 -2.1086 -1.4324
  110MOL   H13533053   4.520   3.354   3.271  2.0672  0.9568 -1.7070
  110MOL   H13633054   4.455   3.429   3.409 -1.4146  0.1341 -0.4087
  110MOL   C13733055   4.730   3.769   2.879 -0.4198  0.3357  0.1579
  110MOL   C13833056   4.839   3.747   2.768  0.1689 -0.5884 -0.0295
  110MOL   C13933057   4.959   3.665   2.817 -0.5275 -0.2293  0.0485
  110MOL   O14033058   4.961   3.546   2.785 -0.5320 -0.3072  0.5730
  110MOL   O14133059   5.049   3.729   2.898 -0.1026  0.7802 -0.2121
  110MOL   C14233060   5.166   3.663   2.930 -0.7045  0.1683 -0.7229
  110MOL   C14333061   5.262   3.764   3.006  0.0091 -0.4289 -0.5002
  110MOL   H14433062   4.659   3.847   2.852  0.6136  1.0983 -0.4086
  110MOL   H14533063   4.785   3.798   2.968  0.0233  2.1299 -0.6774
  110MOL   H14633064   4.791   3.691   2.688  1.0743 -1.9929  0.3893
  110MOL   H14733065   5.135   3.569   2.974 -1.5454  0.7379 -0.0992
  110MOL   H14833066   5.223   3.627   2.843 -0.5119 -2.3713  0.4115
  110MOL   H14933067   5.209   3.824   3.079  0.5688 -1.8981  1.1511
  110MOL   H15033068   5.301   3.834   2.932  0.3569  0.6983  0.7457
  110MOL   H15133069   5.336   3.707   3.063  1.2441  2.4081  0.7989
  110MOL   C15233070   4.891   3.879   2.716  0.0129  0.0797 -0.2660
  110MOL   C15333071   4.933   3.878   2.573 -0.2308 -0.1263 -0.3305
  110MOL   C15433072   5.086   3.841   2.541 -0.1755 -0.0818 -0.0927
  110MOL   O15533073   5.173   3.868   2.618 -0.4257 -0.2437 -0.4454
  110MOL   O15633074   5.104   3.804   2.415  0.4593  0.1916 -0.2703
  110MOL   C15733075   5.230   3.766   2.366 -0.5237 -0.0189  0.5044
  110MOL   C15833076   5.266   3.627   2.399 -0.8656  0.2417 -0.2327
  110MOL   H15933077   4.812   3.954   2.722 -0.2574 -0.0703 -1.7858
  110MOL   H16033078   4.976   3.910   2.777 -0.0995 -2.3277  1.1736
  110MOL   H16133079   4.867   3.806   2.525 -1.3607  1.2697 -0.9036
  110MOL   H16233080   5.220   3.768   2.257 -1.6037 -0.9749  0.5751
  110MOL   H16333081   5.312   3.835   2.383 -0.2276 -0.7848  2.2569
  110MOL   H16433082   5.339   3.575   2.338 -3.0500 -2.4230 -0.6793
  110MOL   H16533083   5.180   3.560   2.401  0.5107 -1.5536 -0.5413
  110MOL   H16633084   5.303   3.636   2.501 -0.0180  3.3788 -0.7634
  110MOL   C16733085   4.894   4.020   2.521 -0.9145  0.0884  0.2387
  110MOL   C16833086   4.980   4.154   2.552  0.0912 -0.5779 -0.1733
  110MOL   C16933087   4.982   4.203   2.700  0.1195  0.4651  0.3648
  110MOL   O17033088   5.083   4.214   2.766  0.3451  0.1197 -0.0223
  110MOL   O17133089   4.858   4.229   2.756  0.0226 -0.2309 -0.1528
  110MOL   C17233090   4.839   4.219   2.893  0.1084 -1.0545  0.8284
  110MOL   C17333091   4.693   4.162   2.921  0.2693 -0.3639 -0.4068
  110MOL   H17433092   4.893   3.995   2.415  0.0167 -0.3941  0.3363
  110MOL   H17533093   4.790   4.048   2.531 -0.6963  0.6612  0.8982
  110MOL   H17633094   5.086   4.133   2.534  0.3728  1.7111 -1.3381
  110MOL   H17733095   4.912   4.155   2.942  2.0569  0.4505 -0.0396
  110MOL   H17833096   4.849   4.315   2.943 -2.1084 -1.6426  2.4792
  110MOL   H17933097   4.659   4.158   3.024 -1.2434 -2.2434 -0.9484
  110MOL   H18033098   4.665   4.062   2.889  0.4975 -1.0800  1.6047
  110MOL   H18133099   4.613   4.217   2.871  1.2656  2.3550  0.8853
  110MOL   C18233100   4.955   4.266   2.450  0.3529  0.6944  0.4178
  110MOL   C18333101   4.971   4.231   2.298 -0.4991 -0.6156  0.8386
  110MOL   C18433102   5.093   4.146   2.268 -0.7081 -0.2986  0.5354
  110MOL   O18533103   5.086   4.032   2.217 -0.0456  0.7185 -0.2062
  110MOL   O18633104   5.208   4.210   2.309  0.0150  0.1266  0.1176
  110MOL   C18733105   5.330   4.148   2.272  0.5287  0.2330  0.3746
  110MOL   C18833106   5.453   4.237   2.293 -0.4851 -0.0054 -0.0731
  110MOL   H18933107   4.852   4.295   2.471  0.1405 -0.1090  0.5114
  110MOL   H19033108   5.014   4.349   2.489  1.4583 -0.3718  1.0257
  110MOL   H19133109   4.890   4.163   2.273 -0.3294  0.0555 -1.5952
  110MOL   H19233110   5.344   4.052   2.322 -0.8910 -0.3291 -0.2767
  110MOL   H19333111   5.320   4.126   2.166  1.9641  0.8928  0.1023
  110MOL   H19433112   5.441   4.331   2.239 -0.8767 -0.0479 -0.0611
  110MOL   H19533113   5.539   4.186   2.249 -0.0371  1.3443 -0.8046
  110MOL   H19633114   5.471   4.259   2.398  0.7963 -2.8701  0.3565
  110MOL   C19733115   4.971   4.355   2.204 -0.5568 -0.2212 -0.3651
  110MOL   C19833116   4.990   4.321   2.055 -0.3974  0.1754  0.1556
  110MOL   C19933117   5.022   4.445   1.969 -0.6504  0.3869  0.0487
  110MOL   O20033118   4.992   4.560   2.001 -0.4458 -1.0941 -0.0553
  110MOL   O20133119   5.088   4.409   1.862  0.2098  0.0722 -0.3025
  110MOL   C20233120   5.126   4.503   1.762 -0.2296 -0.1888  0.0834
  110MOL   C20333121   5.004   4.538   1.669 -0.3474  0.3125  0.2101
  110MOL   H20433122   4.881   4.417   2.207 -1.3963 -1.4206 -0.6735
  110MOL   H20533123   5.048   4.421   2.243 -1.5634 -1.3369  3.7211
  110MOL   H20633124   5.078   4.257   2.050 -1.5407 -1.3333 -1.4796
  110MOL   H20733125   5.174   4.589   1.808  1.4426 -1.3071  0.4699
  110MOL   H20833126   5.209   4.450   1.714 -0.2339 -1.0842  1.0478
  110MOL   H20933127   4.970   4.444   1.624  0.1311  0.4494 -0.4416
  110MOL   H21033128   5.012   4.605   1.583 -0.9331 -0.8803 -0.8030
  110MOL   H21133129   4.922   4.580   1.727 -1.2434  0.7829 -1.3395
  110MOL   C21233130   4.864   4.245   1.999  0.1103  0.2465 -0.4764
  110MOL   C21333131   4.881   4.170   1.862  0.7557  0.1294 -0.1170
  110MOL   C21433132   4.745   4.119   1.807  0.0067 -0.4321  0.8596
  110MOL   O21533133   4.716   3.999   1.808 -0.6051  0.3948 -0.4730
  110MOL   O21633134   4.671   4.223   1.761 -0.1155 -0.1092 -0.2657
  110MOL   C21733135   4.552   4.194   1.688 -0.2436  0.5024 -0.0447
  110MOL   C21833136   4.555   4.259   1.550 -0.5514  0.7732 -0.0941
  110MOL   H21933137   4.826   4.175   2.073 -0.6444  1.7505  0.5719
  110MOL   H22033138   4.781   4.315   1.993 -0.9612 -0.9875 -0.1385
  110MOL   H22133139   4.906   4.250   1.792  0.8782 -3.8045 -4.8373
  110MOL   H22233140   4.551   4.087   1.667  1.2870  0.7350 -1.3994
  110MOL   H22333141   4.463   4.212   1.749 -0.2275  1.5290 -0.3136
  110MOL   H22433142   4.593   4.362   1.555  1.0243  0.1315  2.2891
  110MOL   H22533143   4.453   4.265   1.513 -0.7926  0.5222  0.5295
  110MOL   H22633144   4.626   4.213   1.481  1.6376  0.8175  2.0168
  110MOL   C22733145   4.982   4.055   1.869 -0.2079  0.2427 -0.0198
  110MOL   C22833146   5.119   4.073   1.802 -0.0840 -0.1432  0.6799
  110MOL   C22933147   5.096   4.098   1.656  0.0813 -0.3989  0.1496
  110MOL   O23033148   5.102   4.215   1.619  0.2505  0.6269  0.1967
  110MOL   O23133149   5.063   3.994   1.581  0.1787 -0.5074  0.4489
  110MOL   C23233150   5.050   4.002   1.440  0.1737 -0.2113  0.2976
  110MOL   C23333151   4.905   4.058   1.400 -0.0824  0.0312  0.3000
  110MOL   H23433152   4.995   4.038   1.976 -2.4811  1.0815  0.4147
  110MOL   H23533153   4.944   3.966   1.818 -0.7935 -0.1518  1.0840
  110MOL   H23633154   5.173   4.160   1.839  1.7282 -0.5930 -0.7990
  110MOL   H23733155   5.133   4.057   1.397 -0.1474  0.0009 -0.0598
  110MOL   H23833156   5.065   3.901   1.401  1.4704  1.2108 -3.0927
  110MOL   H23933157   4.828   4.000   1.452  0.1420 -0.7521 -0.2227
  110MOL   H24033158   4.892   4.056   1.292  0.2186 -0.8137  0.2731
  110MOL   H24133159   4.886   4.159   1.435 -1.5729 -0.1716  0.0927
  110MOL   C24233160   5.207   3.945   1.822  0.4956 -0.4061  0.0837
  110MOL   C24333161   5.347   3.948   1.897  0.5359  0.0503 -0.4552
  110MOL   C24433162   5.429   4.059   1.838 -0.6379 -0.3180  0.9957
  110MOL   O24533163   5.509   4.037   1.740  0.6115 -0.7042  0.0655
  110MOL   O24633164   5.410   4.172   1.901  0.2357  0.2839 -0.2541
  110MOL   C24733165   5.463   4.296   1.848  0.1391 -0.3345  0.1295
  110MOL   C24833166   5.485   4.412   1.957 -0.0001 -0.3327 -0.5360
  110MOL   H24933167   5.143   3.864   1.859 -1.1334  0.9396  0.2962
  110MOL   H25033168   5.225   3.901   1.724 -0.4281  2.5009 -1.4444
  110MOL   H25133169   5.334   3.979   2.001 -0.8208  0.4979 -0.7543
  110MOL   H25233170   5.559   4.280   1.798  0.9467  0.7719  1.2555
  110MOL   H25333171   5.388   4.332   1.778  0.6865 -0.8330 -0.7282
  110MOL   H25433172   5.560   4.380   2.029  0.7967  2.0461 -0.2881
  110MOL   H25533173   5.388   4.421   2.007  0.7912 -1.1938  1.2151
  110MOL   H25633174   5.513   4.513   1.930  1.1400 -0.3312  0.6052
  110MOL   C25733175   5.414   3.813   1.895 -0.8231  0.7374  0.0156
  110MOL   C25833176   5.475   3.762   2.024  0.2198 -0.2894  0.6902
  110MOL   C25933177   5.566   3.856   2.107  0.1849  0.0554  0.1213
  110MOL   O26033178   5.549   3.884   2.224  1.1590 -0.2228 -0.2486
  110MOL   O26133179   5.666   3.896   2.032  0.1272 -0.4389  0.6357
  110MOL   C26233180   5.758   3.995   2.072  0.7368  0.3643 -0.5481
  110MOL   C26333181   5.768   4.103   1.964  0.1995 -0.6135 -0.0478
  110MOL   H26433182   5.334   3.745   1.865 -0.5596  0.9335 -1.1408
  110MOL   H26533183   5.493   3.818   1.820  1.1146  0.8767  2.0153
  110MOL   H26633184   5.390   3.741   2.088  0.1803 -1.2486  0.3248
  110MOL   H26733185   5.746   4.036   2.172  2.4989 -0.4861  0.0296
  110MOL   H26833186   5.855   3.947   2.072 -0.4509 -2.1037  0.1880
  110MOL   H26933187   5.844   4.177   1.988 -0.1867 -0.8035  1.8430
  110MOL   H27033188   5.678   4.165   1.961  0.7314  0.1782  0.3028
  110MOL   H27133189   5.786   4.057   1.866  1.3522  0.4487 -0.3348
  110MOL   C27233190   5.549   3.624   2.008 -0.0749 -0.1438  0.2546
  110MOL   C27333191   5.474   3.509   1.932  0.2520  0.2648 -0.3743
  110MOL   C27433192   5.340   3.468   1.994 -0.4537  0.1315  0.1660
  110MOL   O27533193   5.311   3.505   2.109  0.1011  0.8589  0.1160
  110MOL   O27633194   5.270   3.386   1.915  0.0323 -0.6379  0.0897
  110MOL   C27733195   5.171   3.299   1.965 -0.4110 -0.0291  0.0392
  110MOL   C27833196   5.033   3.364   1.936 -0.4453  0.0875 -0.0364
  110MOL   H27933197   5.651   3.633   1.971 -0.2545 -0.6492 -0.3723
  110MOL   H28033198   5.564   3.578   2.106  1.3505 -0.8291 -0.2632
  110MOL   H28133199   5.447   3.561   1.840  0.6898 -0.7801 -1.1160
  110MOL   H28233200   5.184   3.207   1.907 -2.3231  1.1556 -2.3715
  110MOL   H28333201   5.190   3.263   2.066  0.4296 -1.4465 -0.5962
  110MOL   H28433202   4.950   3.294   1.949 -1.2379  1.3416  2.0398
  110MOL   H28533203   5.032   3.407   1.836 -0.4797  3.1128  1.2119
  110MOL   H28633204   5.013   3.448   2.003 -2.8281  1.4357 -2.3565
  110MOL   C28733205   5.559   3.379   1.901  0.3668 -0.3653  0.2631
  110MOL   C28833206   5.666   3.399   1.791  0.0216  0.1818 -0.0547
  110MOL   C28933207   5.616   3.381   1.653 -0.0551  0.3780 -0.0306
  110MOL   O29033208   5.699   3.369   1.560  0.4315 -0.1809  0.1045
  110MOL   O29133209   5.475   3.383   1.653  0.0161  0.1973 -0.1933
  110MOL   C29233210   5.416   3.366   1.525 -0.7504  0.8635  0.3258
  110MOL   C29333211   5.267   3.365   1.556  0.0181 -0.3881 -0.1817
  110MOL   H29433212   5.613   3.364   1.994 -0.7596  1.7485  1.2981
  110MOL   H29533213   5.492   3.295   1.885 -0.2565 -0.1700  1.8308
  110MOL   H29633214   5.707   3.499   1.805 -1.2270  0.5668  0.8841
  110MOL   H29733215   5.439   3.458   1.471 -0.7432 -0.3621 -1.8105
  110MOL   H29833216   5.464   3.287   1.467  1.6519  3.0253 -0.7454
  110MOL   H29933217   5.235   3.296   1.634  0.1670  0.3531  0.5441
  110MOL   H30033218   5.212   3.342   1.466  1.4124 -3.2293 -0.3667
  110MOL   H30133219   5.239   3.464   1.592 -1.8173 -0.3463 -1.6658
  110MOL   H30233220   5.746   3.326   1.801 -0.0312  0.3165  1.5208
  111MOL     C133221   4.892   2.615   5.650 -0.9188  0.3210  0.3478
  111MOL     C233222   4.788   2.598   5.545 -0.0022  0.1849 -0.2667
  111MOL     C333223   4.768   2.716   5.453 -0.9870  0.2927  0.2528
  111MOL     O433224   4.824   2.823   5.479  0.4571  0.0465 -0.1861
  111MOL     O533225   4.688   2.693   5.348  0.1195 -0.4544  0.2240
  111MOL     C633226   4.665   2.797   5.255  0.0768  0.6324  0.5352
  111MOL     C733227   4.775   2.822   5.150  0.2092 -0.1599  0.2072
  111MOL     H833228   4.992   2.607   5.609 -1.0186  0.5413  0.0616
  111MOL     H933229   4.878   2.548   5.735  1.7911 -1.3263 -0.4438
  111MOL    H1033230   4.814   2.516   5.478  1.1019  0.5011 -0.2372
  111MOL    H1133231   4.573   2.765   5.207  1.1243  0.7315 -1.5681
  111MOL    H1233232   4.635   2.890   5.302 -0.3838  0.7164  0.0735
  111MOL    H1333233   4.747   2.901   5.081  1.0856 -1.1820 -1.3660
  111MOL    H1433234   4.812   2.731   5.102  0.1061 -0.9138  1.5219
  111MOL    H1533235   4.861   2.860   5.204 -0.5629  1.3055  0.4263
  111MOL    H1633236   4.878   2.714   5.693  0.4703  0.3064  0.8746
  111MOL    C1733237   4.647   2.545   5.591 -0.1875 -0.6767 -0.7734
  111MOL    C1833238   4.643   2.420   5.687 -0.8465  0.2277 -0.0323
  111MOL    C1933239   4.708   2.300   5.622 -0.0398  0.3518  0.4031
  111MOL    O2033240   4.697   2.278   5.499 -0.6452 -0.0530  0.2218
  111MOL    O2133241   4.746   2.205   5.707  0.6924  0.3472 -0.2348
  111MOL    C2233242   4.805   2.087   5.651  0.5326  0.2507 -0.1995
  111MOL    C2333243   4.703   1.986   5.611  0.6645  0.4469 -0.1738
  111MOL    H2433244   4.598   2.626   5.645  0.2914 -0.6847 -0.3124
  111MOL    H2533245   4.593   2.531   5.498  0.4280  0.0291 -1.2433
  111MOL    H2633246   4.715   2.439   5.766 -0.5519  0.2669 -0.3081
  111MOL    H2733247   4.870   2.114   5.568  0.0996 -1.2148 -1.0290
  111MOL    H2833248   4.874   2.044   5.724  1.9383  0.5378 -1.3309
  111MOL    H2933249   4.750   1.895   5.575 -2.0206 -0.9616 -0.2913
  111MOL    H3033250   4.629   2.028   5.543 -1.4206  0.4425  2.0189
  111MOL    H3133251   4.637   1.961   5.694 -1.1793  3.9184 -0.4861
  111MOL    C3233252   4.504   2.381   5.748 -0.0171  0.0591 -0.0856
  111MOL    C3333253   4.387   2.369   5.640 -0.2525 -0.3978 -0.0890
  111MOL    C3433254   4.290   2.476   5.676 -0.0924  0.6679 -0.3136
  111MOL    O3533255   4.313   2.583   5.628 -0.0845 -0.4429 -0.0307
  111MOL    O3633256   4.193   2.444   5.766 -0.2067  0.3099  0.0372
  111MOL    C3733257   4.082   2.536   5.779 -0.2729  0.3097  0.0915
  111MOL    C3833258   3.952   2.467   5.778  0.9172 -0.2811  0.4408
  111MOL    H3933259   4.515   2.289   5.805 -0.0586  0.3521  0.3999
  111MOL    H4033260   4.481   2.462   5.817 -1.0536 -1.6103  1.5822
  111MOL    H4133261   4.433   2.393   5.545  0.4534 -0.3545  0.2639
  111MOL    H4233262   4.087   2.572   5.882  3.0332 -0.4720  0.2734
  111MOL    H4333263   4.087   2.625   5.716  1.4174  0.9541  1.1006
  111MOL    H4433264   3.959   2.375   5.835 -0.4423  0.0334  1.1248
  111MOL    H4533265   3.930   2.449   5.673  2.8713  1.6046 -0.3336
  111MOL    H4633266   3.877   2.532   5.821  0.5273 -0.1601 -0.4232
  111MOL    C4733267   4.329   2.232   5.614  0.0695  0.3704  0.7826
  111MOL    C4833268   4.252   2.205   5.480 -0.1139 -0.3941  0.2336
  111MOL    C4933269   4.328   2.242   5.356 -0.3071  0.0702  0.4238
  111MOL    O5033270   4.383   2.163   5.279  0.0709 -0.3039 -0.0901
  111MOL    O5133271   4.319   2.370   5.330 -0.3027 -0.2731  0.3537
  111MOL    C5233272   4.363   2.421   5.202 -0.3760 -0.2298 -0.7588
  111MOL    C5333273   4.350   2.573   5.219 -0.2431  0.4130  0.0236
  111MOL    H5433274   4.407   2.155   5.615 -0.9247 -0.6974 -0.6849
  111MOL    H5533275   4.268   2.209   5.701 -0.1791 -0.3058  0.4354
  111MOL    H5633276   4.227   2.099   5.481  2.2817 -1.0309 -2.1148
  111MOL    H5733277   4.469   2.400   5.188 -0.3454 -0.3688 -0.3094
  111MOL    H5833278   4.300   2.391   5.118 -3.0873  0.4024  0.9865
  111MOL    H5933279   4.394   2.594   5.316  1.6484  1.3528 -1.0043
  111MOL    H6033280   4.248   2.611   5.227 -0.4106  0.1831 -0.9046
  111MOL    H6133281   4.406   2.632   5.147  0.0590 -1.5213 -1.3832
  111MOL    C6233282   4.110   2.274   5.478 -0.7293  0.1246  0.3171
  111MOL    C6333283   4.005   2.212   5.385  0.0294 -0.3715  0.1560
  111MOL    C6433284   3.909   2.319   5.330  0.2334  0.8938 -0.7904
  111MOL    O6533285   3.867   2.408   5.396 -0.0260  0.3826 -0.0472
  111MOL    O6633286   3.895   2.311   5.198 -0.3003 -0.0444 -0.0052
  111MOL    C6733287   3.821   2.409   5.130 -0.3771 -0.1596 -0.5468
  111MOL    C6833288   3.779   2.352   4.995 -0.8837  0.8200 -0.7863
  111MOL    H6933289   4.074   2.257   5.579  1.3495 -0.3024  1.0000
  111MOL    H7033290   4.118   2.383   5.485  0.4232  0.2959 -2.8367
  111MOL    H7133291   4.070   2.186   5.302  0.8317 -0.3651  0.7832
  111MOL    H7233292   3.730   2.418   5.189  0.3327 -2.5799  0.9853
  111MOL    H7333293   3.873   2.505   5.125 -1.7979  0.6652  0.1421
  111MOL    H7433294   3.854   2.306   4.930 -0.4986  0.0199  0.2157
  111MOL    H7533295   3.743   2.431   4.929  1.7015  2.0567 -0.7742
  111MOL    H7633296   3.705   2.278   5.026  0.2001  0.2893  0.5701
  111MOL    C7733297   3.927   2.093   5.448  0.0801  0.3199  0.0353
  111MOL    C7833298   3.844   2.004   5.353  0.4201  0.4722 -0.2777
  111MOL    C7933299   3.757   1.910   5.427 -0.5195 -0.3614 -0.7901
  111MOL    O8033300   3.800   1.809   5.479  0.0175  0.1503 -0.3089
  111MOL    O8133301   3.638   1.954   5.440  0.2245  0.0100  0.2897
  111MOL    C8233302   3.533   1.878   5.498  0.8330 -0.0840  0.3025
  111MOL    C8333303   3.396   1.935   5.475  0.0653 -0.2570 -0.4043
  111MOL    H8433304   3.983   2.035   5.522  0.2327  0.2757 -0.1165
  111MOL    H8533305   3.851   2.139   5.512  0.1558 -0.2178  0.5188
  111MOL    H8633306   3.774   2.068   5.298  0.0692  2.5552  2.4738
  111MOL    H8733307   3.539   1.777   5.458  0.4538  0.1848 -0.4599
  111MOL    H8833308   3.550   1.869   5.605  0.1825 -0.2212  0.3967
  111MOL    H8933309   3.374   1.955   5.370 -1.1562 -0.4541 -0.1961
  111MOL    H9033310   3.389   2.030   5.528 -3.0028 -1.6426  1.8341
  111MOL    H9133311   3.305   1.883   5.505  0.1244  0.2834  0.7342
  111MOL    C9233312   3.931   1.935   5.254 -0.2443 -0.3824 -0.0553
  111MOL    C9333313   3.866   1.865   5.135 -0.0391 -0.1509  0.3103
  111MOL    C9433314   3.795   1.727   5.162 -0.0876 -0.1923  0.5296
  111MOL    O9533315   3.673   1.721   5.167  0.4551  0.3752 -0.1789
  111MOL    O9633316   3.885   1.633   5.201  0.2498 -0.7702  0.3379
  111MOL    C9733317   3.837   1.509   5.227  0.3786  0.4793 -0.5754
  111MOL    C9833318   3.936   1.446   5.326 -0.7430  0.4061  0.1908
  111MOL    H9933319   4.001   2.012   5.221 -0.4962  0.6084  1.6492
  111MOL   H10033320   3.994   1.863   5.307 -2.0058  0.1659  2.9327
  111MOL   H10133321   3.786   1.932   5.104 -0.8345 -0.0757  2.4579
  111MOL   H10233322   3.740   1.521   5.277  0.1830 -1.0128 -0.5683
  111MOL   H10333323   3.830   1.459   5.130  3.0991 -1.9143  0.3953
  111MOL   H10433324   4.039   1.461   5.292 -0.2134 -0.7668  1.2380
  111MOL   H10533325   3.907   1.344   5.347  1.2587 -0.1529  0.3779
  111MOL   H10633326   3.919   1.497   5.420  1.1472  1.7107 -0.1319
  111MOL   C10733327   3.976   1.851   5.027  0.5550  0.4229 -0.3976
  111MOL   C10833328   3.970   1.961   4.916  0.3588 -0.3805 -0.1289
  111MOL   C10933329   3.848   1.947   4.828  0.2112 -0.2458  0.5649
  111MOL   O11033330   3.758   2.030   4.829 -0.2169  0.0447 -0.1984
  111MOL   O11133331   3.848   1.839   4.755 -0.8499 -0.5865  0.3813
  111MOL   C11233332   3.741   1.812   4.669 -0.1627 -0.2848 -0.0754
  111MOL   C11333333   3.685   1.678   4.721  0.9838 -0.0559  0.3806
  111MOL   H11433334   4.076   1.847   5.070  0.6013 -1.2134 -0.5976
  111MOL   H11533335   3.961   1.754   4.979 -1.4235 -1.6527  4.1322
  111MOL   H11633336   3.969   2.059   4.965  0.3121 -0.1382 -0.6136
  111MOL   H11733337   3.662   1.885   4.686 -0.6774 -1.3652  2.5343
  111MOL   H11833338   3.767   1.807   4.564 -2.1874  1.8070 -0.7162
  111MOL   H11933339   3.653   1.682   4.825 -0.3508  1.6035 -0.0764
  111MOL   H12033340   3.757   1.596   4.721 -0.5720 -1.5457 -3.5781
  111MOL   H12133341   3.590   1.648   4.676  0.3336 -1.5100  2.6332
  111MOL   C12233342   4.093   1.949   4.837 -0.7284  0.5992 -0.2690
  111MOL   C12333343   4.221   2.031   4.892  0.3832  0.1628 -0.0342
  111MOL   C12433344   4.189   2.181   4.878  0.0119  0.3355  0.4860
  111MOL   O12533345   4.178   2.251   4.978  0.7846 -0.0615 -0.4240
  111MOL   O12633346   4.161   2.222   4.747 -0.0668 -0.0005 -0.1436
  111MOL   C12733347   4.127   2.360   4.730 -0.1876 -0.0220 -0.0753
  111MOL   C12833348   4.067   2.384   4.590  0.3942 -0.1607 -0.0184
  111MOL   H12933349   4.126   1.845   4.835  0.3882  0.9749 -3.4123
  111MOL   H13033350   4.074   1.978   4.733  0.3564 -0.9396 -0.9183
  111MOL   H13133351   4.239   2.007   4.996  0.1038  1.0714  0.2241
  111MOL   H13233352   4.046   2.386   4.798  0.4517 -3.8924  2.2871
  111MOL   H13333353   4.209   2.430   4.747  0.0965  0.7974 -4.1827
  111MOL   H13433354   3.974   2.328   4.600  0.6552 -0.2245  2.2706
  111MOL   H13533355   4.117   2.331   4.509 -1.0933 -0.2885 -0.8627
  111MOL   H13633356   4.048   2.487   4.561  1.1594 -0.6121 -2.2313
  111MOL   C13733357   4.354   1.999   4.805 -0.3022 -0.0967  0.0959
  111MOL   C13833358   4.425   1.863   4.840  0.4461  0.4417  0.6796
  111MOL   C13933359   4.462   1.847   4.994 -0.3132 -0.0941 -1.2404
  111MOL   O14033360   4.399   1.760   5.054  0.0950  0.9460 -0.0301
  111MOL   O14133361   4.557   1.928   5.041 -0.0661 -0.2117 -0.5525
  111MOL   C14233362   4.601   1.924   5.177 -0.0671 -0.1838  0.7721
  111MOL   C14333363   4.721   2.016   5.212 -0.4602 -0.1266  0.0319
  111MOL   H14433364   4.337   1.996   4.698 -0.8296  0.7343  0.1519
  111MOL   H14533365   4.411   2.089   4.829 -1.5510  0.2443  1.8459
  111MOL   H14633366   4.376   1.770   4.809 -0.2777  0.6950  1.0537
  111MOL   H14733367   4.518   1.942   5.245 -0.1639 -1.9746  1.1473
  111MOL   H14833368   4.629   1.819   5.185  0.6559 -0.0245  0.4473
  111MOL   H14933369   4.700   2.123   5.220  1.9147  0.2460  1.8533
  111MOL   H15033370   4.797   2.012   5.134 -0.6822 -1.1366 -0.1340
  111MOL   H15133371   4.767   1.987   5.306  1.2128  2.2717  0.0004
  111MOL   C15233372   4.556   1.856   4.744 -0.4564 -0.4142 -1.0151
  111MOL   C15333373   4.639   1.728   4.757 -0.3784 -0.2224 -0.5718
  111MOL   C15433374   4.768   1.747   4.846  0.6401 -0.0272 -0.1576
  111MOL   O15533375   4.792   1.690   4.952  0.4008  0.2433 -0.9486
  111MOL   O15633376   4.856   1.836   4.787 -0.0154  0.1707 -0.3105
  111MOL   C15733377   4.978   1.866   4.859 -0.1834 -0.2165  0.6389
  111MOL   C15833378   5.030   1.999   4.800 -0.5331 -0.6200  0.4787
  111MOL   H15933379   4.525   1.872   4.641 -1.3665 -0.5407 -0.7660
  111MOL   H16033380   4.617   1.938   4.781  0.0099 -1.2702  0.1482
  111MOL   H16133381   4.579   1.648   4.801  0.9148 -0.4910  0.7768
  111MOL   H16233382   4.984   1.872   4.967 -1.7096 -0.0037  0.7209
  111MOL   H16333383   5.039   1.780   4.834  0.1348  0.4525 -0.9658
  111MOL   H16433384   5.040   1.975   4.694  0.4267  0.5023  0.3102
  111MOL   H16533385   5.128   2.024   4.840  1.1039 -2.9362 -1.9037
  111MOL   H16633386   4.961   2.083   4.802 -1.6274 -1.3784 -2.6875
  111MOL   C16733387   4.677   1.670   4.620 -0.4283 -0.1596 -0.6865
  111MOL   C16833388   4.561   1.607   4.541 -0.5495 -0.2362  0.0348
  111MOL   C16933389   4.516   1.469   4.602  0.3808 -0.5025 -0.0963
  111MOL   O17033390   4.415   1.470   4.671 -0.7172 -0.6318 -0.0088
  111MOL   O17133391   4.586   1.358   4.575 -0.7192  0.2420  0.6957
  111MOL   C17233392   4.562   1.244   4.652  0.0867  0.2731  0.3029
  111MOL   C17333393   4.681   1.150   4.628 -0.4514 -0.7016  0.6446
  111MOL   H17433394   4.711   1.757   4.564 -1.1861  0.7830  0.3016
  111MOL   H17533395   4.763   1.604   4.626  0.5165  0.8632 -2.4447
  111MOL   H17633396   4.473   1.669   4.560 -0.9607 -0.3621 -1.4067
  111MOL   H17733397   4.542   1.260   4.758 -1.9090 -2.2351  0.3506
  111MOL   H17833398   4.477   1.191   4.608  0.0397  0.5758  0.0271
  111MOL   H17933399   4.663   1.051   4.669 -0.9863 -0.7108  0.3961
  111MOL   H18033400   4.778   1.189   4.659  0.8333 -1.8782 -1.7587
  111MOL   H18133401   4.695   1.129   4.522  1.8668  2.2483  0.2918
  111MOL   C18233402   4.587   1.604   4.388  1.0334 -0.6571  0.3859
  111MOL   C18333403   4.468   1.559   4.298  0.1857  0.1400 -1.5298
  111MOL   C18433404   4.505   1.481   4.174 -0.2263 -0.3395  0.2413
  111MOL   O18533405   4.491   1.357   4.164  0.4977  0.3040  0.6910
  111MOL   O18633406   4.530   1.553   4.069  0.7582  0.7449  0.3902
  111MOL   C18733407   4.547   1.498   3.942 -0.1786  0.0139  1.1585
  111MOL   C18833408   4.691   1.472   3.911 -0.4019 -0.7257  0.0731
  111MOL   H18933409   4.620   1.698   4.345  1.0621 -1.3253 -1.0588
  111MOL   H19033410   4.673   1.538   4.378  2.2159  0.6831  1.4092
  111MOL   H19133411   4.422   1.474   4.348  2.2204 -1.4429 -2.3325
  111MOL   H19233412   4.513   1.395   3.940  3.0690 -1.1084 -0.9041
  111MOL   H19333413   4.494   1.558   3.868  0.1909 -0.4526  0.5077
  111MOL   H19433414   4.715   1.435   3.812 -0.8159  0.9472 -0.6679
  111MOL   H19533415   4.731   1.410   3.991  1.7884  0.6331  0.0723
  111MOL   H19633416   4.748   1.564   3.919 -0.7319 -0.4932 -0.2352
  111MOL   C19733417   4.363   1.675   4.277  0.0662  0.2154  0.3178
  111MOL   C19833418   4.242   1.649   4.181  0.2619  0.4644  0.5499
  111MOL   C19933419   4.167   1.784   4.178  0.5833 -0.0608  0.8048
  111MOL   O20033420   4.147   1.843   4.072  0.1440  0.0303 -0.1254
  111MOL   O20133421   4.113   1.830   4.297  0.1197  0.3004  0.0345
  111MOL   C20233422   4.015   1.934   4.301 -0.4893 -0.6396  0.8287
  111MOL   C20333423   4.042   2.001   4.435 -0.4825  0.1611 -0.3621
  111MOL   H20433424   4.317   1.712   4.369  1.0334  1.2527  0.4061
  111MOL   H20533425   4.420   1.766   4.256  0.0608  0.5721  1.7977
  111MOL   H20633426   4.281   1.627   4.082 -0.5500 -0.1722  0.3647
  111MOL   H20733427   4.024   2.008   4.222 -0.1524 -2.0632 -0.4890
  111MOL   H20833428   3.921   1.879   4.305 -0.3840 -0.7683  1.9161
  111MOL   H20933429   4.008   1.940   4.518 -2.4518 -1.3889 -2.2324
  111MOL   H21033430   3.988   2.096   4.438 -0.1199  0.3417  0.6064
  111MOL   H21133431   4.144   2.034   4.452 -0.7894  0.5289  0.7722
  111MOL   C21233432   4.153   1.529   4.221  0.5206  0.1600 -0.3101
  111MOL   C21333433   4.033   1.488   4.129  0.4238  0.3171 -0.4238
  111MOL   C21433434   3.901   1.572   4.140 -0.8459 -0.2647 -0.2686
  111MOL   O21533435   3.858   1.636   4.045 -0.3855  0.3579  0.9207
  111MOL   O21633436   3.849   1.566   4.266 -0.0304 -0.0999 -0.0894
  111MOL   C21733437   3.728   1.639   4.313 -0.6540 -0.3885 -0.2096
  111MOL   C21833438   3.608   1.548   4.300  0.8487  0.6434  0.6789
  111MOL   H21933439   4.228   1.449   4.227  1.2819  0.8259 -0.8945
  111MOL   H22033440   4.122   1.536   4.326 -1.2058 -2.6090 -0.5699
  111MOL   H22133441   4.054   1.504   4.023 -0.7614  0.1397 -0.6904
  111MOL   H22233442   3.742   1.659   4.420  1.2255  1.0621 -0.7149
  111MOL   H22333443   3.716   1.734   4.263  1.7052  0.7958  1.3826
  111MOL   H22433444   3.624   1.458   4.359 -1.5691 -0.4158 -0.2527
  111MOL   H22533445   3.598   1.509   4.198 -0.0980 -0.1385  1.0653
  111MOL   H22633446   3.516   1.598   4.329 -0.4143  1.1175 -3.7620
  111MOL   C22733447   3.996   1.338   4.132  0.4023 -0.0923 -0.6832
  111MOL   C22833448   4.099   1.251   4.057  0.1960 -0.4856  0.4586
  111MOL   C22933449   4.096   1.271   3.905  0.6997  0.1183 -0.3040
  111MOL   O23033450   4.196   1.285   3.835 -0.2756  0.4220 -0.3991
  111MOL   O23133451   3.974   1.270   3.859 -0.5005 -0.4428  0.6670
  111MOL   C23233452   3.956   1.255   3.722 -0.1114 -1.0493  0.3172
  111MOL   C23333453   3.949   1.109   3.672 -0.3847 -0.6371 -0.1995
  111MOL   H23433454   4.001   1.312   4.238  0.6519  2.8100  0.0697
  111MOL   H23533455   3.894   1.324   4.095  0.4734 -1.3112 -0.4523
  111MOL   H23633456   4.194   1.294   4.091 -0.2352  0.7268  0.1495
  111MOL   H23733457   3.858   1.298   3.699  0.3689 -0.6387 -0.9981
  111MOL   H23833458   4.033   1.306   3.665  1.7335 -0.5622  3.1875
  111MOL   H23933459   3.861   1.057   3.709 -2.0578  0.8743 -1.9494
  111MOL   H24033460   4.040   1.066   3.714  0.8405  0.2525 -1.8540
  111MOL   H24133461   3.940   1.088   3.566 -0.0192  0.4984 -0.4652
  111MOL   C24233462   4.077   1.100   4.086  0.2565  0.4452  0.7473
  111MOL   C24333463   4.140   1.043   4.226  0.7446  0.0386 -0.4034
  111MOL   C24433464   4.290   1.075   4.231 -0.3958 -0.1521  0.5224
  111MOL   O24533465   4.347   1.146   4.313  0.3744  0.0688 -0.0513
  111MOL   O24633466   4.361   1.007   4.147  0.0459 -0.1504 -0.1525
  111MOL   C24733467   4.501   1.011   4.134  0.3432 -0.7572 -0.1377
  111MOL   C24833468   4.556   1.088   4.017 -0.5111 -0.4890  0.3966
  111MOL   H24933469   3.970   1.079   4.087  0.3326  0.0933  1.3076
  111MOL   H25033470   4.128   1.052   4.001 -1.7231 -2.4211  1.1227
  111MOL   H25133471   4.089   1.100   4.303 -0.1917  1.3178 -1.9171
  111MOL   H25233472   4.539   1.063   4.222 -0.8490  2.1588 -1.2854
  111MOL   H25333473   4.540   0.910   4.145  2.3744 -0.0495 -0.6709
  111MOL   H25433474   4.567   1.031   3.924 -2.2336  0.6931 -0.5430
  111MOL   H25533475   4.659   1.121   4.035  0.2870 -1.0780 -2.6911
  111MOL   H25633476   4.494   1.171   3.985 -0.5451 -0.7352 -0.1839
  111MOL   C25733477   4.111   0.888   4.244 -0.4251 -0.4910 -0.3448
  111MOL   C25833478   4.193   0.817   4.359  0.1062  0.2522  0.2786
  111MOL   C25933479   4.160   0.660   4.345 -0.0621 -0.0112  0.4218
  111MOL   O26033480   4.037   0.627   4.332  0.2002 -0.1386 -0.1034
  111MOL   O26133481   4.268   0.586   4.331  0.2283 -0.0262  0.2973
  111MOL   C26233482   4.263   0.447   4.298 -0.5332  0.0541 -0.2785
  111MOL   C26333483   4.275   0.364   4.428 -0.6985  0.5191  0.2821
  111MOL   H26433484   4.003   0.877   4.249 -0.2517 -2.3871 -0.5790
  111MOL   H26533485   4.143   0.838   4.153 -1.3899 -3.6349  0.9952
  111MOL   H26633486   4.298   0.834   4.332  0.1754  0.7856  0.8717
  111MOL   H26733487   4.175   0.418   4.241 -0.3664 -2.6094  0.7318
  111MOL   H26833488   4.350   0.435   4.233 -2.4234  0.6655 -2.9879
  111MOL   H26933489   4.269   0.258   4.403 -0.4229  0.9535 -1.7017
  111MOL   H27033490   4.186   0.383   4.489 -0.4001  1.0373  0.5525
  111MOL   H27133491   4.362   0.390   4.488 -2.4025 -0.2334  3.2091
  111MOL   C27233492   4.172   0.878   4.498 -0.4016 -0.0903 -0.6686
  111MOL   C27333493   4.240   0.819   4.626  0.3399 -0.5756  1.0222
  111MOL   C27433494   4.399   0.832   4.617 -0.3746  0.2792  0.1793
  111MOL   O27533495   4.459   0.883   4.710 -0.2683  0.7239  0.0183
  111MOL   O27633496   4.461   0.768   4.512 -0.0776 -0.7561  0.4467
  111MOL   C27733497   4.597   0.746   4.533 -0.8763  0.0447  0.2162
  111MOL   C27833498   4.654   0.694   4.401 -0.2261 -0.4509 -0.0762
  111MOL   H27933499   4.168   0.987   4.498  0.1134 -0.0673  0.2101
  111MOL   H28033500   4.066   0.861   4.520 -0.6497  1.2565 -0.8116
  111MOL   H28133501   4.208   0.886   4.705  0.0847 -0.4494  0.8114
  111MOL   H28233502   4.649   0.839   4.555 -1.3254  0.6255 -1.1222
  111MOL   H28333503   4.610   0.664   4.603  0.3325  0.9580  1.0784
  111MOL   H28433504   4.657   0.775   4.327 -2.7790 -0.7099 -0.4867
  111MOL   H28533505   4.586   0.623   4.354 -0.9980  1.1143 -1.3911
  111MOL   H28633506   4.745   0.637   4.421 -0.5178 -1.0674 -0.5153
  111MOL   C28733507   4.196   0.678   4.667 -0.3920 -0.2496 -0.2001
  111MOL   C28833508   4.196   0.675   4.817  0.2065 -0.2990  0.8384
  111MOL   C28933509   4.171   0.535   4.871 -0.0279 -0.4919  0.0220
  111MOL   O29033510   4.244   0.484   4.956 -0.0593  0.2625 -0.0051
  111MOL   O29133511   4.063   0.478   4.822 -0.5391  0.4736 -0.5555
  111MOL   C29233512   4.035   0.341   4.842 -0.9415 -0.2426 -0.6416
  111MOL   C29333513   4.099   0.251   4.728  0.0619 -0.1762 -0.4246
  111MOL   H29433514   4.099   0.662   4.620 -0.3715 -2.6744  0.5432
  111MOL   H29533515   4.278   0.612   4.637 -0.4457  0.4621 -1.9935
  111MOL   H29633516   4.296   0.708   4.845  1.3254 -0.9681 -2.1931
  111MOL   H29733517   4.080   0.313   4.938  0.6221  1.8708 -0.7125
  111MOL   H29833518   3.930   0.327   4.867 -0.9063 -3.9548 -2.3406
  111MOL   H29933519   4.109   0.148   4.762  1.1342  0.0275 -0.0969
  111MOL   H30033520   4.196   0.297   4.709  1.1369 -1.0131  2.7323
  111MOL   H30133521   4.026   0.256   4.647  1.2866 -0.6958 -1.5790
  111MOL   H30233522   4.128   0.754   4.848  0.2811  0.9725 -2.1410
  112MOL     C133523   4.843   2.892   4.704  0.7288  0.1874  0.2828
  112MOL     C233524   4.913   2.766   4.649  0.3363  0.0093  0.0494
  112MOL     C333525   5.025   2.799   4.554  0.4426 -0.6082  0.7635
  112MOL     O433526   5.146   2.784   4.580 -0.5786  0.0281  0.1507
  112MOL     O533527   4.985   2.866   4.442 -0.1237  0.5455  0.0223
  112MOL     C633528   5.082   2.911   4.357 -0.2218 -0.0401 -0.1014
  112MOL     C733529   5.119   3.054   4.374 -1.2944 -0.2802  0.1120
  112MOL     H833530   4.908   2.978   4.717  2.1242 -0.7842 -0.1223
  112MOL     H933531   4.804   2.879   4.805  1.2757  0.5626  0.5459
  112MOL    H1033532   4.954   2.711   4.734 -0.7155 -1.2441 -0.2358
  112MOL    H1133533   5.179   2.863   4.367 -0.1398  0.1917  0.2135
  112MOL    H1233534   5.033   2.889   4.262  0.4800 -0.5459 -0.3465
  112MOL    H1333535   5.034   3.112   4.335 -0.9684  0.9661  1.2287
  112MOL    H1433536   5.198   3.081   4.303 -0.1415 -0.3601  1.3504
  112MOL    H1533537   5.144   3.081   4.476 -0.0758  0.5903 -0.3931
  112MOL    H1633538   4.768   2.928   4.634  2.0219 -0.2611 -1.3615
  112MOL    C1733539   4.801   2.672   4.589 -0.3418 -0.3255 -0.3251
  112MOL    C1833540   4.810   2.525   4.630  0.1093  0.3818  0.0706
  112MOL    C1933541   4.941   2.456   4.608 -0.2763 -0.0529  0.5202
  112MOL    O2033542   5.008   2.407   4.699 -0.7061  0.4659  0.1027
  112MOL    O2133543   4.962   2.436   4.471  0.1348  0.3172 -0.7669
  112MOL    C2233544   5.094   2.396   4.429  0.2372  0.1093  0.5436
  112MOL    C2333545   5.085   2.323   4.292  0.4443  0.1215 -0.2052
  112MOL    H2433546   4.705   2.712   4.622 -1.3109  1.3033 -4.7741
  112MOL    H2533547   4.807   2.685   4.481  3.1571  0.1918 -0.1266
  112MOL    H2633548   4.799   2.511   4.738 -1.7298 -1.4853 -0.3188
  112MOL    H2733549   5.155   2.484   4.414 -0.8844  0.6072 -1.2706
  112MOL    H2833550   5.139   2.324   4.498 -0.7743  0.4544  1.5707
  112MOL    H2933551   5.032   2.229   4.306 -2.1858  1.4685 -0.7732
  112MOL    H3033552   5.185   2.302   4.255  0.9638  0.2180  1.1130
  112MOL    H3133553   5.047   2.379   4.206 -0.3297 -0.5102 -0.2818
  112MOL    C3233554   4.699   2.432   4.563  0.1210  0.1143 -1.2053
  112MOL    C3333555   4.558   2.445   4.617 -0.0255 -0.2188 -0.1579
  112MOL    C3433556   4.546   2.435   4.767  0.0715  0.2531 -0.5772
  112MOL    O3533557   4.496   2.525   4.835 -0.5211 -0.5051  0.3266
  112MOL    O3633558   4.597   2.320   4.812 -0.4494 -0.2719 -0.0110
  112MOL    C3733559   4.638   2.307   4.948  0.4076  0.1239  0.0197
  112MOL    C3833560   4.780   2.243   4.948 -0.0625 -0.1085  0.1102
  112MOL    H3933561   4.698   2.445   4.454  3.1742 -1.1422 -1.4232
  112MOL    H4033562   4.728   2.328   4.580  0.0613  0.2228 -0.4443
  112MOL    H4133563   4.511   2.542   4.600  2.6375  0.6763 -3.0107
  112MOL    H4233564   4.643   2.405   4.997 -1.0239  0.1092  0.2246
  112MOL    H4333565   4.561   2.246   4.995 -1.1715  0.9943 -1.3979
  112MOL    H4433566   4.777   2.139   4.915 -1.8406 -0.1058  0.2424
  112MOL    H4533567   4.817   2.236   5.050  0.6632  2.2529  0.0384
  112MOL    H4633568   4.849   2.294   4.880 -1.6414  1.5824 -0.2484
  112MOL    C4733569   4.468   2.344   4.540 -0.1920  0.7277  0.0686
  112MOL    C4833570   4.446   2.339   4.388 -0.1430  0.6692 -0.9603
  112MOL    C4933571   4.354   2.450   4.342  0.5509 -0.4756 -0.5004
  112MOL    O5033572   4.235   2.438   4.304 -0.1280  0.0500 -0.4784
  112MOL    O5133573   4.414   2.570   4.359  0.1789  0.2369  0.7436
  112MOL    C5233574   4.338   2.691   4.343 -0.0277 -0.3076 -0.4020
  112MOL    C5333575   4.422   2.804   4.412 -0.2364  0.7771 -0.8288
  112MOL    H5433576   4.501   2.243   4.564 -2.2563 -0.3986 -1.6946
  112MOL    H5533577   4.368   2.340   4.581 -0.3628 -1.1523 -0.4650
  112MOL    H5633578   4.535   2.350   4.327  1.3567 -0.5682  0.9760
  112MOL    H5733579   4.282   2.700   4.250 -1.6943 -1.3070  0.4796
  112MOL    H5833580   4.246   2.684   4.402 -0.8968 -0.3566 -1.7318
  112MOL    H5933581   4.516   2.814   4.358  1.3203 -0.3409  1.5909
  112MOL    H6033582   4.446   2.763   4.510  1.5474  0.7647 -1.2550
  112MOL    H6133583   4.371   2.899   4.432  3.1061  2.3671  0.4429
  112MOL    C6233584   4.387   2.194   4.347 -0.4339 -0.6591  0.3163
  112MOL    C6333585   4.442   2.126   4.222  0.5557  0.6785  0.2885
  112MOL    C6433586   4.587   2.100   4.230  1.0921  0.4962 -0.2621
  112MOL    O6533587   4.672   2.149   4.154  0.3434 -0.2390  0.0826
  112MOL    O6633588   4.614   2.014   4.332 -0.1355 -0.3024  0.0709
  112MOL    C6733589   4.747   1.973   4.359  0.0201  0.2191  0.7029
  112MOL    C6833590   4.805   2.033   4.484 -0.1499  0.0234 -0.4253
  112MOL    H6933591   4.395   2.127   4.432 -0.9355 -0.0608  0.8418
  112MOL    H7033592   4.278   2.200   4.351 -0.4462 -0.6974  0.0426
  112MOL    H7133593   4.406   2.024   4.227  0.7010  0.4236 -2.8344
  112MOL    H7233594   4.743   1.865   4.372 -0.1017  0.2379  0.8314
  112MOL    H7333595   4.817   1.987   4.277 -1.0365 -1.4646 -0.5285
  112MOL    H7433596   4.844   2.133   4.471  1.2036 -0.1742  1.9728
  112MOL    H7533597   4.898   1.983   4.509 -1.5511 -2.4386  0.0927
  112MOL    H7633598   4.745   2.029   4.575  1.2416  0.9502  0.5341
  112MOL    C7733599   4.394   2.198   4.095 -0.4887 -1.1630 -0.2607
  112MOL    C7833600   4.439   2.149   3.951  0.2676  0.2816  0.1613
  112MOL    C7933601   4.391   2.248   3.847  0.6072 -0.2414 -0.2618
  112MOL    O8033602   4.471   2.320   3.788 -0.0091  0.3237  0.8626
  112MOL    O8133603   4.261   2.259   3.835  0.3869  0.1010  0.7674
  112MOL    C8233604   4.196   2.329   3.727  0.4602 -0.5700  0.6194
  112MOL    C8333605   4.174   2.244   3.599  0.1229 -0.0566 -0.7856
  112MOL    H8433606   4.285   2.201   4.096 -0.4576  1.8553  1.9719
  112MOL    H8533607   4.438   2.298   4.094 -1.3812 -0.7621 -1.9178
  112MOL    H8633608   4.547   2.139   3.949  0.4403  1.8236  1.2526
  112MOL    H8733609   4.099   2.355   3.769 -1.0190 -2.3328 -1.5735
  112MOL    H8833610   4.244   2.422   3.696  2.0970 -2.2380 -2.1154
  112MOL    H8933611   4.260   2.215   3.538  0.6682 -1.2354  0.5150
  112MOL    H9033612   4.111   2.305   3.535  1.4184  3.4938  1.2222
  112MOL    H9133613   4.128   2.147   3.618  2.2344 -0.6934  1.3353
  112MOL    C9233614   4.381   2.009   3.928 -0.3039  0.6009 -0.7483
  112MOL    C9333615   4.436   1.925   3.813 -0.0583 -0.4849 -0.0907
  112MOL    C9433616   4.597   1.916   3.827  0.4454  0.2982  0.4536
  112MOL    O9533617   4.673   1.975   3.746  0.7266  0.0276  0.1987
  112MOL    O9633618   4.638   1.845   3.935 -1.0816 -0.5173  0.1228
  112MOL    C9733619   4.780   1.839   3.962  0.4816 -1.0495  0.1764
  112MOL    C9833620   4.804   1.771   4.098 -0.2735  0.4526 -0.2390
  112MOL    H9933621   4.408   1.947   4.014  1.9957  0.3083 -1.6708
  112MOL   H10033622   4.272   2.003   3.916 -0.1264 -1.1040 -1.6144
  112MOL   H10133623   4.402   1.825   3.839  0.9601 -0.9427 -0.5106
  112MOL   H10233624   4.840   1.805   3.877 -1.4808 -0.2338 -1.5957
  112MOL   H10333625   4.811   1.942   3.979 -0.4884 -0.5997 -0.6918
  112MOL   H10433626   4.781   1.665   4.106 -0.5913  0.7110  2.9838
  112MOL   H10533627   4.740   1.817   4.174  0.9977 -0.2267  1.2708
  112MOL   H10633628   4.911   1.772   4.117 -0.7894  0.7413  2.9438
  112MOL   C10733629   4.376   1.967   3.681 -0.3548  0.9622 -0.8345
  112MOL   C10833630   4.384   1.860   3.565 -0.5164  0.7869 -0.0372
  112MOL   C10933631   4.340   1.717   3.607  0.1678  0.0118  0.5704
  112MOL   O11033632   4.419   1.622   3.617  0.1031 -0.4345 -0.4879
  112MOL   O11133633   4.216   1.710   3.647  0.2978 -0.4562  0.3126
  112MOL   C11233634   4.171   1.596   3.716  0.4978 -1.2275  0.4350
  112MOL   C11333635   4.036   1.626   3.772 -0.5578 -0.5891 -0.5215
  112MOL   H11433636   4.271   1.985   3.705 -1.0071 -1.3683 -1.8508
  112MOL   H11533637   4.409   2.063   3.639  1.0511  0.4653 -0.8893
  112MOL   H11633638   4.294   1.877   3.505  0.3433  0.9060 -1.3297
  112MOL   H11733639   4.160   1.512   3.646 -0.8102 -1.5979  1.0661
  112MOL   H11833640   4.239   1.563   3.795  1.0057 -1.0653  0.0726
  112MOL   H11933641   4.040   1.706   3.846 -2.0788 -2.0157  1.1681
  112MOL   H12033642   4.002   1.535   3.823  0.4591 -1.2107 -0.9246
  112MOL   H12133643   3.968   1.641   3.688 -3.1563 -1.5472  1.3390
  112MOL   C12233644   4.516   1.858   3.476  0.4393  0.1500 -0.4168
  112MOL   C12333645   4.545   1.992   3.398 -0.6220  0.4922  0.6245
  112MOL   C12433646   4.445   2.015   3.283  0.1652  0.5634 -0.0626
  112MOL   O12533647   4.359   2.105   3.294  0.0498  0.9346  0.1693
  112MOL   O12633648   4.458   1.917   3.189  0.6310 -0.1312 -0.5370
  112MOL   C12733649   4.370   1.912   3.081 -0.1829 -0.1665  1.0770
  112MOL   C12833650   4.390   1.799   2.994 -0.3782  0.4623 -0.3337
  112MOL   H12933651   4.599   1.838   3.543 -1.1949 -0.1298  1.5955
  112MOL   H13033652   4.515   1.777   3.403 -1.2796  0.7092 -1.0550
  112MOL   H13133653   4.529   2.076   3.465  0.7747  0.3363  1.1628
  112MOL   H13233654   4.266   1.898   3.111 -1.0511  1.3434 -1.0767
  112MOL   H13333655   4.363   2.008   3.029 -3.3299 -0.3822  1.0119
  112MOL   H13433656   4.488   1.796   2.945 -0.6141 -3.2220 -0.7722
  112MOL   H13533657   4.330   1.805   2.904 -2.2118  0.6543  0.8827
  112MOL   H13633658   4.365   1.701   3.036 -2.8178  0.9101 -0.7257
  112MOL   C13733659   4.687   1.994   3.337 -0.0428  0.1323 -0.6198
  112MOL   C13833660   4.790   2.090   3.394  0.4908  1.2222 -0.5307
  112MOL   C13933661   4.744   2.238   3.399  0.1389  0.6412  0.8438
  112MOL   O14033662   4.739   2.316   3.300 -0.3237  0.2339  0.0496
  112MOL   O14133663   4.702   2.277   3.521  0.0082  0.0402  0.3999
  112MOL   C14233664   4.656   2.413   3.551  0.7158  0.6674 -0.2634
  112MOL   C14333665   4.732   2.474   3.668  0.3564  0.4489  0.1289
  112MOL   H14433666   4.718   1.890   3.347  0.3566  0.3062 -0.0693
  112MOL   H14533667   4.686   2.023   3.232 -1.3504  1.5717 -0.2346
  112MOL   H14633668   4.803   2.050   3.495 -3.1142  1.1070 -0.0231
  112MOL   H14733669   4.663   2.465   3.456  1.5182 -0.0453 -0.6044
  112MOL   H14833670   4.551   2.419   3.580  1.4020  0.9880  2.2141
  112MOL   H14933671   4.698   2.574   3.692  0.5265  0.4677  0.2908
  112MOL   H15033672   4.841   2.478   3.657  0.1536  0.7409 -2.2005
  112MOL   H15133673   4.711   2.413   3.755  1.5999 -1.8238 -1.1020
  112MOL   C15233674   4.920   2.078   3.307 -0.2324 -0.0786  1.1139
  112MOL   C15333675   5.059   2.086   3.386 -0.2475 -0.6579 -0.2646
  112MOL   C15433676   5.094   2.232   3.411  0.0987 -0.1849  0.2949
  112MOL   O15533677   5.065   2.279   3.520 -0.0829  0.6157 -0.3267
  112MOL   O15633678   5.121   2.307   3.301 -0.0404 -0.1262 -0.7455
  112MOL   C15733679   5.167   2.445   3.312 -0.0812 -0.4374  0.3814
  112MOL   C15833680   5.088   2.529   3.214  0.1537 -0.4025 -0.4821
  112MOL   H15933681   4.909   1.986   3.250 -1.3090  1.4041 -1.1625
  112MOL   H16033682   4.909   2.155   3.231  1.1256 -0.7735  0.2049
  112MOL   H16133683   5.040   2.040   3.483  0.5682  1.3396  0.8794
  112MOL   H16233684   5.170   2.480   3.415  1.1183  1.2459 -0.2053
  112MOL   H16333685   5.264   2.458   3.264  0.0864  0.5593  0.9780
  112MOL   H16433686   5.116   2.515   3.110 -0.9117  0.5200 -0.8988
  112MOL   H16533687   5.096   2.634   3.242  1.0087 -0.5730 -0.0581
  112MOL   H16633688   4.981   2.512   3.231 -0.3706  2.8715 -0.1036
  112MOL   C16733689   5.178   2.016   3.313 -0.7461 -0.5156 -0.3765
  112MOL   C16833690   5.184   1.870   3.256 -0.1635 -0.2102 -0.1150
  112MOL   C16933691   5.163   1.769   3.364  0.0724  0.5838 -0.8311
  112MOL   O17033692   5.242   1.691   3.403 -0.1496 -0.5383  0.0730
  112MOL   O17133693   5.038   1.780   3.421 -0.0750  0.0048  0.3464
  112MOL   C17233694   5.002   1.705   3.534 -0.3226 -0.3303 -0.0066
  112MOL   C17333695   4.855   1.719   3.572  0.0651 -0.0115 -0.1459
  112MOL   H17433696   5.195   2.085   3.230 -1.0913  0.1873  0.1233
  112MOL   H17533697   5.254   2.024   3.390 -1.2933  0.5235  0.0709
  112MOL   H17633698   5.092   1.865   3.196 -0.2469  3.0463 -0.3705
  112MOL   H17733699   5.017   1.599   3.515  0.6862 -0.2336  0.2361
  112MOL   H17833700   5.070   1.722   3.617  0.5273  0.2818 -0.8201
  112MOL   H17933701   4.791   1.691   3.488  1.3176  1.3908 -1.6220
  112MOL   H18033702   4.833   1.819   3.610 -1.2987  0.1320 -1.2566
  112MOL   H18133703   4.825   1.644   3.644 -1.0657 -1.4836 -2.1098
  112MOL   C18233704   5.308   1.859   3.159 -0.0756  0.4467 -0.1891
  112MOL   C18333705   5.278   1.788   3.031  0.1071  0.4907  0.1526
  112MOL   C18433706   5.223   1.640   3.042 -0.1268 -0.2099 -0.1287
  112MOL   O18533707   5.104   1.614   3.041  0.0462  0.1514  0.1947
  112MOL   O18633708   5.316   1.548   3.073  0.1105 -0.4918 -0.0223
  112MOL   C18733709   5.281   1.420   3.121 -0.7228 -0.0502  0.8320
  112MOL   C18833710   5.391   1.358   3.217  0.6278 -0.2557 -0.1990
  112MOL   H18933711   5.354   1.956   3.147 -1.4574  1.4595  2.2603
  112MOL   H19033712   5.385   1.802   3.211  0.5093  0.6001 -0.8934
  112MOL   H19133713   5.187   1.838   2.998  0.9912  1.9126 -0.1657
  112MOL   H19233714   5.185   1.428   3.172 -0.6559  0.0262  0.9438
  112MOL   H19333715   5.250   1.366   3.031 -1.7866  1.0901  0.5130
  112MOL   H19433716   5.489   1.335   3.174  0.1356 -1.3106 -0.7579
  112MOL   H19533717   5.364   1.255   3.240 -0.1213  0.2227  1.1054
  112MOL   H19633718   5.403   1.409   3.313  0.3886  1.9165 -1.2746
  112MOL   C19733719   5.390   1.802   2.926 -0.0545  0.0179  0.6654
  112MOL   C19833720   5.412   1.951   2.868  0.2485  0.6047  0.5854
  112MOL   C19933721   5.281   2.007   2.811 -0.1482  0.2435  0.0959
  112MOL   O20033722   5.224   1.962   2.717 -0.5147  0.2382  0.0634
  112MOL   O20133723   5.230   2.115   2.872 -0.0838  0.1290 -0.2715
  112MOL   C20233724   5.101   2.151   2.848  0.1841  0.4938 -0.1756
  112MOL   C20333725   5.042   2.223   2.971  0.5406 -0.6772  0.8160
  112MOL   H20433726   5.488   1.762   2.953  0.2605  0.7534  0.6088
  112MOL   H20533727   5.362   1.741   2.840 -0.4826 -0.4293  1.1133
  112MOL   H20633728   5.430   2.015   2.954  2.5003  0.4238  0.2985
  112MOL   H20733729   5.099   2.212   2.758  0.9039  1.1928  0.2747
  112MOL   H20833730   5.046   2.060   2.822 -0.0031 -0.3277  2.9107
  112MOL   H20933731   5.028   2.144   3.044 -0.7043 -0.5502  0.7199
  112MOL   H21033732   4.940   2.252   2.946  0.7640  1.7492  2.5976
  112MOL   H21133733   5.102   2.308   3.004  2.3847 -2.0722  1.1551
  112MOL   C21233734   5.528   1.975   2.771  0.2465 -0.1103  0.1723
  112MOL   C21333735   5.665   1.948   2.839  0.3186 -0.1207  0.5445
  112MOL   C21433736   5.710   2.063   2.929 -0.1933 -0.5616 -0.3117
  112MOL   O21533737   5.798   2.141   2.891 -0.0652 -0.3737 -0.2687
  112MOL   O21633738   5.630   2.082   3.028  0.7235 -0.2095  0.5729
  112MOL   C21733739   5.640   2.191   3.114  0.7022  0.0569 -0.3118
  112MOL   C21833740   5.510   2.209   3.191 -0.3597 -0.2206 -0.4862
  112MOL   H21933741   5.516   1.907   2.687 -1.6085  0.1188  0.2362
  112MOL   H22033742   5.527   2.075   2.727 -0.8683 -0.9108 -1.6782
  112MOL   H22133743   5.651   1.862   2.905 -1.4187 -0.9175 -0.8511
  112MOL   H22233744   5.723   2.182   3.185  0.1167 -2.1325  0.1402
  112MOL   H22333745   5.646   2.275   3.046 -0.0345  0.2382 -0.1528
  112MOL   H22433746   5.528   2.159   3.286 -1.7575 -0.4973 -0.3530
  112MOL   H22533747   5.427   2.167   3.134 -3.3039  0.9839  2.7282
  112MOL   H22633748   5.497   2.316   3.208  0.4912 -0.2696  0.5094
  112MOL   C22733749   5.783   1.899   2.743 -0.6552  0.0521 -0.6440
  112MOL   C22833750   5.752   1.781   2.649 -0.4135  0.0945  0.5187
  112MOL   C22933751   5.681   1.666   2.713 -0.1095 -0.2112 -0.5877
  112MOL   O23033752   5.599   1.598   2.662 -0.1723 -0.4922  0.1245
  112MOL   O23133753   5.732   1.642   2.838  0.3552 -0.3142 -0.1205
  112MOL   C23233754   5.679   1.544   2.922 -0.1679 -0.1920  0.3555
  112MOL   C23333755   5.726   1.564   3.066 -0.7221  1.0978  0.0628
  112MOL   H23433756   5.810   1.987   2.684  0.4207  0.8054  0.9088
  112MOL   H23533757   5.873   1.877   2.801  0.6124  0.6420 -2.3451
  112MOL   H23633758   5.686   1.817   2.570  0.6159  0.3528 -0.2231
  112MOL   H23733759   5.574   1.569   2.905 -0.2926 -0.9470 -0.0067
  112MOL   H23833760   5.703   1.444   2.887  2.5911  0.0144  1.5503
  112MOL   H23933761   5.670   1.493   3.127  2.6649 -0.9700  0.8887
  112MOL   H24033762   5.693   1.662   3.099  1.5887  2.1641 -0.7595
  112MOL   H24133763   5.834   1.560   3.078 -0.6862  1.3348 -0.1910
  112MOL   C24233764   5.871   1.722   2.566  0.0597 -0.7427 -0.2339
  112MOL   C24333765   5.945   1.815   2.478 -0.2979 -0.0347 -0.5272
  112MOL   C24433766   5.854   1.893   2.380 -0.2000  0.4268 -0.2213
  112MOL   O24533767   5.868   2.012   2.369  0.7491 -0.1878 -0.2728
  112MOL   O24633768   5.755   1.813   2.317  0.2703 -0.5735 -0.1105
  112MOL   C24733769   5.650   1.878   2.250  0.0923 -0.1210 -0.1335
  112MOL   C24833770   5.519   1.868   2.319 -1.0546 -0.4506  0.4037
  112MOL   H24933771   5.946   1.672   2.627  2.3474  1.0753 -1.4737
  112MOL   H25033772   5.819   1.647   2.505 -0.2300 -2.4462  2.0482
  112MOL   H25133773   5.977   1.895   2.546 -0.4383  0.4863 -1.0727
  112MOL   H25233774   5.673   1.985   2.246  0.7402 -0.2452  0.1347
  112MOL   H25333775   5.645   1.848   2.145  0.0074  1.1868 -0.5159
  112MOL   H25433776   5.505   1.761   2.338  1.5622 -0.9491 -0.3335
  112MOL   H25533777   5.438   1.903   2.255  0.8672  1.2208 -1.1494
  112MOL   H25633778   5.533   1.910   2.419  1.3486 -0.2405 -0.0114
  112MOL   C25733779   6.068   1.757   2.405 -0.5302  0.0100  0.1441
  112MOL   C25833780   6.205   1.777   2.471  0.4042 -0.3731  0.1827
  112MOL   C25933781   6.215   1.694   2.596 -0.0618 -0.4646  0.2735
  112MOL   O26033782   6.178   1.742   2.706 -0.3896  0.3173 -0.5033
  112MOL   O26133783   6.268   1.570   2.583 -0.0664 -0.8364  0.4583
  112MOL   C26233784   6.286   1.493   2.700 -0.7687  0.0853 -0.0186
  112MOL   C26333785   6.146   1.442   2.738 -0.3343  1.2203 -0.0242
  112MOL   H26433786   6.048   1.650   2.399  0.8901 -0.2912  0.6263
  112MOL   H26533787   6.061   1.782   2.299  0.1136 -0.4550 -0.0115
  112MOL   H26633788   6.284   1.738   2.406  0.4217  1.6679 -1.0451
  112MOL   H26733789   6.347   1.405   2.681  0.5976  0.6974  1.3752
  112MOL   H26833790   6.333   1.559   2.773 -3.2501 -0.8699  2.5273
  112MOL   H26933791   6.083   1.527   2.765 -1.8069 -0.0019  0.5040
  112MOL   H27033792   6.137   1.376   2.824  1.5468  1.7856  0.6235
  112MOL   H27133793   6.100   1.379   2.661  0.0236  1.0341 -0.0869
  112MOL   C27233794   6.232   1.934   2.489 -1.1466  1.0914  0.7021
  112MOL   C27333795   6.383   1.978   2.499  0.0433 -0.2983  0.1790
  112MOL   C27433796   6.446   1.921   2.624 -0.1261 -0.1719  0.1480
  112MOL   O27533797   6.532   1.831   2.619  0.1354  0.3626  0.2825
  112MOL   O27633798   6.404   1.985   2.735  0.4073 -0.3337 -0.2982
  112MOL   C27733799   6.471   1.956   2.863  0.2696 -0.5677 -0.2706
  112MOL   C27833800   6.603   2.030   2.867 -0.0613 -0.6170  0.5185
  112MOL   H27933801   6.181   1.986   2.408  0.6028  0.8480 -0.5724
  112MOL   H28033802   6.174   1.971   2.574 -1.0536 -0.0345  1.2660
  112MOL   H28133803   6.441   1.942   2.414  0.5247  0.9713 -0.0272
  112MOL   H28233804   6.413   1.988   2.950 -0.3494 -1.0450 -0.5033
  112MOL   H28333805   6.489   1.848   2.862 -1.3259 -0.8749  1.1679
  112MOL   H28433806   6.596   2.138   2.859  2.5804 -0.4689 -0.2819
  112MOL   H28533807   6.674   2.001   2.789 -0.8597  0.7840 -0.7415
  112MOL   H28633808   6.649   2.013   2.964  2.0852  2.3494  0.0885
  112MOL   C28733809   6.399   2.135   2.488  0.2192 -0.5199 -0.0477
  112MOL   C28833810   6.543   2.190   2.486 -0.3384  0.1471 -0.8144
  112MOL   C28933811   6.616   2.204   2.351 -0.5792 -0.8548  0.1094
  112MOL   O29033812   6.737   2.184   2.342  0.4310 -0.7249  0.1992
  112MOL   O29133813   6.543   2.254   2.258 -0.3511  0.4569  0.4594
  112MOL   C29233814   6.581   2.254   2.121 -0.0048 -0.3124 -0.0104
  112MOL   C29333815   6.465   2.300   2.028  0.3644 -1.5112  0.7131
  112MOL   H29433816   6.352   2.161   2.394 -0.9257 -1.7161  0.1799
  112MOL   H29533817   6.343   2.177   2.571 -1.5674 -0.3365 -1.3260
  112MOL   H29633818   6.543   2.286   2.537  0.3164 -0.3935  0.2389
  112MOL   H29733819   6.670   2.318   2.118 -0.6106  0.4954 -0.8875
  112MOL   H29833820   6.614   2.156   2.086 -2.6527 -0.9859 -0.7241
  112MOL   H29933821   6.375   2.245   2.054 -1.9379  1.3818 -0.7888
  112MOL   H30033822   6.504   2.279   1.928 -0.9303  5.0017 -1.4227
  112MOL   H30133823   6.445   2.405   2.048  2.7187 -1.0373  0.7608
  112MOL   H30233824   6.620   2.131   2.537 -1.6025 -0.3282  0.5920
  113MOL     C133825   2.924   5.158   6.672  0.7945 -0.4019  0.7944
  113MOL     C233826   3.052   5.228   6.643 -0.2782  0.0291  0.3775
  113MOL     C333827   3.023   5.381   6.643 -0.6534 -0.1194  0.3918
  113MOL     O433828   3.024   5.448   6.535 -0.0906  0.2343  0.0762
  113MOL     O533829   2.993   5.445   6.756  0.4993 -0.2515 -0.6202
  113MOL     C633830   2.986   5.592   6.758 -0.6635  0.5688 -0.7454
  113MOL     C733831   2.858   5.652   6.718  0.1990 -0.3466  0.2762
  113MOL     H833832   2.927   5.049   6.679 -2.4895 -0.5172  1.0961
  113MOL     H933833   2.843   5.188   6.606 -1.2873 -0.6230  3.1324
  113MOL    H1033834   3.123   5.205   6.722 -2.2408 -1.6486  1.7017
  113MOL    H1133835   3.004   5.610   6.864  1.9774 -3.3212 -0.3954
  113MOL    H1233836   3.060   5.636   6.691 -0.7947  2.4253  0.3086
  113MOL    H1333837   2.788   5.628   6.798 -0.9480  2.4816  0.1749
  113MOL    H1433838   2.823   5.616   6.621  0.8940  0.7210 -0.3761
  113MOL    H1533839   2.861   5.761   6.711  1.2521 -0.3266  1.0579
  113MOL    H1633840   2.900   5.189   6.774 -0.3029 -0.1187  0.4512
  113MOL    C1733841   3.110   5.179   6.506  0.7017 -0.0276  0.6414
  113MOL    C1833842   3.251   5.116   6.521  0.0433 -0.4967  0.1826
  113MOL    C1933843   3.260   4.987   6.601  0.1580  0.0295 -0.5718
  113MOL    O2033844   3.211   4.979   6.714  0.0322  0.0258  0.4571
  113MOL    O2133845   3.341   4.890   6.541  0.4256  0.4136 -0.4206
  113MOL    C2233846   3.333   4.753   6.597 -0.1618  0.5541 -0.1387
  113MOL    C2333847   3.398   4.657   6.497  0.3968  0.2953  0.0124
  113MOL    H2433848   3.038   5.104   6.475  0.6072  0.0864  0.5857
  113MOL    H2533849   3.113   5.253   6.426  0.0975 -0.7008 -0.0069
  113MOL    H2633850   3.294   5.094   6.423 -1.1595 -0.3150 -0.3988
  113MOL    H2733851   3.383   4.741   6.693  2.2642  2.2644 -1.1252
  113MOL    H2833852   3.229   4.724   6.610 -0.1584  0.6999  0.2302
  113MOL    H2933853   3.503   4.670   6.467  0.3502 -0.4743 -0.5085
  113MOL    H3033854   3.331   4.657   6.411 -0.9774  0.2098  1.0706
  113MOL    H3133855   3.405   4.558   6.541  1.9703  0.5461  0.3693
  113MOL    C3233856   3.364   5.216   6.589 -0.1978 -0.5289  0.3326
  113MOL    C3333857   3.386   5.362   6.535  0.2650  0.4436 -0.3397
  113MOL    C3433858   3.414   5.351   6.377  0.5320 -0.3691 -0.5567
  113MOL    O3533859   3.488   5.270   6.332  0.3676 -0.0276 -0.2334
  113MOL    O3633860   3.341   5.438   6.303  0.1008 -0.2700 -0.1053
  113MOL    C3733861   3.360   5.448   6.165 -0.5074  0.1044  0.3070
  113MOL    C3833862   3.321   5.587   6.124 -0.4151  0.1151 -0.5071
  113MOL    H3933863   3.338   5.218   6.695  1.1853 -3.0953  0.7601
  113MOL    H4033864   3.457   5.160   6.572  0.3631  0.8815 -1.3790
  113MOL    H4133865   3.294   5.417   6.553  0.4676  1.0690 -1.1618
  113MOL    H4233866   3.464   5.427   6.140 -0.1867 -0.3554  1.9459
  113MOL    H4333867   3.308   5.367   6.114  0.3331  0.6506 -1.4375
  113MOL    H4433868   3.335   5.615   6.020  1.1205  0.0264 -0.3281
  113MOL    H4533869   3.376   5.658   6.186  0.9151 -0.2579 -1.2385
  113MOL    H4633870   3.215   5.610   6.133 -0.5697 -0.9131  0.4282
  113MOL    C4733871   3.515   5.427   6.598 -0.2112  0.6236 -0.3363
  113MOL    C4833872   3.520   5.451   6.751 -0.4515 -0.4935  0.0602
  113MOL    C4933873   3.399   5.537   6.803 -1.0717  0.0323 -0.1598
  113MOL    O5033874   3.347   5.629   6.736  0.2675  0.5453  0.3037
  113MOL    O5133875   3.379   5.526   6.931 -0.0399  0.2692 -0.0958
  113MOL    C5233876   3.296   5.612   7.011 -0.4405 -0.1069 -0.1141
  113MOL    C5333877   3.369   5.722   7.089 -0.6411 -0.2390  0.1694
  113MOL    H5433878   3.602   5.365   6.573 -1.0699 -0.3098 -1.0656
  113MOL    H5533879   3.529   5.527   6.557  1.3478  1.4399  2.1090
  113MOL    H5633880   3.515   5.349   6.792 -2.0203 -0.2104  0.6053
  113MOL    H5733881   3.232   5.670   6.944  1.5997  2.8063  0.3357
  113MOL    H5833882   3.242   5.544   7.077 -2.4608  1.1322 -0.4222
  113MOL    H5933883   3.425   5.677   7.170  0.8020  2.6948  0.8670
  113MOL    H6033884   3.303   5.799   7.130 -1.1593 -0.1516 -0.8110
  113MOL    H6133885   3.445   5.772   7.029 -0.6022 -1.2191 -0.6160
  113MOL    C6233886   3.662   5.511   6.776 -0.3623 -0.6975 -0.0925
  113MOL    C6333887   3.692   5.553   6.920  1.1818 -0.2185 -0.7264
  113MOL    C6433888   3.805   5.651   6.923  0.2635 -0.0113  0.0848
  113MOL    O6533889   3.786   5.773   6.910  0.6626 -0.2621  0.3171
  113MOL    O6633890   3.929   5.596   6.929  0.3449  0.3127  0.2378
  113MOL    C6733891   4.044   5.672   6.976 -0.2574 -0.1295  0.1047
  113MOL    C6833892   4.173   5.588   6.987 -0.5395 -0.2108  0.4196
  113MOL    H6933893   3.739   5.439   6.751  0.5337 -0.5934  2.2275
  113MOL    H7033894   3.672   5.595   6.707 -0.0171 -0.9073 -0.2940
  113MOL    H7133895   3.603   5.605   6.957  0.1074 -2.0230 -0.7017
  113MOL    H7233896   4.063   5.748   6.900  0.1176 -0.0525  0.2760
  113MOL    H7333897   4.035   5.725   7.071  2.0635  2.3334 -0.9874
  113MOL    H7433898   4.159   5.516   7.067  0.9408 -1.1544 -0.1521
  113MOL    H7533899   4.255   5.654   7.015 -0.0560 -0.5819 -0.1170
  113MOL    H7633900   4.187   5.529   6.897 -0.8456 -0.3621  0.4678
  113MOL    C7733901   3.710   5.427   7.006 -0.2229 -0.1368 -0.0405
  113MOL    C7833902   3.630   5.424   7.141 -0.2973 -0.0361 -0.1404
  113MOL    C7933903   3.697   5.505   7.252 -0.1836  0.1416 -0.8125
  113MOL    O8033904   3.645   5.600   7.303 -0.2836 -0.3285 -0.2411
  113MOL    O8133905   3.817   5.460   7.291 -0.6065 -0.0551 -0.1589
  113MOL    C8233906   3.886   5.511   7.408  0.2839  0.1375  0.2320
  113MOL    C8333907   3.973   5.402   7.453  0.9399 -0.0542 -0.3443
  113MOL    H8433908   3.678   5.338   6.951 -0.2914 -0.2867  0.2415
  113MOL    H8533909   3.815   5.397   7.013 -0.2948 -0.1023  1.2672
  113MOL    H8633910   3.534   5.476   7.133 -0.4709 -0.1814  0.9742
  113MOL    H8733911   3.940   5.603   7.387 -3.6124  2.9920  1.9879
  113MOL    H8833912   3.825   5.532   7.496  2.2916  0.9605  1.4505
  113MOL    H8933913   3.920   5.311   7.481  0.0530  0.7037  0.5050
  113MOL    H9033914   4.034   5.434   7.537 -1.9940  1.6550  1.2433
  113MOL    H9133915   4.039   5.369   7.373  1.9146  1.1890 -0.0775
  113MOL    C9233916   3.605   5.278   7.185  0.5099 -0.2587  0.7226
  113MOL    C9333917   3.493   5.205   7.108  0.0617  0.1979 -0.2579
  113MOL    C9433918   3.350   5.250   7.147 -0.2888  0.3471 -0.0701
  113MOL    O9533919   3.314   5.285   7.262 -0.1429  0.0567 -0.2100
  113MOL    O9633920   3.271   5.238   7.039  0.1882  0.2666  0.2194
  113MOL    C9733921   3.132   5.267   7.051  0.1351 -0.7300 -0.3771
  113MOL    C9833922   3.050   5.132   7.039 -0.3113  0.1396  0.0243
  113MOL    H9933923   3.695   5.218   7.175  0.5257 -0.0726 -0.3182
  113MOL   H10033924   3.578   5.270   7.290 -0.6897 -0.1181  0.4330
  113MOL   H10133925   3.504   5.231   7.002 -0.8277 -0.2317 -0.4636
  113MOL   H10233926   3.103   5.312   7.146  0.2617  0.0172 -0.6862
  113MOL   H10333927   3.118   5.342   6.973  1.4731  0.2790  0.3392
  113MOL   H10433928   3.062   5.100   6.936 -1.3259 -0.4195  0.0853
  113MOL   H10533929   2.946   5.159   7.054 -0.3883  0.0735 -0.3929
  113MOL   H10633930   3.077   5.054   7.110 -1.2490 -1.6219 -1.5346
  113MOL   C10733931   3.490   5.052   7.130 -0.3308 -0.5439 -0.3675
  113MOL   C10833932   3.449   4.969   7.008 -0.3354  0.3100  1.0636
  113MOL   C10933933   3.455   4.817   7.046  0.2591  0.1472 -0.3189
  113MOL   O11033934   3.514   4.772   7.145 -0.3111  0.2007 -0.7273
  113MOL   O11133935   3.398   4.744   6.951  0.4789  0.0031 -0.1222
  113MOL   C11233936   3.386   4.600   6.964  0.2696 -0.1801  0.2139
  113MOL   C11333937   3.501   4.532   6.894  0.0112  0.5479  0.1426
  113MOL   H11433938   3.590   5.028   7.166  0.5493  1.5433 -1.3989
  113MOL   H11533939   3.423   5.027   7.213  1.5370 -0.3875  1.2382
  113MOL   H11633940   3.342   4.976   6.988 -0.1704 -1.6984 -0.7488
  113MOL   H11733941   3.384   4.569   7.068 -0.2095 -0.2439  0.1842
  113MOL   H11833942   3.295   4.559   6.920  1.7335 -0.8440 -2.3602
  113MOL   H11933943   3.592   4.563   6.946  0.0451 -0.2240  0.5643
  113MOL   H12033944   3.507   4.571   6.793  0.4269 -1.3509 -0.6002
  113MOL   H12133945   3.489   4.423   6.899  0.0530  0.4856 -0.9558
  113MOL   C12233946   3.535   5.003   6.879 -0.3848 -0.5483 -0.4855
  113MOL   C12333947   3.685   5.030   6.883  0.4363  0.1755 -0.4123
  113MOL   C12433948   3.746   5.096   6.756 -0.9372  0.2815  0.4754
  113MOL   O12533949   3.806   5.200   6.764  0.5051 -0.2824 -0.0071
  113MOL   O12633950   3.731   5.022   6.650 -0.8791 -0.1361  0.1463
  113MOL   C12733951   3.751   5.066   6.516 -0.0815 -0.4028 -0.6387
  113MOL   C12833952   3.695   4.953   6.424  0.4535  0.2983  0.7539
  113MOL   H12933953   3.518   4.938   6.793  1.5442 -0.7084 -0.7776
  113MOL   H13033954   3.493   5.099   6.849 -0.5974  0.0568  1.6650
  113MOL   H13133955   3.706   5.097   6.966  1.8898  2.6055 -2.6747
  113MOL   H13233956   3.702   5.162   6.501  1.2757  0.3574 -0.3220
  113MOL   H13333957   3.854   5.096   6.494 -0.9357  1.0737 -2.8022
  113MOL   H13433958   3.777   4.886   6.397 -0.0751  0.0827 -0.3538
  113MOL   H13533959   3.642   4.993   6.337 -1.1709  2.8014  2.8452
  113MOL   H13633960   3.618   4.895   6.476 -1.9607 -0.1780 -3.1240
  113MOL   C13733961   3.765   4.901   6.902  0.4893 -0.9396 -0.0574
  113MOL   C13833962   3.911   4.908   6.951  0.0033  0.4888  0.0041
  113MOL   C13933963   4.007   4.807   6.874 -0.2293 -0.3484 -0.4647
  113MOL   O14033964   4.018   4.693   6.920  0.1969 -0.2030 -0.4143
  113MOL   O14133965   4.066   4.851   6.762 -0.0609 -0.3350  0.1441
  113MOL   C14233966   4.149   4.766   6.684 -0.5890 -0.0501  0.8425
  113MOL   C14333967   4.117   4.799   6.534 -0.0845 -0.6984  0.1459
  113MOL   H14433968   3.722   4.844   6.984  2.2825 -0.5472  1.1915
  113MOL   H14533969   3.751   4.831   6.820  0.4926 -1.4349  0.3656
  113MOL   H14633970   3.935   5.011   6.926  0.3159 -0.2327 -2.8289
  113MOL   H14733971   4.252   4.791   6.708 -0.1335 -3.2590  2.5441
  113MOL   H14833972   4.140   4.662   6.715  1.3049 -0.3370  0.4582
  113MOL   H14933973   4.147   4.900   6.508 -2.8129  0.0963  0.0003
  113MOL   H15033974   4.009   4.796   6.523  0.0915  0.2004 -2.1780
  113MOL   H15133975   4.179   4.730   6.475 -1.0176  0.7428 -2.6193
  113MOL   C15233976   3.912   4.881   7.104  0.2397 -0.2999  0.2669
  113MOL   C15333977   4.045   4.892   7.182 -0.4542  0.2869 -0.5490
  113MOL   C15433978   4.031   4.853   7.329 -0.5105  0.7802 -0.8182
  113MOL   O15533979   4.091   4.757   7.373  0.6230  0.4512  0.3359
  113MOL   O15633980   3.947   4.936   7.401  0.3291 -0.3736 -0.0209
  113MOL   C15733981   3.924   4.910   7.542  0.4440  0.0518  0.4437
  113MOL   C15833982   4.014   5.008   7.616 -1.0130 -0.4364 -0.5635
  113MOL   H15933983   3.855   4.953   7.162  1.3325  0.2033  0.7324
  113MOL   H16033984   3.862   4.788   7.132 -1.8735  1.1412  1.4335
  113MOL   H16133985   4.120   4.829   7.135  0.1797 -0.5200  1.4749
  113MOL   H16233986   3.817   4.928   7.554  0.6349 -0.0099  2.5847
  113MOL   H16333987   3.941   4.803   7.555  0.1084 -0.2107 -1.1867
  113MOL   H16433988   4.120   4.983   7.617 -0.9789 -0.4152  2.4883
  113MOL   H16533989   3.991   5.006   7.723 -1.0661 -0.0921 -0.5671
  113MOL   H16633990   3.997   5.111   7.585  0.3652  0.5709  1.8827
  113MOL   C16733991   4.102   5.033   7.185 -0.5340 -0.2519  0.3618
  113MOL   C16833992   4.237   5.059   7.262  0.2706 -0.0793  0.0599
  113MOL   C16933993   4.284   5.200   7.247  0.4209  0.3134 -0.2746
  113MOL   O17033994   4.252   5.269   7.151  0.1089  0.0434 -0.5469
  113MOL   O17133995   4.350   5.248   7.366  0.5915 -0.4307 -0.0764
  113MOL   C17233996   4.413   5.377   7.359 -0.2616 -0.5099 -0.4409
  113MOL   C17333997   4.305   5.491   7.371 -0.0875  0.8614 -0.2844
  113MOL   H17433998   4.113   5.066   7.081  0.0224 -2.1119 -0.2007
  113MOL   H17533999   4.019   5.098   7.210  0.1290  0.5819  0.4061
  113MOL   H17634000   4.218   5.050   7.369 -0.4139 -0.0506 -0.0578
  113MOL   H17734001   4.489   5.379   7.438  0.8195  1.4313 -1.5029
  113MOL   H17834002   4.470   5.387   7.267 -1.3987 -0.3227 -1.1256
  113MOL   H17934003   4.218   5.471   7.308  0.7536  0.0924 -1.2209
  113MOL   H18034004   4.353   5.584   7.342 -1.4016  2.1402  1.5560
  113MOL   H18134005   4.275   5.503   7.475  1.0448 -0.7173  0.2580
  113MOL   C18234006   4.351   4.954   7.242  0.1558  0.1775  0.9891
  113MOL   C18334007   4.464   4.967   7.129 -0.2000 -0.2746  0.3304
  113MOL   C18434008   4.398   4.962   6.989  0.2719  0.0020 -0.7258
  113MOL   O18534009   4.381   4.856   6.931  0.2400  0.1041  0.5929
  113MOL   O18634010   4.360   5.089   6.944  0.4409  0.4313 -0.0256
  113MOL   C18734011   4.267   5.088   6.839  0.4552 -0.7756 -0.0124
  113MOL   C18834012   4.209   5.232   6.827 -0.5472 -0.2410  0.4915
  113MOL   H18934013   4.405   4.936   7.334 -0.1510  2.0963  1.5599
  113MOL   H19034014   4.301   4.857   7.235 -1.1684  0.8278  1.2652
  113MOL   H19134015   4.521   5.060   7.124 -0.0665 -0.1281  3.5159
  113MOL   H19234016   4.299   5.055   6.741 -1.0268 -1.1225 -0.3914
  113MOL   H19334017   4.186   5.019   6.866  1.2886 -1.6881  0.1921
  113MOL   H19434018   4.128   5.260   6.894 -1.2621  2.5065 -1.4233
  113MOL   H19534019   4.167   5.241   6.727 -1.3074 -1.8128  0.6531
  113MOL   H19634020   4.292   5.301   6.833 -0.1570 -0.7850  1.5143
  113MOL   C19734021   4.567   4.849   7.142  0.0193 -0.2367 -0.2609
  113MOL   C19834022   4.638   4.817   7.281  0.0179  0.2511 -0.2261
  113MOL   C19934023   4.743   4.927   7.325  0.5422  0.1127  0.5138
  113MOL   O20034024   4.727   4.995   7.431  0.1618 -0.5146 -0.7118
  113MOL   O20134025   4.852   4.932   7.246  0.5137  0.2987 -0.9133
  113MOL   C20234026   4.962   5.021   7.283  0.3832  0.2883  0.2219
  113MOL   C20334027   4.999   5.114   7.163  0.1909 -0.0532  0.4764
  113MOL   H20434028   4.521   4.757   7.106 -0.0044  0.9394 -3.3230
  113MOL   H20534029   4.644   4.863   7.066  0.5634 -0.9554  0.1416
  113MOL   H20634030   4.561   4.819   7.358  1.5271 -0.1615  1.3292
  113MOL   H20734031   4.942   5.073   7.377  1.5775  0.0386  0.6189
  113MOL   H20834032   5.043   4.951   7.303  0.3163  0.1752  0.0978
  113MOL   H20934033   5.090   5.167   7.189  0.2292 -0.5798  1.4468
  113MOL   H21034034   4.929   5.197   7.153  2.1752  1.5319 -0.6588
  113MOL   H21134035   5.010   5.067   7.065  0.6701 -1.2474  1.0971
  113MOL   C21234036   4.701   4.671   7.286 -0.8068 -0.0366  0.2477
  113MOL   C21334037   4.592   4.557   7.290 -0.1067  0.4362 -0.1169
  113MOL   C21434038   4.543   4.533   7.434  0.2896  0.8483 -0.6829
  113MOL   O21534039   4.599   4.581   7.530 -0.7936  0.2506  0.3171
  113MOL   O21634040   4.435   4.462   7.430  0.6749 -0.6875  0.1124
  113MOL   C21734041   4.371   4.415   7.554  0.1890 -0.8307  0.2534
  113MOL   C21834042   4.271   4.504   7.623 -0.2776  0.0746  0.4981
  113MOL   H21934043   4.755   4.656   7.193  2.1062  1.2071  1.6709
  113MOL   H22034044   4.774   4.665   7.366  1.1316  1.0803 -1.4121
  113MOL   H22134045   4.503   4.596   7.241 -0.0614  0.7897  0.0805
  113MOL   H22234046   4.325   4.322   7.523  1.6743 -0.9597 -1.6886
  113MOL   H22334047   4.441   4.375   7.628 -0.1239 -1.3777  0.2549
  113MOL   H22434048   4.237   4.456   7.715  0.5527 -0.3134  0.6067
  113MOL   H22534049   4.184   4.525   7.561 -0.7707 -1.5856  0.5983
  113MOL   H22634050   4.322   4.591   7.663 -1.1321  0.5064  0.6377
  113MOL   C22734051   4.635   4.421   7.228 -0.1829  0.3902  0.0770
  113MOL   C22834052   4.690   4.409   7.079  0.2243  0.0717  0.1751
  113MOL   C22934053   4.603   4.506   6.991 -0.9808 -0.1539  1.2006
  113MOL   O23034054   4.640   4.614   6.944 -0.6161 -0.5278  0.1650
  113MOL   O23134055   4.485   4.451   6.964  0.3720  0.5040 -0.5055
  113MOL   C23234056   4.384   4.516   6.887  0.0537  0.5937 -0.7204
  113MOL   C23334057   4.286   4.411   6.826  0.3528  0.1705 -0.5075
  113MOL   H23434058   4.711   4.381   7.295  1.3714  2.5536 -0.3433
  113MOL   H23534059   4.551   4.354   7.243 -0.4828  0.9373  0.8368
  113MOL   H23634060   4.794   4.440   7.071  0.3892 -0.5141  0.0724
  113MOL   H23734061   4.317   4.582   6.942 -1.9752 -1.5237 -0.5784
  113MOL   H23834062   4.437   4.575   6.813  2.2109 -1.4485 -0.8583
  113MOL   H23934063   4.217   4.378   6.903  0.7292 -1.3224 -0.7854
  113MOL   H24034064   4.326   4.331   6.763  1.6645  2.3016 -2.4618
  113MOL   H24134065   4.224   4.466   6.756  0.3285 -0.3740 -0.9237
  113MOL   C24234066   4.695   4.267   7.023  0.2154  0.2335 -0.3270
  113MOL   C24334067   4.751   4.245   6.878 -0.2182  0.7527 -0.2877
  113MOL   C24434068   4.685   4.124   6.815  0.2021 -0.2250  0.2849
  113MOL   O24534069   4.622   4.132   6.713 -0.4210 -0.3294 -0.0618
  113MOL   O24634070   4.714   4.018   6.893  0.6281 -0.3286  0.7329
  113MOL   C24734071   4.699   3.887   6.837  0.6085  0.0428 -0.5144
  113MOL   C24834072   4.818   3.813   6.781 -0.1219 -0.5305  0.0240
  113MOL   H24934073   4.762   4.206   7.084  0.3219 -0.3494 -1.0265
  113MOL   H25034074   4.601   4.217   7.042  0.7581 -0.0880  1.5822
  113MOL   H25134075   4.704   4.327   6.826  0.0261  0.8938 -0.2848
  113MOL   H25234076   4.643   3.827   6.908 -0.1485 -0.4358 -1.5058
  113MOL   H25334077   4.629   3.892   6.754  0.3797  0.8792 -0.2802
  113MOL   H25434078   4.891   3.810   6.862  1.0611  2.7745 -0.8737
  113MOL   H25534079   4.852   3.877   6.699  0.3936  1.4374  1.7464
  113MOL   H25634080   4.786   3.714   6.747  0.7097 -1.1983  1.1386
  113MOL   C25734081   4.912   4.276   6.861  0.0619 -0.2311 -0.1904
  113MOL   C25834082   4.961   4.294   6.718 -0.2694 -0.4126  0.8243
  113MOL   C25934083   4.911   4.425   6.655 -0.2238 -0.1559 -0.3127
  113MOL   O26034084   4.988   4.520   6.649 -0.6612  0.3024 -0.3013
  113MOL   O26134085   4.780   4.422   6.612  0.4272 -0.1065 -0.0409
  113MOL   C26234086   4.721   4.545   6.559 -0.1639 -0.3008 -0.5373
  113MOL   C26334087   4.760   4.570   6.416 -0.7392 -0.0128  0.3841
  113MOL   H26434088   4.943   4.369   6.909  0.8038 -0.2527 -0.6288
  113MOL   H26534089   4.964   4.196   6.914  2.2717  2.2023  1.4426
  113MOL   H26634090   5.066   4.315   6.739 -0.9247 -0.1296  4.0762
  113MOL   H26734091   4.613   4.538   6.568  0.0024  0.2868  2.4031
  113MOL   H26834092   4.748   4.627   6.626 -1.9428  1.0981 -1.4935
  113MOL   H26934093   4.759   4.481   6.353  0.5987  0.6451 -0.5942
  113MOL   H27034094   4.866   4.595   6.413 -0.6257 -0.4401  0.7803
  113MOL   H27134095   4.698   4.649   6.374  2.9851  0.8634 -3.8084
  113MOL   C27234096   4.956   4.167   6.634 -0.5046 -0.1778  0.7856
  113MOL   C27334097   5.057   4.148   6.511  0.1420  0.4573 -0.5753
  113MOL   C27434098   5.199   4.140   6.564  0.6167  0.7005 -0.4745
  113MOL   O27534099   5.237   4.028   6.609 -0.0783 -0.4623  0.1918
  113MOL   O27634100   5.264   4.257   6.563 -0.7589  0.4724 -0.3232
  113MOL   C27734101   5.393   4.258   6.619 -0.6957  0.1786 -0.1496
  113MOL   C27834102   5.382   4.314   6.761 -0.1426  0.2946 -0.3169
  113MOL   H27934103   4.978   4.085   6.702  0.7056 -1.3836 -0.9909
  113MOL   H28034104   4.856   4.153   6.591  0.6237 -1.1202 -1.6154
  113MOL   H28134105   5.027   4.053   6.467 -1.3918  0.2282  0.8910
  113MOL   H28234106   5.437   4.159   6.608 -0.9087  0.0369  0.2436
  113MOL   H28334107   5.445   4.330   6.555 -3.3091 -0.9261 -3.6741
  113MOL   H28434108   5.478   4.311   6.814 -1.6495  2.6075  2.6961
  113MOL   H28534109   5.314   4.251   6.818 -1.4026  3.7251  2.1555
  113MOL   H28634110   5.339   4.413   6.778 -1.2369 -0.2808  0.3144
  113MOL   C28734111   5.027   4.252   6.403 -0.1933 -0.4683 -0.7100
  113MOL   C28834112   5.100   4.248   6.270 -0.3124 -0.8038 -0.5231
  113MOL   C28934113   5.049   4.141   6.176 -0.0633 -0.0133  0.5357
  113MOL   O29034114   4.944   4.160   6.115  0.0903 -0.2703  0.4089
  113MOL   O29134115   5.122   4.030   6.185 -0.4471  0.5670 -0.9650
  113MOL   C29234116   5.076   3.913   6.118 -0.2650 -0.7772 -0.9055
  113MOL   C29334117   5.156   3.892   5.997  0.0044 -0.1700 -0.3602
  113MOL   H29434118   4.919   4.246   6.389 -0.4569 -0.9285  1.3351
  113MOL   H29534119   5.037   4.355   6.437  1.3473 -1.3902  1.7267
  113MOL   H29634120   5.087   4.342   6.216  0.8758 -0.9294 -1.0512
  113MOL   H29734121   5.089   3.828   6.185  1.2112  0.9349  1.0121
  113MOL   H29834122   4.972   3.914   6.083 -0.6036  1.2563  0.0993
  113MOL   H29934123   5.111   3.808   5.945 -1.2124 -0.1440  0.6235
  113MOL   H30034124   5.260   3.871   6.022  0.4372  0.5176 -1.5429
  113MOL   H30134125   5.159   3.981   5.935  0.9707  0.2677  0.3002
  113MOL   H30234126   5.205   4.230   6.292  0.0000  0.8596 -0.6113
  114MOL     C134127   1.203   0.492   5.339 -0.2848 -0.5606 -0.4804
  114MOL     C234128   1.074   0.411   5.335 -0.2253 -0.7774 -0.6274
  114MOL     C334129   1.062   0.310   5.220  0.0772 -0.0361  0.1655
  114MOL     O434130   0.982   0.218   5.226  0.1205  0.2431 -0.3454
  114MOL     O534131   1.132   0.344   5.112 -0.2810 -0.3651  0.3620
  114MOL     C634132   1.111   0.271   4.990 -0.7819 -0.5257  0.0832
  114MOL     C734133   0.994   0.326   4.908  0.3286  0.4301  0.0701
  114MOL     H834134   1.205   0.545   5.243 -1.3527  1.6810  0.6972
  114MOL     H934135   1.297   0.438   5.346 -1.1151 -1.7771  1.6276
  114MOL    H1034136   1.081   0.342   5.419 -1.6144 -2.0390 -1.5171
  114MOL    H1134137   1.207   0.262   4.939 -0.3918 -2.5240  1.0743
  114MOL    H1234138   1.085   0.170   5.022 -2.3775  0.5531  2.3317
  114MOL    H1334139   0.985   0.283   4.808 -1.5341  1.4718 -0.2329
  114MOL    H1434140   1.000   0.432   4.884  0.1905  0.9598  2.2753
  114MOL    H1534141   0.894   0.309   4.948  0.3395  0.7846  0.2411
  114MOL    H1634142   1.189   0.575   5.409 -3.1465 -0.3706 -1.2101
  114MOL    C1734143   0.943   0.493   5.350 -0.0447 -0.0479  0.0685
  114MOL    C1834144   0.919   0.629   5.284 -0.0059 -0.0307  0.1963
  114MOL    C1934145   0.786   0.709   5.330 -0.3262  0.3502 -0.8788
  114MOL    O2034146   0.789   0.830   5.356 -0.0266 -0.2164  0.0225
  114MOL    O2134147   0.672   0.633   5.344 -0.1040 -0.2721 -0.4103
  114MOL    C2234148   0.547   0.699   5.361 -0.3686 -1.0120  1.1859
  114MOL    C2334149   0.481   0.692   5.220 -0.0648 -0.4424 -0.7365
  114MOL    H2434150   0.856   0.429   5.331  0.8873 -2.1059  2.4880
  114MOL    H2534151   0.926   0.513   5.456 -1.3905 -2.5366  0.3558
  114MOL    H2634152   0.995   0.696   5.325  0.9397 -0.3601 -0.9925
  114MOL    H2734153   0.484   0.662   5.441  0.7946  0.4871  2.8492
  114MOL    H2834154   0.573   0.798   5.398  0.5319 -0.7580 -0.0913
  114MOL    H2934155   0.462   0.591   5.185 -2.3332  1.2802 -4.8488
  114MOL    H3034156   0.554   0.749   5.162  0.2280  0.5563  0.5634
  114MOL    H3134157   0.391   0.753   5.214 -0.2632 -0.3950  1.9831
  114MOL    C3234158   0.930   0.634   5.130 -0.2841  0.6039 -0.7478
  114MOL    C3334159   0.917   0.774   5.058 -0.2289 -0.2572 -0.1595
  114MOL    C3434160   0.925   0.758   4.906  0.2374 -0.2864 -0.6259
  114MOL    O3534161   1.031   0.787   4.844  0.2628  0.0452 -0.3472
  114MOL    O3634162   0.804   0.717   4.863 -0.1276  0.2750 -0.3667
  114MOL    C3734163   0.770   0.711   4.721 -0.1050 -0.2830  0.6565
  114MOL    C3834164   0.852   0.607   4.641 -0.6579 -0.1440 -0.0479
  114MOL    H3934165   1.028   0.593   5.106 -0.6737 -1.3671  0.9099
  114MOL    H4034166   0.860   0.566   5.081 -1.2759  0.6023  0.6400
  114MOL    H4134167   0.821   0.813   5.092 -0.1350 -0.3816  0.2492
  114MOL    H4234168   0.662   0.696   4.723 -0.1122 -0.1794  0.9709
  114MOL    H4334169   0.781   0.810   4.677  0.8958 -0.0837  1.3350
  114MOL    H4434170   0.854   0.505   4.681  0.7679 -0.5257 -1.0558
  114MOL    H4534171   0.959   0.626   4.643 -0.9440  1.5339 -0.1576
  114MOL    H4634172   0.818   0.588   4.539  0.1341  0.6549 -0.4686
  114MOL    C4734173   1.008   0.884   5.116 -0.4995  0.3307  0.3372
  114MOL    C4834174   0.997   1.029   5.063  0.8267  0.1932 -0.1796
  114MOL    C4934175   1.127   1.108   5.093 -0.5614  0.1447  0.2376
  114MOL    O5034176   1.211   1.075   5.176 -0.3895  0.3921 -1.1615
  114MOL    O5134177   1.138   1.221   5.009 -0.5026 -0.8043  0.6643
  114MOL    C5234178   1.251   1.309   5.017  0.4354 -0.1816 -0.2228
  114MOL    C5334179   1.370   1.229   4.952 -0.2387 -0.2164  0.2925
  114MOL    H5434180   0.998   0.879   5.225 -0.3993 -2.7975  0.2316
  114MOL    H5534181   1.107   0.840   5.103 -1.5288 -1.4718 -1.7341
  114MOL    H5634182   0.992   1.018   4.955  2.7717 -1.7712 -0.1002
  114MOL    H5734183   1.226   1.409   4.983 -1.6344 -0.9469 -1.0350
  114MOL    H5834184   1.275   1.327   5.122  0.4955  0.3077 -0.3186
  114MOL    H5934185   1.346   1.223   4.846 -0.5415 -1.5797  0.4244
  114MOL    H6034186   1.399   1.133   4.994  2.9286  2.1866  3.9173
  114MOL    H6134187   1.457   1.293   4.964 -0.3096  0.2720 -1.7102
  114MOL    C6234188   0.869   1.099   5.107 -0.1332 -0.5627 -0.6761
  114MOL    C6334189   0.753   1.087   5.007 -0.0166  0.2456 -0.7055
  114MOL    C6434190   0.755   1.206   4.904  0.2883  0.2310 -0.2995
  114MOL    O6534191   0.678   1.301   4.907  0.0463 -0.1077  0.2482
  114MOL    O6634192   0.855   1.179   4.814  0.2121  0.0409  0.0413
  114MOL    C6734193   0.870   1.253   4.691 -0.7375 -0.1904  0.2523
  114MOL    C6834194   0.768   1.197   4.588 -0.0959 -0.2907 -0.4429
  114MOL    H6934195   0.847   1.061   5.207  0.1653  0.1275 -0.3436
  114MOL    H7034196   0.897   1.204   5.117  1.2886 -0.9619 -0.2923
  114MOL    H7134197   0.768   0.992   4.956  0.9233 -0.3890  0.7175
  114MOL    H7234198   0.868   1.361   4.701 -1.1615 -0.1347 -0.3541
  114MOL    H7334199   0.965   1.220   4.648  0.7574  1.8195  1.9472
  114MOL    H7434200   0.786   1.243   4.491 -1.6511  0.8504 -0.1895
  114MOL    H7534201   0.665   1.195   4.623  0.8670 -2.3426  2.4544
  114MOL    H7634202   0.785   1.091   4.565 -1.2508 -0.0766 -2.4000
  114MOL    C7734203   0.617   1.083   5.072  0.7629  0.2247 -0.5620
  114MOL    C7834204   0.490   1.066   4.982  0.3249 -0.1705 -0.4859
  114MOL    C7934205   0.363   1.084   5.061  0.0932 -0.2286 -0.0199
  114MOL    O8034206   0.318   0.992   5.133 -0.0573  0.0878 -0.2589
  114MOL    O8134207   0.312   1.209   5.061 -0.4273 -0.1975 -0.4582
  114MOL    C8234208   0.176   1.218   5.109  0.4509  0.4385 -0.6116
  114MOL    C8334209   0.127   1.358   5.099 -0.0956  0.1998  0.7972
  114MOL    H8434210   0.630   1.008   5.149 -0.1388 -0.5930 -1.1937
  114MOL    H8534211   0.590   1.172   5.129  0.4043 -0.5543  0.4890
  114MOL    H8634212   0.491   1.145   4.907  0.1791  0.9142  0.6304
  114MOL    H8734213   0.108   1.158   5.049 -1.4358 -1.2256  3.0201
  114MOL    H8834214   0.177   1.181   5.212 -0.2941 -3.0922 -1.7842
  114MOL    H8934215   0.025   1.371   5.136  0.0118  0.0274  1.1559
  114MOL    H9034216   0.145   1.394   4.998 -0.2887  1.2415  1.1332
  114MOL    H9134217   0.185   1.425   5.163 -0.9055  1.2953  0.4053
  114MOL    C9234218   0.492   0.938   4.897  0.2561  0.4243  0.3359
  114MOL    C9334219   0.370   0.915   4.796 -0.0385 -0.3065 -0.4542
  114MOL    C9434220   0.362   1.044   4.699 -0.4824 -0.1979  0.2462
  114MOL    O9534221   0.451   1.058   4.613 -0.1490 -0.7336 -0.0842
  114MOL    O9634222   0.254   1.121   4.723 -0.9603  0.1806  0.1244
  114MOL    C9734223   0.272   1.257   4.687 -0.0338 -0.1501 -0.0208
  114MOL    C9834224   0.131   1.320   4.696  0.5287 -0.4852 -0.1413
  114MOL    H9934225   0.575   0.948   4.827 -0.9292  1.3035 -0.9689
  114MOL   H10034226   0.509   0.852   4.961 -0.9088  1.2910  1.8385
  114MOL   H10134227   0.406   0.836   4.731 -0.9661 -0.8347 -0.3271
  114MOL   H10234228   0.339   1.320   4.747  0.5460  0.3640 -1.1850
  114MOL   H10334229   0.309   1.273   4.586 -0.6616  1.9376  0.0516
  114MOL   H10434230   0.065   1.261   4.631  0.4093 -0.6208  0.1019
  114MOL   H10534231   0.130   1.422   4.660  0.2856 -0.1316  0.8561
  114MOL   H10634232   0.091   1.322   4.798 -0.2581  0.2933 -0.4547
  114MOL   C10734233   0.230   0.876   4.843  0.5659  0.2412 -0.5028
  114MOL   C10834234   0.221   0.739   4.921 -0.1813  0.8740  0.2888
  114MOL   C10934235   0.276   0.623   4.836 -0.1469 -0.3361  0.3454
  114MOL   O11034236   0.209   0.576   4.744  0.0250 -0.0168  0.5035
  114MOL   O11134237   0.399   0.591   4.872 -0.2591 -0.3390  0.4349
  114MOL   C11234238   0.461   0.470   4.825  0.4974 -0.5593  0.0806
  114MOL   C11334239   0.599   0.456   4.896  0.0571  0.3496 -0.1829
  114MOL   H11434240   0.183   0.956   4.901  0.4477 -0.8158  0.9030
  114MOL   H11534241   0.166   0.856   4.757  0.7001 -0.1705 -0.5082
  114MOL   H11634242   0.279   0.735   5.014 -3.1340 -3.1779  2.0843
  114MOL   H11734243   0.408   0.376   4.836  0.2761 -0.2361  1.9239
  114MOL   H11834244   0.473   0.485   4.717  1.1704  0.2936  0.2716
  114MOL   H11934245   0.631   0.551   4.938 -0.0257  1.0031 -1.5931
  114MOL   H12034246   0.672   0.413   4.828  0.0565  0.5749 -0.3254
  114MOL   H12134247   0.596   0.394   4.986 -2.3284 -0.2273 -0.6203
  114MOL   C12234248   0.074   0.711   4.972  0.3139 -0.3461  0.5642
  114MOL   C12334249   0.017   0.784   5.101 -0.5743  0.7229  0.1197
  114MOL   C12434250   0.102   0.757   5.229 -0.0576  0.8670  0.0162
  114MOL   O12534251   0.166   0.652   5.248  0.3364  0.2610 -0.0452
  114MOL   O12634252   0.086   0.858   5.320  0.5747 -0.1424  0.1969
  114MOL   C12734253   0.143   0.847   5.451 -0.3622 -0.1750 -0.0799
  114MOL   C12834254   0.125   0.982   5.521 -0.2770 -0.1177 -0.2701
  114MOL   H12934255   0.010   0.722   4.884  2.1472 -1.0857 -0.9045
  114MOL   H13034256   0.072   0.604   4.993 -2.1609 -0.7223 -1.3777
  114MOL   H13134257   0.024   0.890   5.077 -1.8463  1.4848  2.9246
  114MOL   H13234258   0.100   0.772   5.517 -0.2267  0.6090  0.8918
  114MOL   H13334259   0.251   0.833   5.442 -0.1637 -0.6595  2.5914
  114MOL   H13434260   0.017   0.998   5.523 -0.0754  1.3412 -0.0442
  114MOL   H13534261   0.172   1.065   5.468  1.0414 -0.9367 -0.3949
  114MOL   H13634262   0.153   0.989   5.627 -0.9714 -0.8573 -0.0325
  114MOL   C13734263   7.778   0.758   5.135 -0.2397 -0.3270  0.2348
  114MOL   C13834264   7.676   0.862   5.080 -0.8369  0.3450  0.8330
  114MOL   C13934265   7.683   0.976   5.172  0.4088  0.2830  0.2239
  114MOL   O14034266   7.744   1.083   5.141  0.0819  0.4504 -0.8061
  114MOL   O14134267   7.608   0.960   5.280 -0.6545 -1.0512 -0.5364
  114MOL   C14234268   7.610   1.062   5.385  0.1477 -0.2117 -0.2716
  114MOL   C14334269   7.570   1.011   5.524 -0.5134 -0.4564 -0.1030
  114MOL   H14434270   7.765   0.666   5.079 -1.0324  0.6755 -1.2807
  114MOL   H14534271   7.766   0.734   5.240 -0.6617 -0.9222  0.0521
  114MOL   H14634272   7.706   0.883   4.977  0.4753 -0.1394  1.1068
  114MOL   H14734273   7.708   1.109   5.398 -0.1348  0.5261 -0.7851
  114MOL   H14834274   7.540   1.141   5.358  0.2881  0.9040  2.4405
  114MOL   H14934275   7.643   0.942   5.567 -1.4531 -1.7962 -0.6220
  114MOL   H15034276   7.474   0.960   5.522 -2.2316  2.6630 -0.0802
  114MOL   H15134277   7.549   1.092   5.594  1.7725 -1.7482  2.2068
  114MOL   C15234278   7.528   0.810   5.062  0.8190  0.6022 -0.2906
  114MOL   C15334279   7.509   0.711   4.944 -0.5849 -0.7651 -0.3993
  114MOL   C15434280   7.490   0.791   4.814 -0.9692 -0.0958 -0.2440
  114MOL   O15534281   7.410   0.762   4.726 -0.4988  0.4458  0.0224
  114MOL   O15634282   7.578   0.892   4.801  0.0324  0.2891 -0.1606
  114MOL   C15734283   7.578   0.959   4.679 -0.4774 -0.1120 -0.2461
  114MOL   C15834284   7.641   1.097   4.696 -0.1408 -0.1775 -0.4165
  114MOL   H15934285   7.493   0.750   5.146 -1.2014  1.7286 -0.3043
  114MOL   H16034286   7.452   0.888   5.059  0.9621  0.8188  1.0761
  114MOL   H16134287   7.607   0.664   4.930  0.1290  0.6948 -0.3958
  114MOL   H16234288   7.640   0.907   4.606 -0.4818 -0.6615  0.1436
  114MOL   H16334289   7.480   0.966   4.631 -1.0189 -3.0753  0.3170
  114MOL   H16434290   7.740   1.086   4.740 -0.5924 -2.1662  0.1873
  114MOL   H16534291   7.585   1.165   4.760  0.6491 -1.4636  1.6851
  114MOL   H16634292   7.650   1.144   4.598  0.4334 -2.1972 -1.3601
  114MOL   C16734293   7.407   0.597   4.958  1.3861 -0.5602 -0.5496
  114MOL   C16834294   7.433   0.471   4.872 -0.6034  0.3488  0.3725
  114MOL   C16934295   7.302   0.416   4.820 -0.0211  0.1703 -0.1844
  114MOL   O17034296   7.283   0.384   4.700  0.2901  0.5451  0.1679
  114MOL   O17134297   7.207   0.408   4.920  0.0133 -0.2301  0.9200
  114MOL   C17234298   7.069   0.398   4.883 -0.2157  0.4400  0.3741
  114MOL   C17334299   6.990   0.374   5.014  0.9795 -0.4914  0.9065
  114MOL   H17434300   7.413   0.573   5.064 -0.8637  0.1246 -0.2401
  114MOL   H17534301   7.309   0.641   4.941  1.4722 -0.4318 -0.7237
  114MOL   H17634302   7.476   0.502   4.777  0.0289 -2.0759 -0.1623
  114MOL   H17734303   7.027   0.486   4.834 -0.2735  0.3984  0.3501
  114MOL   H17834304   7.064   0.313   4.815  1.2989  0.1187  0.6426
  114MOL   H17934305   7.021   0.287   5.071 -0.8487 -1.1146  0.9773
  114MOL   H18034306   6.887   0.348   4.992  0.5839  1.6447  0.1324
  114MOL   H18134307   6.996   0.455   5.086 -3.2667 -1.5563  2.5500
  114MOL   C18234308   7.510   0.361   4.953  0.6433  0.8018  0.2784
  114MOL   C18334309   7.602   0.261   4.875  0.7258 -0.3598  0.3853
  114MOL   C18434310   7.717   0.336   4.798 -1.0068  0.3383  0.2061
  114MOL   O18534311   7.830   0.348   4.852  0.2880  0.2643  0.0534
  114MOL   O18634312   7.678   0.384   4.681  0.4374 -0.2582  0.1224
  114MOL   C18734313   7.759   0.452   4.596 -0.7070 -0.4525  0.4646
  114MOL   C18834314   7.679   0.568   4.541 -0.0373 -0.4857 -0.5720
  114MOL   H18934315   7.585   0.431   4.990  1.1986  1.3171 -1.7396
  114MOL   H19034316   7.461   0.311   5.036 -0.2486 -1.4264 -1.5227
  114MOL   H19134317   7.657   0.215   4.958  0.5030  0.7618  1.1677
  114MOL   H19234318   7.856   0.486   4.633 -1.9459  1.2846  2.2116
  114MOL   H19334319   7.783   0.388   4.511  0.4282  0.3190  0.1873
  114MOL   H19434320   7.662   0.652   4.609  1.1216  0.6321 -1.6332
  114MOL   H19534321   7.578   0.539   4.510 -1.3050  0.7502  2.2400
  114MOL   H19634322   7.738   0.617   4.462 -0.3890 -1.0576 -1.1953
  114MOL   C19734323   7.529   0.152   4.797 -0.3670 -0.4969 -0.0696
  114MOL   C19834324   7.608   0.019   4.768  0.5472  0.2703  0.3100
  114MOL   C19934325   7.619   7.844   4.892  0.7951  0.6349 -0.3100
  114MOL   O20034326   7.694   7.881   4.980  0.3282  0.0266  0.3336
  114MOL   O20134327   7.548   7.729   4.889  0.1251 -0.6065 -0.4831
  114MOL   C20234328   7.552   7.633   4.990  0.0821 -0.1598 -0.6362
  114MOL   C20334329   7.530   7.502   4.910 -0.0615 -0.1835  0.0504
  114MOL   H20434330   7.434   0.124   4.842 -1.0412 -1.5971 -2.1068
  114MOL   H20534331   7.514   0.185   4.694  1.2556  0.2345 -0.0879
  114MOL   H20634332   7.542   7.860   4.712  0.1460  2.2137 -1.6269
  114MOL   H20734333   7.652   7.625   5.034  0.1697  0.4562 -0.7194
  114MOL   H20834334   7.474   7.658   5.062  0.9036  0.4816  0.0631
  114MOL   H20934335   7.507   7.406   4.958 -0.8688  0.5639  1.1845
  114MOL   H21034336   7.608   7.484   4.837  0.9200  1.2870  0.7114
  114MOL   H21134337   7.451   7.520   4.838  0.3102  3.2459  0.4274
  114MOL   C21234338   7.740   0.031   4.684  0.1681 -0.5816  0.4284
  114MOL   C21334339   7.782   7.808   4.607  0.0734  0.0712  0.6419
  114MOL   C21434340   7.845   7.708   4.706  0.2855  0.1576 -0.1938
  114MOL   O21534341   7.809   7.588   4.708  0.2655  0.4533  0.7728
  114MOL   O21634342   0.037   7.763   4.771 -0.2276  0.0073  0.1149
  114MOL   C21734343   0.128   7.681   4.848 -0.8232 -0.0290 -0.4399
  114MOL   C21834344   0.218   7.779   4.928 -0.4447  0.1769 -0.0465
  114MOL   H21934345   7.717   0.102   4.604 -0.4506 -1.0998  0.1469
  114MOL   H22034346   7.815   0.070   4.753  2.2384 -2.3322 -0.7634
  114MOL   H22134347   7.694   7.756   4.571  1.0263 -0.0538 -1.5996
  114MOL   H22234348   0.065   7.628   4.920 -0.8419 -0.4082 -0.7355
  114MOL   H22334349   0.186   7.617   4.781 -1.6240 -0.0023 -1.1640
  114MOL   H22434350   0.290   7.823   4.859 -0.0773  1.3063  1.0393
  114MOL   H22534351   0.282   7.725   4.997 -2.0038 -0.6730  0.7816
  114MOL   H22634352   0.163   7.848   4.993 -0.6732  1.3434 -1.4510
  114MOL   C22734353   7.882   7.827   4.485 -0.1988  0.2559  0.1274
  114MOL   C22834354   7.823   7.814   4.347  0.4586  0.3014  0.0172
  114MOL   C22934355   7.801   7.665   4.306  0.2338 -0.8384  0.1051
  114MOL   O23034356   7.863   7.571   4.357 -0.7542  0.3286  0.3135
  114MOL   O23134357   7.708   7.665   4.208 -0.5673  0.4914  0.1082
  114MOL   C23234358   7.658   7.548   4.153 -0.2619 -1.0925  0.1198
  114MOL   C23334359   7.518   7.588   4.110  0.8846  0.2544  0.1675
  114MOL   H23434360   0.008   0.021   4.498 -0.2832  0.1782  0.9946
  114MOL   H23534361   0.064   7.766   4.482 -1.1381 -1.1329 -1.3524
  114MOL   H23634362   7.725   7.861   4.351 -0.1578 -0.8931 -0.5187
  114MOL   H23734363   7.720   7.528   4.065 -0.2184 -0.1533 -0.0748
  114MOL   H23834364   7.652   7.467   4.225 -0.9956 -0.9946  0.1673
  114MOL   H23934365   7.469   7.499   4.071  1.0587 -0.7609  2.1958
  114MOL   H24034366   7.527   7.668   4.036  1.8800 -0.5321 -0.5788
  114MOL   H24134367   7.456   7.616   4.195 -1.1804 -1.4968 -0.7309
  114MOL   C24234368   7.906   7.898   4.255  0.4275 -1.0105  0.0700
  114MOL   C24334369   7.858   0.141   4.254 -0.2618 -0.2039  0.1929
  114MOL   C24434370   7.718   0.153   4.199  0.4967  0.1562  0.2287
  114MOL   O24534371   7.676   0.087   4.102  0.7299  0.3855  0.0828
  114MOL   O24634372   7.645   0.220   4.283 -0.3541  0.0925  0.2530
  114MOL   C24734373   7.505   0.228   4.266 -0.1805 -0.1859 -0.1717
  114MOL   C24834374   7.452   0.278   4.398  0.0017 -0.4731  0.5555
  114MOL   H24934375   0.105   7.899   4.273  0.2879  1.4241  0.8241
  114MOL   H25034376   7.888   7.857   4.155 -0.2075  0.8361 -0.5810
  114MOL   H25134377   7.859   0.180   4.355 -2.1880  2.4908 -0.7720
  114MOL   H25234378   7.481   0.288   4.178 -1.3714 -2.4841 -1.4726
  114MOL   H25334379   7.477   0.125   4.243  0.8544 -0.1375 -1.6860
  114MOL   H25434380   7.344   0.290   4.400  0.1985  1.3362  2.2996
  114MOL   H25534381   7.506   0.371   4.416  0.4987 -0.6822  0.1622
  114MOL   H25634382   7.469   0.218   4.487 -0.0249  0.6643  1.3378
  114MOL   C25734383   0.041   0.222   4.160 -0.8655  0.4692  0.0288
  114MOL   C25834384   0.192   0.250   4.207 -0.1068 -0.4581 -0.2054
  114MOL   C25934385   0.203   0.321   4.343  0.0945  0.1541 -0.9784
  114MOL   O26034386   0.232   0.440   4.348 -0.0242 -0.6838  0.1062
  114MOL   O26134387   0.177   0.247   4.450  0.0078 -0.2214 -0.1296
  114MOL   C26234388   0.202   0.303   4.577 -0.4790  0.0545 -0.3194
  114MOL   C26334389   0.216   0.210   4.696  0.1595  0.2594 -0.3229
  114MOL   H26434390   0.033   0.183   4.058  1.0017 -0.1871  0.1009
  114MOL   H26534391   0.003   0.322   4.177 -1.8647  0.1636 -0.4064
  114MOL   H26634392   0.244   0.157   4.227  0.9153  0.5464  1.8515
  114MOL   H26734393   0.301   0.348   4.572 -0.0305 -1.0386 -1.4848
  114MOL   H26834394   0.140   0.392   4.593 -0.0515  0.5727 -1.5391
  114MOL   H26934395   0.311   0.158   4.691 -0.8342 -1.6405 -0.0729
  114MOL   H27034396   0.136   0.137   4.707  0.7273 -0.4009 -0.5680
  114MOL   H27134397   0.204   0.264   4.790 -1.0796  0.5443 -0.6283
  114MOL   C27234398   0.273   0.307   4.091 -0.3702 -0.1156  0.4282
  114MOL   C27334399   0.424   0.317   4.110 -0.0475  0.0200  0.6934
  114MOL   C27434400   0.484   0.406   4.002 -0.3599 -0.7827 -0.4596
  114MOL   O27534401   0.420   0.431   3.903 -0.6837  0.4002 -0.4813
  114MOL   O27634402   0.598   0.455   4.034 -0.5739  0.2752  0.3327
  114MOL   C27734403   0.656   0.541   3.944  1.1454 -1.4090 -0.4669
  114MOL   C27834404   0.766   0.470   3.864 -0.5115  0.0869  0.4996
  114MOL   H27934405   0.257   0.245   4.003 -1.3703  0.9714 -0.1724
  114MOL   H28034406   0.243   0.407   4.060 -2.0850  0.2198  2.9617
  114MOL   H28134407   0.442   0.375   4.200 -0.3153  1.7974 -0.3618
  114MOL   H28234408   0.579   0.580   3.877  1.5780  1.2022  0.4755
  114MOL   H28334409   0.688   0.638   3.982  0.5377 -0.9426 -1.1306
  114MOL   H28434410   0.814   0.400   3.933  0.2781  0.0099 -0.1178
  114MOL   H28534411   0.833   0.542   3.816  0.2043 -0.9694 -0.0991
  114MOL   H28634412   0.733   0.408   3.781  0.3480 -2.7267  2.1653
  114MOL   C28734413   0.492   0.180   4.112  0.4808  0.6054 -0.1154
  114MOL   C28834414   0.641   0.176   4.155 -0.5686  0.2008 -0.7590
  114MOL   C28934415   0.672   0.185   4.305  0.8175 -0.2483 -0.2972
  114MOL   O29034416   0.750   0.270   4.342  0.1150  0.4107 -0.0826
  114MOL   O29134417   0.593   0.109   4.389 -0.9661 -0.3628 -0.2583
  114MOL   C29234418   0.644   0.097   4.522 -0.4028 -0.1203  0.0603
  114MOL   C29334419   0.560   7.892   4.594 -0.3198  0.0968 -0.4012
  114MOL   H29434420   0.436   0.117   4.181  2.2392  0.0121  0.8029
  114MOL   H29534421   0.485   0.124   4.019  0.6215  1.7722 -0.8430
  114MOL   H29634422   0.677   0.080   4.118  2.6590  1.3596 -0.7883
  114MOL   H29734423   0.747   0.068   4.502 -0.2467  0.8239 -0.5334
  114MOL   H29834424   0.656   0.184   4.586  0.1038  0.2189 -0.4938
  114MOL   H29934425   0.569   7.886   4.703 -1.5887 -2.6104 -0.4132
  114MOL   H30034426   0.598   7.792   4.574  1.7106  0.4994  1.1986
  114MOL   H30134427   0.453   7.905   4.576  0.4672  1.6722 -4.4286
  114MOL   H30234428   0.691   0.256   4.101 -3.3298  0.3425 -3.2681
  115MOL     C134429   2.153   0.243   6.192  0.0924 -0.3942  0.0347
  115MOL     C234430   2.050   0.248   6.303  0.6686  0.4141  0.0067
  115MOL     C334431   2.097   0.169   6.430 -0.0646  0.1436 -0.1110
  115MOL     O434432   2.152   0.225   6.528 -0.3644  0.1426 -0.1747
  115MOL     O534433   2.066   0.039   6.422 -0.5464 -0.0508  0.1285
  115MOL     C634434   2.101   7.861   6.525  0.0222  0.5918 -0.3056
  115MOL     C734435   2.000   7.869   6.633  0.7693 -0.0290  0.0376
  115MOL     H834436   2.115   0.304   6.110 -3.1493  2.1643  3.2726
  115MOL     H934437   2.168   0.142   6.155 -0.4764 -0.4068 -0.1704
  115MOL    H1034438   2.031   0.348   6.343 -0.2020 -1.0980  3.6298
  115MOL    H1134439   2.086   7.765   6.475 -0.2817  0.4180  0.1145
  115MOL    H1234440   2.200   7.870   6.571 -1.2762  1.5358  2.3939
  115MOL    H1334441   1.996   7.782   6.698 -2.7142  0.5640  0.6962
  115MOL    H1434442   1.901   7.889   6.594  0.6796 -0.6560 -0.0564
  115MOL    H1534443   2.023   0.048   6.694 -1.5879 -0.3966  1.5062
  115MOL    H1634444   2.237   0.291   6.241 -2.2767  2.0734  1.8334
  115MOL    C1734445   1.905   0.211   6.254  0.8405  0.1638 -0.1996
  115MOL    C1834446   1.799   0.286   6.333 -0.2139  0.1570 -0.3666
  115MOL    C1934447   1.694   0.186   6.399 -0.1567 -0.0299  0.0250
  115MOL    O2034448   1.700   0.062   6.395  0.2439 -0.1992  0.2248
  115MOL    O2134449   1.610   0.252   6.481  1.0092 -0.0705  0.3811
  115MOL    C2234450   1.515   0.174   6.543  0.6082 -0.5902  0.5264
  115MOL    C2334451   1.436   0.248   6.646 -0.1890  0.7920  0.9138
  115MOL    H2434452   1.901   0.248   6.152 -0.5547  0.1644 -0.1608
  115MOL    H2534453   1.884   0.104   6.251 -0.8636  0.3941  2.0224
  115MOL    H2634454   1.844   0.332   6.420  0.2637 -1.7461  0.4309
  115MOL    H2734455   1.450   0.140   6.462  0.6156  1.2657 -0.3079
  115MOL    H2834456   1.552   0.079   6.580 -1.5806 -1.6538  0.0693
  115MOL    H2934457   1.372   0.189   6.712  0.3839  0.4617  1.1782
  115MOL    H3034458   1.377   0.318   6.587  1.3875  1.3880  0.0253
  115MOL    H3134459   1.510   0.312   6.693 -1.2373  2.5004  0.2883
  115MOL    C3234460   1.731   0.393   6.240  0.8766 -0.0768 -1.1011
  115MOL    C3334461   1.817   0.521   6.229 -0.0187 -0.2713 -0.3314
  115MOL    C3434462   1.845   0.607   6.348 -0.3144 -1.0604  0.3378
  115MOL    O3534463   1.951   0.607   6.413 -0.1682 -0.0636  0.2628
  115MOL    O3634464   1.737   0.680   6.385  0.2074 -0.2699  0.1015
  115MOL    C3734465   1.739   0.755   6.500  0.6770 -0.3056 -0.4018
  115MOL    C3834466   1.812   0.891   6.483 -0.7574 -0.4408  0.1038
  115MOL    H3934467   1.696   0.354   6.144  2.6944 -0.1469 -1.7647
  115MOL    H4034468   1.643   0.426   6.294  2.9238  0.5229  2.0191
  115MOL    H4134469   1.913   0.481   6.197 -1.9512 -0.7146 -6.1379
  115MOL    H4234470   1.632   0.757   6.519  0.1640  1.1554 -3.3216
  115MOL    H4334471   1.790   0.702   6.581 -1.3018  0.2583  1.2611
  115MOL    H4434472   1.919   0.872   6.480 -0.3782  1.6215  0.3023
  115MOL    H4534473   1.785   0.953   6.568 -0.5477 -0.3602  0.1113
  115MOL    H4634474   1.786   0.941   6.390 -0.3379  2.7723  1.6592
  115MOL    C4734475   1.766   0.606   6.104  0.2819  0.2725 -0.5569
  115MOL    C4834476   1.877   0.684   6.035 -0.1184  0.1972 -0.2099
  115MOL    C4934477   1.899   0.821   6.111  0.0202  0.6398 -0.0626
  115MOL    O5034478   1.995   0.847   6.183  0.1086  0.6556 -0.5224
  115MOL    O5134479   1.811   0.911   6.070 -0.4226  0.4920 -0.2350
  115MOL    C5234480   1.823   1.050   6.104 -0.1752  0.5407  0.0164
  115MOL    C5334481   1.932   1.113   6.008 -0.7365 -0.5135 -0.5828
  115MOL    H5434482   1.745   0.532   6.026 -3.2610 -1.6343  2.0784
  115MOL    H5534483   1.677   0.664   6.128 -0.7385 -0.3379 -2.7240
  115MOL    H5634484   1.973   0.635   6.056  0.7798  1.2653 -1.7005
  115MOL    H5734485   1.722   1.091   6.095 -0.3042  0.1631 -0.2694
  115MOL    H5834486   1.843   1.063   6.211 -1.3558  3.7813 -0.0867
  115MOL    H5934487   1.918   1.081   5.905 -0.6360 -3.4248  0.2601
  115MOL    H6034488   2.032   1.081   6.037 -0.9773  0.0736  0.9515
  115MOL    H6134489   1.937   1.222   6.008  0.8289 -0.5661  0.1059
  115MOL    C6234490   1.856   0.706   5.886  0.1017 -0.2067  0.6304
  115MOL    C6334491   1.973   0.781   5.818 -0.4748  0.2099 -0.6859
  115MOL    C6434492   1.927   0.832   5.684  0.2809 -0.8892  0.4072
  115MOL    O6534493   1.909   0.759   5.585 -0.3935 -0.6826  0.2109
  115MOL    O6634494   1.913   0.966   5.684  0.0474  0.1859  0.2818
  115MOL    C6734495   1.875   1.035   5.569 -0.0862  0.7861 -0.1228
  115MOL    C6834496   1.908   1.190   5.565 -0.0618  0.1463  0.4100
  115MOL    H6934497   1.834   0.609   5.842  0.1333  0.5950 -1.1957
  115MOL    H7034498   1.761   0.756   5.868  0.3166 -0.6654 -1.9074
  115MOL    H7134499   1.993   0.875   5.870 -1.6559 -0.3213  0.7538
  115MOL    H7234500   1.915   0.972   5.490  0.0782 -0.1345  0.6831
  115MOL    H7334501   1.766   1.022   5.564 -0.1847  0.9885  1.2225
  115MOL    H7434502   1.843   1.236   5.490 -1.0271  0.7142  1.5833
  115MOL    H7534503   2.009   1.196   5.526 -0.3053 -0.1813 -0.2906
  115MOL    H7634504   1.886   1.241   5.658  0.7857  1.0820  0.0985
  115MOL    C7734505   2.099   0.695   5.809  0.4083  0.0758 -0.3015
  115MOL    C7834506   2.237   0.760   5.843  0.5011  0.3845  0.4569
  115MOL    C7934507   2.292   0.866   5.746  0.2225 -0.9014 -0.1059
  115MOL    O8034508   2.374   0.829   5.660 -0.1894  0.4698 -0.1903
  115MOL    O8134509   2.244   0.983   5.762  0.1293  0.6359  0.0807
  115MOL    C8234510   2.296   1.075   5.672 -0.5178  0.0768  0.0024
  115MOL    C8334511   2.272   1.208   5.744  0.1953  0.6243 -0.2103
  115MOL    H8434512   2.085   0.604   5.868 -1.3473 -0.4356 -1.4486
  115MOL    H8534513   2.106   0.651   5.710  2.2579  1.4445 -0.8110
  115MOL    H8634514   2.225   0.811   5.939 -1.3742  0.3534  0.2738
  115MOL    H8734515   2.403   1.059   5.662  0.0033  3.1291  0.3943
  115MOL    H8834516   2.250   1.071   5.574 -0.6444 -0.4953  0.0829
  115MOL    H8934517   2.316   1.286   5.682 -0.9744  1.1538 -0.3883
  115MOL    H9034518   2.331   1.214   5.836 -1.6445  2.0590  0.9260
  115MOL    H9134519   2.169   1.228   5.772  0.3584 -0.0431  0.9106
  115MOL    C9234520   2.344   0.650   5.875  0.3340  0.5182 -0.2033
  115MOL    C9334521   2.459   0.682   5.972  0.7216 -0.2302 -0.0610
  115MOL    C9434522   2.400   0.748   6.101  0.1095 -0.7323 -0.0622
  115MOL    O9534523   2.414   0.870   6.117 -0.2585 -0.2203 -0.0516
  115MOL    O9634524   2.344   0.661   6.179  0.3454 -0.3178 -0.0509
  115MOL    C9734525   2.319   0.696   6.311 -0.4233  0.5566  0.1272
  115MOL    C9834526   2.269   0.568   6.378 -0.1571 -0.2558 -0.7782
  115MOL    H9934527   2.303   0.567   5.933 -1.3763  1.2062 -0.4244
  115MOL   H10034528   2.385   0.610   5.782 -0.7263 -0.2920 -0.3261
  115MOL   H10134529   2.512   0.594   6.008  2.6041  0.7354 -0.4365
  115MOL   H10234530   2.404   0.744   6.359 -2.9843  2.3144  3.0691
  115MOL   H10334531   2.241   0.773   6.312  0.2281  1.2897 -1.9614
  115MOL   H10434532   2.355   0.501   6.374  1.0053  1.2519 -1.4025
  115MOL   H10534533   2.186   0.515   6.332 -1.2289  1.5029 -0.9167
  115MOL   H10634534   2.247   0.563   6.485 -1.7566 -0.5740 -1.1138
  115MOL   C10734535   2.566   0.766   5.894 -0.1416  0.1118 -0.1211
  115MOL   C10834536   2.706   0.777   5.957  0.4316  0.0681  0.1581
  115MOL   C10934537   2.798   0.882   5.898 -0.5232  0.7066 -1.0808
  115MOL   O11034538   2.776   0.930   5.787 -0.0323 -0.1315  0.3177
  115MOL   O11134539   2.895   0.920   5.990 -0.1174  0.0365 -0.3351
  115MOL   C11234540   2.983   1.027   5.967 -0.3447 -0.0687 -0.0750
  115MOL   C11334541   3.083   0.981   5.856 -0.0314  0.8248 -0.2484
  115MOL   H11434542   2.582   0.732   5.791  0.6268  1.4506 -0.4728
  115MOL   H11534543   2.528   0.867   5.875 -1.1617 -0.1179  0.6585
  115MOL   H11634544   2.678   0.801   6.060 -0.1552 -0.1852  0.0643
  115MOL   H11734545   2.932   1.118   5.938  0.0031 -0.0388 -0.5876
  115MOL   H11834546   3.033   1.039   6.063 -2.0669 -1.0600  0.9968
  115MOL   H11934547   3.147   1.065   5.829 -1.3122  1.2144 -2.1725
  115MOL   H12034548   3.033   0.958   5.762 -1.2531 -0.8319  0.7851
  115MOL   H12134549   3.151   0.902   5.888 -0.7291  0.9327  1.6025
  115MOL   C12234550   2.780   0.640   5.971  0.4202  0.1744 -0.1805
  115MOL   C12334551   2.827   0.571   5.844  0.6794  0.3667 -0.4675
  115MOL   C12434552   2.757   0.434   5.817  0.6847  0.2545 -0.1945
  115MOL   O12534553   2.666   0.425   5.739 -0.2649 -0.4116  0.0534
  115MOL   O12634554   2.811   0.320   5.885  0.1299 -0.3320 -0.0698
  115MOL   C12734555   2.741   0.200   5.883  0.2170 -0.6012  0.1987
  115MOL   C12834556   2.608   0.210   5.956 -0.6676 -0.8512  0.5245
  115MOL   H12934557   2.861   0.663   6.041  0.4189  0.5808 -0.3077
  115MOL   H13034558   2.718   0.569   6.026 -1.3207  0.2585 -1.9787
  115MOL   H13134559   2.796   0.629   5.758 -1.3627  1.8092  1.2042
  115MOL   H13234560   2.719   0.181   5.778 -1.3999  0.9278  0.2345
  115MOL   H13334561   2.793   0.117   5.931  0.3858  0.0644  1.1845
  115MOL   H13434562   2.623   0.260   6.052  0.9223 -0.4144  0.0653
  115MOL   H13534563   2.555   0.114   5.960 -0.8166 -0.7672  0.5774
  115MOL   H13634564   2.544   0.276   5.898  1.7381  2.1826  1.2017
  115MOL   C13734565   2.982   0.552   5.828  0.4381 -0.4372 -0.4066
  115MOL   C13834566   3.032   0.503   5.687  0.1694  0.6483 -0.5713
  115MOL   C13934567   3.129   0.389   5.707  0.1901 -0.2395  0.4459
  115MOL   O14034568   3.252   0.408   5.700 -0.3952  0.0338  0.1122
  115MOL   O14134569   3.064   0.282   5.741 -0.2197 -0.7639 -0.3784
  115MOL   C14234570   3.136   0.166   5.775 -0.6347 -0.6887  0.2415
  115MOL   C14334571   3.058   0.038   5.818 -0.3386 -0.1160  0.0361
  115MOL   H14434572   3.040   0.640   5.854 -2.1430  1.2108 -0.0404
  115MOL   H14534573   3.020   0.487   5.906 -2.4754 -1.0159  0.5948
  115MOL   H14634574   2.942   0.462   5.641 -0.9490  0.9937  1.2650
  115MOL   H14734575   3.205   0.149   5.692 -1.8306  1.0992 -1.1834
  115MOL   H14834576   3.184   0.192   5.869  0.0685 -1.1544  0.0215
  115MOL   H14934577   3.127   7.863   5.834 -1.0991 -0.4002  1.9795
  115MOL   H15034578   2.982   0.024   5.742  0.6959 -0.4281 -0.9536
  115MOL   H15134579   3.008   0.060   5.913 -0.2033  0.1206  0.0521
  115MOL   C15234580   3.106   0.617   5.608  0.5001 -0.5339  0.9844
  115MOL   C15334581   3.009   0.730   5.572 -0.0574  0.0815 -0.0403
  115MOL   C15434582   2.925   0.677   5.457  0.9262  0.2339  0.2752
  115MOL   O15534583   2.961   0.586   5.382 -0.4215  0.0488  0.3029
  115MOL   O15634584   2.808   0.741   5.453  0.1989 -0.0116 -0.3100
  115MOL   C15734585   2.717   0.714   5.349 -0.1233 -0.1496 -0.1880
  115MOL   C15834586   2.577   0.744   5.408 -0.2044  0.0719  0.2358
  115MOL   H15934587   3.177   0.658   5.680 -0.0310  0.6385  0.8501
  115MOL   H16034588   3.159   0.584   5.519 -0.1076  1.8629 -0.3013
  115MOL   H16134589   2.944   0.763   5.653  1.8133 -0.4224  1.7096
  115MOL   H16234590   2.746   0.784   5.271  0.0808 -0.1850 -0.1448
  115MOL   H16334591   2.727   0.615   5.306 -2.2958 -0.3238 -0.3432
  115MOL   H16434592   2.510   0.789   5.335 -2.0827 -0.9545  1.3000
  115MOL   H16534593   2.582   0.815   5.491  1.4043  0.8752 -0.5282
  115MOL   H16634594   2.528   0.652   5.439 -1.8367  0.9993  0.4592
  115MOL   C16734595   3.103   0.840   5.514 -0.2260 -1.2760  0.6588
  115MOL   C16834596   3.040   0.973   5.463  0.0274  0.5033 -0.0869
  115MOL   C16934597   2.992   0.965   5.319  0.5163 -1.0015  0.1917
  115MOL   O17034598   2.880   1.022   5.295  0.3430  0.0304 -0.2478
  115MOL   O17134599   3.061   0.892   5.236 -0.5769 -0.3244  0.1728
  115MOL   C17234600   3.012   0.869   5.108  0.1078 -0.2200  0.1305
  115MOL   C17334601   3.085   0.753   5.038 -0.5619  0.0244 -0.8729
  115MOL   H17434602   3.173   0.868   5.592  1.3541 -3.9975  0.2789
  115MOL   H17534603   3.172   0.790   5.446  1.6424  1.8330  0.1348
  115MOL   H17634604   2.951   0.979   5.526  1.5125  1.5767  1.9730
  115MOL   H17734605   2.906   0.847   5.096  0.5121 -1.5768 -1.0153
  115MOL   H17834606   3.036   0.957   5.049  1.7081 -0.1659  0.8377
  115MOL   H17934607   3.068   0.659   5.091 -1.7825  0.3071 -0.7545
  115MOL   H18034608   3.193   0.764   5.025 -0.7247  0.0602 -2.2414
  115MOL   H18134609   3.048   0.734   4.937  2.0811 -0.7772 -1.7253
  115MOL   C18234610   3.129   1.094   5.486  0.1820  0.0752  0.0304
  115MOL   C18334611   3.272   1.091   5.422  0.0583 -0.1566 -0.7162
  115MOL   C18434612   3.380   1.153   5.510 -0.0655 -0.2243  0.2868
  115MOL   O18534613   3.458   1.079   5.571  0.5781  0.1972  0.3118
  115MOL   O18634614   3.395   1.281   5.503 -0.4060 -0.1169 -0.2186
  115MOL   C18734615   3.501   1.349   5.575  0.3132  0.0261  0.2278
  115MOL   C18834616   3.513   1.489   5.514 -0.3359 -0.0277  0.1555
  115MOL   H18934617   3.070   1.185   5.470  2.2855  1.5836  0.7119
  115MOL   H19034618   3.161   1.101   5.590 -0.8581 -0.8271  0.4264
  115MOL   H19134619   3.304   0.988   5.405  0.9821  0.0731 -0.3757
  115MOL   H19234620   3.476   1.359   5.681  3.4072  2.1219  0.8261
  115MOL   H19334621   3.590   1.287   5.575 -0.4516 -1.0931  1.2643
  115MOL   H19434622   3.430   1.545   5.556  0.6526 -0.0178  2.1420
  115MOL   H19534623   3.510   1.492   5.405 -2.8475  0.2387  0.2084
  115MOL   H19634624   3.606   1.532   5.551 -0.5535 -0.7371  1.5377
  115MOL   C19734625   3.270   1.165   5.280 -0.0667  0.7858 -0.6414
  115MOL   C19834626   3.396   1.136   5.187 -0.6817  0.0011  0.3514
  115MOL   C19934627   3.480   1.268   5.170  0.2661 -0.3590  0.2133
  115MOL   O20034628   3.588   1.296   5.221 -0.3867 -0.0930 -0.3697
  115MOL   O20134629   3.417   1.361   5.098  0.1951 -0.2244  0.3598
  115MOL   C20234630   3.480   1.491   5.075 -0.2923 -0.2993  0.4076
  115MOL   C20334631   3.421   1.543   4.944  1.1594 -0.0857  0.8143
  115MOL   H20434632   3.174   1.149   5.231  0.3985  0.0656 -1.3352
  115MOL   H20534633   3.266   1.271   5.305 -0.0532  0.3452  1.2972
  115MOL   H20634634   3.456   1.070   5.249  0.3509  0.8978  0.3104
  115MOL   H20734635   3.453   1.552   5.160 -2.3923 -1.8586  0.9120
  115MOL   H20834636   3.588   1.483   5.061 -0.0525  2.7890  0.0955
  115MOL   H20934637   3.313   1.528   4.942  1.5555 -3.6311  2.5300
  115MOL   H21034638   3.478   1.501   4.861  0.2960 -0.3954  0.3731
  115MOL   H21134639   3.435   1.650   4.928  4.3372 -1.0426 -4.0659
  115MOL   C21234640   3.363   1.065   5.053  0.0742  0.5062 -0.1854
  115MOL   C21334641   3.480   1.055   4.956 -0.6676 -1.1563 -1.1420
  115MOL   C21434642   3.436   1.035   4.813  0.0633 -0.3180  0.4959
  115MOL   O21534643   3.455   1.119   4.720 -0.3599 -0.1763 -0.2058
  115MOL   O21634644   3.366   0.914   4.801 -0.5725  0.5723  0.6837
  115MOL   C21734645   3.310   0.888   4.665 -0.9531  0.3804 -0.5740
  115MOL   C21834646   3.174   0.959   4.660  0.4228 -0.2828 -0.2007
  115MOL   H21934647   3.321   0.969   5.082 -0.0819  0.4607 -0.5456
  115MOL   H22034648   3.278   1.119   5.009 -0.0337  0.7995  0.3846
  115MOL   H22134649   3.528   1.153   4.955 -1.1504 -0.8738  0.5943
  115MOL   H22234650   3.379   0.918   4.587  1.2556  1.4407  1.7079
  115MOL   H22334651   3.296   0.784   4.635 -0.7714 -0.0289  0.6915
  115MOL   H22434652   3.140   0.956   4.557  1.9036  0.5130 -0.7224
  115MOL   H22534653   3.164   1.058   4.704  1.9708 -1.1949  2.3174
  115MOL   H22634654   3.104   0.899   4.718  0.1133  3.1278  3.0916
  115MOL   C22734655   3.586   0.946   4.998  0.6831 -0.5017  0.7026
  115MOL   C22834656   3.715   0.958   4.909 -0.6557 -0.5178 -0.1843
  115MOL   C22934657   3.801   0.829   4.914  0.4240  0.0776  0.2583
  115MOL   O23034658   3.884   0.811   4.824  0.2344 -0.2867  0.3662
  115MOL   O23134659   3.771   0.749   5.012 -0.2738  0.2473 -0.0130
  115MOL   C23234660   3.835   0.623   5.026  0.1742 -0.0162  0.3127
  115MOL   C23334661   3.746   0.524   4.954 -0.0973  0.0877  0.5602
  115MOL   H23434662   3.612   0.959   5.103 -2.0429  2.8065  1.0511
  115MOL   H23534663   3.534   0.850   4.995 -2.3009  1.1353 -1.8588
  115MOL   H23634664   3.682   0.961   4.805 -0.7168 -0.6771 -0.1690
  115MOL   H23734665   3.936   0.625   4.984  0.5471  1.7780  1.2782
  115MOL   H23834666   3.832   0.602   5.133  2.8427  1.9481  0.8219
  115MOL   H23934667   3.784   0.518   4.852 -1.0391 -2.0772  0.3116
  115MOL   H24034668   3.641   0.551   4.944 -0.2387 -0.2071  1.2157
  115MOL   H24134669   3.745   0.421   4.989 -0.6542 -1.1319 -2.8131
  115MOL   C24234670   3.804   1.078   4.963 -0.2941  0.6238 -0.1013
  115MOL   C24334671   3.888   1.141   4.850  0.8291  0.2332 -0.2599
  115MOL   C24434672   4.007   1.226   4.903  0.6454  0.3817  0.4231
  115MOL   O24534673   3.992   1.348   4.919  0.3273  0.1878 -0.1939
  115MOL   O24634674   4.113   1.157   4.932 -0.3816 -0.2252 -0.1378
  115MOL   C24734675   4.230   1.223   4.985  0.0481 -0.1345 -0.2947
  115MOL   C24834676   4.352   1.126   4.970 -0.0988 -0.6556  0.1837
  115MOL   H24934677   3.733   1.158   4.985 -0.4368 -0.2602  2.8080
  115MOL   H25034678   3.860   1.050   5.052 -1.0095 -2.0500 -0.4567
  115MOL   H25134679   3.937   1.052   4.809  0.4278 -0.5242  0.8867
  115MOL   H25234680   4.245   1.316   4.930  0.5037  0.3129  0.5683
  115MOL   H25334681   4.221   1.247   5.091  0.5942  0.7409 -0.4441
  115MOL   H25434682   4.314   1.034   5.014 -2.0044 -0.2023 -0.4842
  115MOL   H25534683   4.439   1.148   5.031 -2.0531  0.0346  2.7868
  115MOL   H25634684   4.371   1.110   4.864 -2.8447 -1.2211 -0.2511
  115MOL   C25734685   3.799   1.213   4.750  0.2793 -0.4260 -0.2012
  115MOL   C25834686   3.853   1.181   4.609  0.3717 -0.5893 -0.1774
  115MOL   C25934687   3.977   1.258   4.568 -0.4606  0.2316 -0.3624
  115MOL   O26034688   4.069   1.208   4.503  0.3254  0.0853  0.5282
  115MOL   O26134689   3.974   1.388   4.601  0.1570 -0.0929 -0.6033
  115MOL   C26234690   4.100   1.454   4.589 -0.8487  0.1311 -0.1886
  115MOL   C26334691   4.090   1.601   4.617  0.0168  0.1040  0.3686
  115MOL   H26434692   3.695   1.179   4.750  0.2444 -0.3368  0.9335
  115MOL   H26534693   3.788   1.321   4.760  2.0151 -0.0155 -2.3660
  115MOL   H26634694   3.886   1.077   4.607  0.5546 -0.5606  0.8472
  115MOL   H26734695   4.169   1.409   4.660 -0.1002 -0.8460 -1.5100
  115MOL   H26834696   4.144   1.431   4.492 -0.0697 -1.8932  0.6083
  115MOL   H26934697   4.192   1.632   4.639  0.4208 -0.4532 -0.6658
  115MOL   H27034698   4.026   1.614   4.704 -1.2565 -0.4005 -0.4749
  115MOL   H27134699   4.034   1.659   4.543  2.5516 -1.3451 -2.7896
  115MOL   C27234700   3.745   1.185   4.498  0.5060 -0.2942 -0.1961
  115MOL   C27334701   3.775   1.085   4.376  0.3672  0.2236 -0.1968
  115MOL   C27434702   3.672   1.111   4.263 -0.5391  0.3088 -0.4828
  115MOL   O27534703   3.568   1.178   4.284 -0.4782  0.4774 -0.6952
  115MOL   O27634704   3.697   1.053   4.151 -0.0484 -0.2536  0.1857
  115MOL   C27734705   3.614   1.098   4.043 -0.5994  0.2832 -0.4981
  115MOL   C27834706   3.639   1.011   3.921  0.2898 -0.1218  0.0465
  115MOL   H27934707   3.647   1.150   4.530  0.9085 -0.6828  0.6318
  115MOL   H28034708   3.735   1.292   4.479  2.5198 -0.0549 -0.0647
  115MOL   H28134709   3.877   1.109   4.344  1.1096 -1.3196  0.9347
  115MOL   H28234710   3.507   1.101   4.063 -0.8379  1.8010 -1.8851
  115MOL   H28334711   3.629   1.203   4.021 -1.3117  0.7251  0.9926
  115MOL   H28434712   3.572   1.041   3.841  1.0323 -1.3864 -1.0623
  115MOL   H28534713   3.616   0.906   3.940 -0.5734 -0.2696 -1.7873
  115MOL   H28634714   3.742   1.028   3.887  0.4250  1.0996  0.9968
  115MOL   C28734715   3.783   0.934   4.410 -0.1303 -0.9936 -0.0947
  115MOL   C28834716   3.648   0.884   4.476  0.0544 -0.1578 -0.3439
  115MOL   C28934717   3.662   0.744   4.539  0.0721  0.0233 -0.0334
  115MOL   O29034718   3.591   0.710   4.635 -0.0839  0.4327 -0.5045
  115MOL   O29134719   3.732   0.663   4.465  0.7562 -0.1031 -0.5712
  115MOL   C29234720   3.704   0.528   4.484  0.0342  0.3496 -0.0351
  115MOL   C29334721   3.801   0.466   4.587 -0.2056 -0.3656 -0.6715
  115MOL   H29434722   3.794   0.885   4.313  1.5652  0.3164 -0.5864
  115MOL   H29534723   3.872   0.915   4.469 -0.8612 -1.6687  0.7977
  115MOL   H29634724   3.628   0.947   4.563 -1.1425  0.0720 -0.7860
  115MOL   H29734725   3.600   0.512   4.514  0.1726 -0.3365  0.0929
  115MOL   H29834726   3.735   0.479   4.391  0.9070  0.9318 -0.0496
  115MOL   H29934727   3.737   0.407   4.653  0.0612  0.2195  0.1240
  115MOL   H30034728   3.854   0.537   4.651 -0.7049 -0.6670  0.0835
  115MOL   H30134729   3.879   0.408   4.539  0.7638 -0.1840  0.6444
  115MOL   H30234730   3.552   0.901   4.428 -0.7609 -1.8149  0.6476
  116MOL     C134731   4.934   1.257   3.690 -0.2372 -0.2389 -0.3619
  116MOL     C234732   5.064   1.242   3.616  0.0622 -0.7282 -0.7547
  116MOL     C334733   5.043   1.190   3.473  0.2547 -0.1354  0.1594
  116MOL     O434734   5.134   1.134   3.408 -0.1065  0.1001  0.4273
  116MOL     O534735   4.915   1.197   3.428  0.2849 -0.7663  0.0125
  116MOL     C634736   4.888   1.178   3.293 -0.7180 -0.2518  0.6678
  116MOL     C734737   4.768   1.259   3.253 -0.7341  0.2104 -0.1982
  116MOL     H834738   4.866   1.328   3.644  1.7237  0.9868 -1.4175
  116MOL     H934739   4.959   1.299   3.788 -2.9999  2.1201 -0.5867
  116MOL    H1034740   5.105   1.343   3.604  1.8009 -1.4313 -0.9115
  116MOL    H1134741   4.974   1.214   3.235 -0.6979  2.3396  2.2416
  116MOL    H1234742   4.888   1.070   3.274 -1.9273  0.3335 -3.1688
  116MOL    H1334743   4.777   1.303   3.153 -4.1591 -1.0896 -1.1568
  116MOL    H1434744   4.761   1.343   3.322  0.2846  0.4946 -0.4343
  116MOL    H1534745   4.680   1.195   3.254 -0.7877  0.2781 -0.4123
  116MOL    H1634746   4.883   1.161   3.697  0.5765 -0.8361 -2.4719
  116MOL    C1734747   5.176   1.163   3.692  0.5892 -0.0658  0.4564
  116MOL    C1834748   5.148   1.016   3.736 -0.5478  0.2331  0.4221
  116MOL    C1934749   5.073   0.999   3.867 -0.4687 -0.2892  0.4807
  116MOL    O2034750   5.046   1.095   3.940  0.3495 -0.1225 -0.1641
  116MOL    O2134751   5.037   0.865   3.892  0.3727 -0.0946 -0.0404
  116MOL    C2234752   4.953   0.817   3.988 -0.1423  0.0272  0.5445
  116MOL    C2334753   4.810   0.779   3.936  0.6057  0.2610  0.5064
  116MOL    H2434754   5.259   1.169   3.623  0.1502  0.1810 -0.0542
  116MOL    H2534755   5.226   1.220   3.771  0.8356  1.6288 -0.8844
  116MOL    H2634756   5.084   0.971   3.660  0.7109 -1.0160  0.0803
  116MOL    H2734757   4.995   0.738   4.049 -1.3991 -0.9779  0.1227
  116MOL    H2834758   4.946   0.895   4.064 -0.0829  1.1719 -0.5909
  116MOL    H2934759   4.764   0.861   3.881 -1.1346 -0.8745  0.2530
  116MOL    H3034760   4.751   0.763   4.026  0.9099 -1.8399  0.3701
  116MOL    H3134761   4.812   0.692   3.871  1.4828  0.0050  0.8697
  116MOL    C3234762   5.281   0.940   3.731  0.8116 -0.0114 -0.6023
  116MOL    C3334763   5.276   0.788   3.717 -0.3679  0.2835  0.3813
  116MOL    C3434764   5.345   0.710   3.832  0.7708 -1.0750 -1.1787
  116MOL    O3534765   5.466   0.673   3.830 -0.3485 -0.5891  0.1244
  116MOL    O3634766   5.250   0.681   3.932 -0.6809  0.1089  0.4912
  116MOL    C3734767   5.285   0.598   4.039 -0.5528  0.5084  0.1243
  116MOL    C3834768   5.184   0.478   4.035  0.9537  0.2852  0.0261
  116MOL    H3934769   5.344   0.977   3.651 -0.0082  0.9066 -0.8377
  116MOL    H4034770   5.335   0.966   3.821  1.4617 -0.7352 -0.7783
  116MOL    H4134771   5.172   0.757   3.724 -0.7480  1.6881  1.2166
  116MOL    H4234772   5.389   0.564   4.047 -0.1535  1.8977  1.2246
  116MOL    H4334773   5.258   0.645   4.134 -0.6377  0.7510 -0.0215
  116MOL    H4434774   5.200   0.396   4.105 -1.8427 -1.2188 -1.0200
  116MOL    H4534775   5.202   0.434   3.936 -0.9799  2.7009 -1.4592
  116MOL    H4634776   5.079   0.507   4.036  0.6137 -0.9451  0.7089
  116MOL    C4734777   5.335   0.733   3.579  0.4161 -0.3717 -0.0075
  116MOL    C4834778   5.256   0.773   3.454  0.4610 -0.2062 -0.3427
  116MOL    C4934779   5.110   0.712   3.465 -0.2877 -0.0354 -0.9999
  116MOL    O5034780   5.012   0.778   3.476  0.0357 -0.6622 -0.1765
  116MOL    O5134781   5.111   0.580   3.458 -0.5602  0.0085 -0.1336
  116MOL    C5234782   4.984   0.520   3.436  0.6891  0.3071  0.0112
  116MOL    C5334783   4.914   0.479   3.568 -0.1184  0.3067  0.7569
  116MOL    H5434784   5.434   0.777   3.569 -0.6072  2.4130  1.5413
  116MOL    H5534785   5.347   0.625   3.593  1.8696  0.1415  3.0711
  116MOL    H5634786   5.248   0.881   3.453  1.1814 -0.0443  3.5556
  116MOL    H5734787   4.922   0.577   3.367 -1.2772 -1.0080  0.6398
  116MOL    H5834788   4.996   0.431   3.375 -2.5540 -0.8275  0.9249
  116MOL    H5934789   4.922   0.562   3.638  1.4828  0.3762  0.5093
  116MOL    H6034790   4.957   0.393   3.619 -0.1815  0.5615  1.2346
  116MOL    H6134791   4.809   0.455   3.551 -0.4188  0.8010  1.8538
  116MOL    C6234792   5.321   0.736   3.322 -0.2023 -0.1156 -0.3891
  116MOL    C6334793   5.267   0.806   3.198 -0.7505 -0.0543  0.0447
  116MOL    C6434794   5.134   0.732   3.141 -0.3938 -0.3165 -0.5756
  116MOL    O6534795   5.138   0.611   3.119 -0.1778  0.4254 -0.1459
  116MOL    O6634796   5.030   0.811   3.123  0.0374  0.8996  0.1317
  116MOL    C6734797   4.901   0.751   3.119  0.2613  0.7255 -0.7531
  116MOL    C6834798   4.802   0.823   3.036 -0.3661  0.5721 -1.0392
  116MOL    H6934799   5.427   0.755   3.342 -0.1810 -2.8699  2.6629
  116MOL    H7034800   5.311   0.628   3.315  2.5234 -0.4710  0.5289
  116MOL    H7134801   5.239   0.910   3.207 -0.1664  0.1650 -0.6171
  116MOL    H7234802   4.911   0.651   3.077 -1.5602  0.4272 -0.5342
  116MOL    H7334803   4.852   0.731   3.215 -2.2174 -1.3760 -2.3821
  116MOL    H7434804   4.701   0.786   3.052  0.9297 -2.7972 -0.1669
  116MOL    H7534805   4.830   0.812   2.932  1.0148  1.5172 -0.7746
  116MOL    H7634806   4.807   0.929   3.061 -2.2645  1.0035 -2.3866
  116MOL    C7734807   5.373   0.815   3.083 -0.2925  0.1158  0.3451
  116MOL    C7834808   5.376   0.947   2.996 -0.4728  0.3611 -0.3902
  116MOL    C7934809   5.240   0.989   2.926 -0.1008  0.1870 -0.3006
  116MOL    O8034810   5.180   0.922   2.845  0.9311  0.0589  0.5526
  116MOL    O8134811   5.181   1.102   2.978  0.2216  0.0797  0.2293
  116MOL    C8234812   5.049   1.137   2.946  0.9616 -0.1134 -0.0364
  116MOL    C8334813   5.051   1.235   2.823 -0.4026 -0.3117 -0.2226
  116MOL    H8434814   5.474   0.794   3.119  0.9009  0.8931 -2.4630
  116MOL    H8534815   5.361   0.731   3.014  0.9782  0.7418 -0.6618
  116MOL    H8634816   5.384   1.032   3.064 -2.5946 -0.2794  0.6925
  116MOL    H8734817   4.990   1.047   2.928 -2.0114  2.0475 -1.4658
  116MOL    H8834818   5.003   1.199   3.022  1.2306  1.1735 -0.9014
  116MOL    H8934819   5.113   1.322   2.843 -0.6319 -0.5935  1.8823
  116MOL    H9034820   4.957   1.276   2.787 -0.4683  0.1285  0.4365
  116MOL    H9134821   5.087   1.186   2.733 -0.7797  0.6974 -0.9259
  116MOL    C9234822   5.502   0.946   2.902  0.3856  0.1221 -0.2331
  116MOL    C9334823   5.572   1.077   2.890 -0.3795  0.2246  0.0317
  116MOL    C9434824   5.492   1.197   2.823 -0.1960 -0.0966 -0.0476
  116MOL    O9534825   5.481   1.306   2.876  0.0799  0.5428 -0.5009
  116MOL    O9634826   5.446   1.160   2.698 -0.0504 -0.0651 -0.5042
  116MOL    C9734827   5.375   1.260   2.617 -0.1393 -0.9696  0.6196
  116MOL    C9834828   5.441   1.276   2.486  0.0819  0.4765  0.7047
  116MOL    H9934829   5.570   0.872   2.945 -0.2121  0.2358  0.9228
  116MOL   H10034830   5.476   0.911   2.802 -0.3104 -0.1031  0.0231
  116MOL   H10134831   5.605   1.107   2.989 -0.8074  0.0943  0.2159
  116MOL   H10234832   5.273   1.224   2.602 -0.3454 -1.2384  2.5095
  116MOL   H10334833   5.376   1.353   2.674  0.1862 -0.6465  0.0956
  116MOL   H10434834   5.543   1.312   2.498  1.2071 -2.0894 -0.6511
  116MOL   H10534835   5.390   1.345   2.418 -3.2850 -0.7799  1.8355
  116MOL   H10634836   5.433   1.176   2.442 -0.9147  0.0059  1.9316
  116MOL   C10734837   5.695   1.052   2.808 -0.0638 -0.4155  0.0962
  116MOL   C10834838   5.810   1.161   2.802  0.2279  0.6309  0.0372
  116MOL   C10934839   5.848   1.217   2.939 -0.5372 -0.2679  0.0314
  116MOL   O11034840   5.891   1.331   2.953  0.1161  0.1778  0.0078
  116MOL   O11134841   5.838   1.134   3.040  0.0879 -0.3864 -0.4260
  116MOL   C11234842   5.878   1.177   3.168 -0.3574 -0.2486  0.4713
  116MOL   C11334843   5.756   1.194   3.263 -0.0867 -0.4372 -0.2087
  116MOL   H11434844   5.753   0.968   2.846 -1.5077 -1.7802 -0.6538
  116MOL   H11534845   5.675   1.013   2.708  0.1632  1.8949 -0.8830
  116MOL   H11634846   5.894   1.099   2.772 -0.5445  0.4354 -1.8246
  116MOL   H11734847   5.952   1.107   3.207 -1.0512 -1.2255  0.0463
  116MOL   H11834848   5.928   1.274   3.165 -1.0534  0.0942 -0.1241
  116MOL   H11934849   5.708   1.291   3.251  2.0067  0.5182 -1.2326
  116MOL   H12034850   5.781   1.189   3.369 -2.0207  1.9930  0.4011
  116MOL   H12134851   5.675   1.123   3.251  0.1936 -0.7509 -0.2669
  116MOL   C12234852   5.791   1.271   2.691 -0.0060  0.5311  0.1929
  116MOL   C12334853   5.798   1.220   2.547 -0.5685  0.2719 -0.4567
  116MOL   C12434854   5.906   1.113   2.506 -0.7530  0.0166  0.6813
  116MOL   O12534855   5.872   1.009   2.454  0.1885  0.2872  0.5207
  116MOL   O12634856   6.024   1.158   2.527 -0.9480 -0.4076 -0.1559
  116MOL   C12734857   6.139   1.083   2.480  1.0092 -0.2959  0.6248
  116MOL   C12834858   6.270   1.136   2.541  0.5492  0.6388 -0.3838
  116MOL   H12934859   5.702   1.331   2.708 -0.7566 -0.3172 -0.6976
  116MOL   H13034860   5.877   1.337   2.705  1.0091 -0.6383 -0.3395
  116MOL   H13134861   5.705   1.167   2.525  0.2593 -2.0562  1.4331
  116MOL   H13234862   6.124   0.977   2.504 -1.5984  0.4840  2.6582
  116MOL   H13334863   6.136   1.091   2.372 -0.8532 -2.1235  0.5114
  116MOL   H13434864   6.267   1.153   2.648 -3.0528 -1.0438 -0.1466
  116MOL   H13534865   6.286   1.233   2.494 -0.1821  0.9966  0.0995
  116MOL   H13634866   6.361   1.076   2.531 -0.2253 -0.2540 -2.3924
  116MOL   C13734867   5.812   1.349   2.455  0.5825  0.2253 -0.5365
  116MOL   C13834868   5.762   1.342   2.311  0.3598  0.1561 -0.5074
  116MOL   C13934869   5.875   1.288   2.219  0.5758  0.0444 -0.3004
  116MOL   O14034870   5.978   1.356   2.207  0.4648  0.2009 -0.5320
  116MOL   O14134871   5.841   1.174   2.158 -0.6672  0.0278 -0.0441
  116MOL   C14234872   5.930   1.121   2.059  0.0310 -0.6742  1.1385
  116MOL   C14334873   5.865   1.008   1.982  0.6485  0.4274 -0.0472
  116MOL   H14434874   5.752   1.425   2.504  0.9072 -1.2213  2.1870
  116MOL   H14534875   5.914   1.388   2.454  0.0289  1.7441  1.2615
  116MOL   H14634876   5.686   1.264   2.314 -1.4361  1.8277 -1.1276
  116MOL   H14734877   5.938   1.205   1.990  0.9522 -0.1712  1.8435
  116MOL   H14834878   6.022   1.093   2.110  0.1647 -0.9933  0.7323
  116MOL   H14934879   5.836   0.935   2.058 -0.8105 -0.0651 -1.0389
  116MOL   H15034880   5.935   0.969   1.907 -0.2833  1.6492 -1.5797
  116MOL   H15134881   5.776   1.042   1.928  0.6527  0.6898  0.1153
  116MOL   C15234882   5.708   1.486   2.262  0.3247  0.2546 -0.2088
  116MOL   C15334883   5.625   1.496   2.133 -0.8945  0.3265 -0.1583
  116MOL   C15434884   5.500   1.410   2.145 -0.2981  0.6291  0.1507
  116MOL   O15534885   5.392   1.455   2.172 -0.2660  0.2058  0.4051
  116MOL   O15634886   5.518   1.277   2.116  0.0346 -0.2935  0.3137
  116MOL   C15734887   5.406   1.196   2.091 -0.2676 -0.6361  0.1156
  116MOL   C15834888   5.454   1.062   2.139  0.0426 -0.2379 -0.3287
  116MOL   H15934889   5.645   1.534   2.338  1.1530 -0.9041  1.2281
  116MOL   H16034890   5.791   1.556   2.257  1.6653 -1.2637  0.3597
  116MOL   H16134891   5.593   1.600   2.145  0.2790  0.7879 -0.9705
  116MOL   H16234892   5.309   1.229   2.128 -1.2425 -0.8739 -2.1366
  116MOL   H16334893   5.393   1.205   1.983  1.8090 -0.4364 -0.1423
  116MOL   H16434894   5.542   1.015   2.095  0.2044  1.2091 -1.5936
  116MOL   H16534895   5.379   0.987   2.115  0.0969  0.5278 -3.0211
  116MOL   H16634896   5.456   1.064   2.248 -1.0564  0.5731 -0.3152
  116MOL   C16734897   5.699   1.489   1.995  0.2343 -0.5849 -0.8030
  116MOL   C16834898   5.611   1.488   1.872 -0.0633 -0.2544  0.4487
  116MOL   C16934899   5.599   1.356   1.794 -0.3284 -0.4946 -0.4937
  116MOL   O17034900   5.679   1.268   1.815  0.4232  0.4245 -0.3358
  116MOL   O17134901   5.501   1.354   1.709 -0.2562 -0.5254 -0.3208
  116MOL   C17234902   5.493   1.240   1.627 -0.8643 -0.2152 -0.1628
  116MOL   C17334903   5.348   1.232   1.575 -0.5164 -0.0358  0.4438
  116MOL   H17434904   5.760   1.579   2.000  0.6089 -0.9420  1.7436
  116MOL   H17534905   5.776   1.412   1.988 -0.9667 -1.6089 -3.4462
  116MOL   H17634906   5.513   1.509   1.916  0.9417 -0.9931  3.0964
  116MOL   H17734907   5.566   1.251   1.547  0.4335  0.1693  1.0582
  116MOL   H17834908   5.517   1.149   1.681 -2.3371  0.0832  1.0580
  116MOL   H17934909   5.333   1.158   1.497 -0.4483 -0.5277  0.8975
  116MOL   H18034910   5.315   1.325   1.528 -0.0115  0.4082  0.9614
  116MOL   H18134911   5.282   1.204   1.658 -1.8813  0.6242 -0.3867
  116MOL   C18234912   5.637   1.605   1.770 -0.1703  1.3786  0.1294
  116MOL   C18334913   5.608   1.743   1.826 -0.7457  0.1547 -1.0542
  116MOL   C18434914   5.462   1.764   1.861  0.4272 -0.2670 -0.5028
  116MOL   O18534915   5.433   1.777   1.979 -0.0916  0.0512  0.1285
  116MOL   O18634916   5.380   1.751   1.758 -0.0258 -1.1267  0.1021
  116MOL   C18734917   5.238   1.742   1.765 -0.3590  0.8670 -0.2244
  116MOL   C18834918   5.175   1.878   1.750  0.0819 -0.0053  0.0490
  116MOL   H18934919   5.736   1.596   1.725 -0.9118 -2.7911 -0.8814
  116MOL   H19034920   5.577   1.592   1.680 -1.7121 -1.8170  1.5228
  116MOL   H19134921   5.663   1.749   1.920  0.8318  0.2408 -1.9636
  116MOL   H19234922   5.193   1.664   1.703 -3.7493  0.9951  1.9644
  116MOL   H19334923   5.216   1.698   1.863  2.3776  3.3978  1.5985
  116MOL   H19434924   5.201   1.951   1.826  2.1881  0.5982 -1.2088
  116MOL   H19534925   5.066   1.886   1.753  0.0508 -0.6746  1.8366
  116MOL   H19634926   5.198   1.918   1.652  1.3931  2.7157  1.4091
  116MOL   C19734927   5.669   1.856   1.738 -0.0094 -0.3780 -0.1791
  116MOL   C19834928   5.700   1.983   1.815  0.0768  0.1958  0.0290
  116MOL   C19934929   5.575   2.071   1.828  0.0203  0.5267 -0.3580
  116MOL   O20034930   5.530   2.105   1.937  0.2092  0.1090 -0.1306
  116MOL   O20134931   5.530   2.131   1.712  0.0337  0.8362 -0.2549
  116MOL   C20234932   5.411   2.213   1.730 -0.1585 -0.3132  0.2380
  116MOL   C20334933   5.367   2.270   1.595  0.3459  0.1044 -0.3969
  116MOL   H20434934   5.767   1.833   1.695  1.4966  3.1003  1.1927
  116MOL   H20534935   5.588   1.871   1.666  0.4247 -0.5086 -0.6974
  116MOL   H20634936   5.716   1.956   1.920 -2.4227  0.2204  0.4624
  116MOL   H20734937   5.331   2.163   1.784 -0.3822  0.5189  0.6820
  116MOL   H20834938   5.449   2.286   1.801 -1.1236 -0.9675  1.4436
  116MOL   H20934939   5.270   2.318   1.611  1.5016  2.5086 -0.3179
  116MOL   H21034940   5.358   2.198   1.513 -2.5320  0.8396 -0.7825
  116MOL   H21134941   5.438   2.346   1.564 -0.5200  1.2658  0.4184
  116MOL   C21234942   5.830   2.063   1.758 -0.6109  0.0620  0.6309
  116MOL   C21334943   5.966   1.987   1.772 -0.0800  0.1356  0.5818
  116MOL   C21434944   5.996   1.984   1.928  0.6354  0.6544  0.2138
  116MOL   O21534945   5.980   1.880   1.988 -0.1469  0.4589  0.1710
  116MOL   O21634946   6.031   2.105   1.969 -0.1547 -0.3072  0.2589
  116MOL   C21734947   6.043   2.131   2.103 -0.1397 -0.1355  0.2770
  116MOL   C21834948   6.077   2.277   2.128 -0.5822 -0.2783 -0.0258
  116MOL   H21934949   5.806   2.087   1.655  1.0919  0.9254  0.4155
  116MOL   H22034950   5.829   2.161   1.806 -2.5772  0.6424 -0.5397
  116MOL   H22134951   5.971   1.885   1.736  1.5867  1.2795 -2.6367
  116MOL   H22234952   5.952   2.106   2.158 -0.9676  0.3746 -0.8391
  116MOL   H22334953   6.129   2.074   2.137  0.1804  0.8964  1.2476
  116MOL   H22434954   6.005   2.330   2.064 -0.6239  0.4691  0.6435
  116MOL   H22534955   6.177   2.296   2.089 -0.3438 -0.1189  0.6581
  116MOL   H22634956   6.058   2.301   2.232  0.0282  1.8594 -0.3888
  116MOL   C22734957   6.070   2.047   1.681 -0.3268  0.3750  0.2664
  116MOL   C22834958   6.202   1.960   1.664 -0.5242 -0.0004 -1.1003
  116MOL   C22934959   6.313   2.008   1.766 -0.4865  0.2930 -0.3052
  116MOL   O23034960   6.377   2.109   1.743 -0.6217  0.2206 -0.1991
  116MOL   O23134961   6.341   1.916   1.858 -0.0684  0.0562  0.7288
  116MOL   C23234962   6.446   1.937   1.954 -0.2985  0.0245  0.1017
  116MOL   C23334963   6.509   1.806   2.001  0.4494  0.6367  0.1031
  116MOL   H23434964   6.022   2.056   1.583  2.1128  1.2070 -0.8924
  116MOL   H23534965   6.092   2.151   1.708  1.2002 -0.2565  1.4604
  116MOL   H23634966   6.179   1.856   1.686 -2.1915  0.2782 -1.4277
  116MOL   H23734967   6.519   1.995   1.899 -2.4312 -0.7664 -3.7570
  116MOL   H23834968   6.404   1.988   2.040  1.4522  2.6224 -0.5473
  116MOL   H23934969   6.430   1.744   2.044 -2.0136  2.9128 -0.9998
  116MOL   H24034970   6.569   1.834   2.087 -1.7519 -0.6230  2.1183
  116MOL   H24134971   6.568   1.750   1.928  0.4102  0.5142  0.1641
  116MOL   C24234972   6.260   1.959   1.519  1.0426 -0.3439  0.5219
  116MOL   C24334973   6.363   1.838   1.504  0.2191  0.3325 -0.2096
  116MOL   C24434974   6.508   1.898   1.469 -0.1277  0.2587 -0.0029
  116MOL   O24534975   6.551   1.889   1.356  0.0697  0.1124  0.3910
  116MOL   O24634976   6.569   1.943   1.571 -0.7399 -0.6355 -0.0692
  116MOL   C24734977   6.705   1.975   1.561  0.1127 -0.0589  0.4394
  116MOL   C24834978   6.753   2.020   1.697  0.1844  0.0618 -0.1590
  116MOL   H24934979   6.181   1.946   1.445 -0.0168 -3.0448  2.0489
  116MOL   H25034980   6.309   2.054   1.498  0.3904  0.2707  1.7111
  116MOL   H25134981   6.368   1.795   1.604  0.2390  1.2423  0.1792
  116MOL   H25234982   6.757   1.884   1.533  1.9830  1.0617  0.2216
  116MOL   H25334983   6.716   2.049   1.481  0.3170 -2.0970 -1.4605
  116MOL   H25434984   6.698   2.107   1.731 -0.2669 -0.1728 -0.2902
  116MOL   H25534985   6.860   2.038   1.685  0.5225  0.1449  2.7896
  116MOL   H25634986   6.747   1.950   1.780 -2.4775  1.4655  0.8630
  116MOL   C25734987   6.301   1.731   1.413 -0.3191  0.2510  0.6756
  116MOL   C25834988   6.340   1.588   1.459  0.0165 -0.1076 -1.0924
  116MOL   C25934989   6.473   1.549   1.392 -0.3825 -0.5284 -0.4854
  116MOL   O26034990   6.567   1.505   1.455 -0.3142 -0.0137 -0.0048
  116MOL   O26134991   6.461   1.542   1.262 -0.3748  0.2680 -0.0909
  116MOL   C26234992   6.576   1.526   1.181 -0.3043 -0.3778 -0.3620
  116MOL   C26334993   6.542   1.559   1.033  0.2861  0.2989 -0.6740
  116MOL   H26434994   6.195   1.745   1.394  0.1473  1.0826 -1.6143
  116MOL   H26534995   6.332   1.748   1.309 -1.1523 -1.6737  0.0845
  116MOL   H26634996   6.362   1.593   1.566  0.1100 -1.0515 -1.0695
  116MOL   H26734997   6.656   1.596   1.207 -0.7180 -0.0186 -0.0616
  116MOL   H26834998   6.605   1.421   1.178 -2.6714 -1.0624  0.1186
  116MOL   H26934999   6.636   1.568   0.979  1.4731  0.1593  1.3538
  116MOL   H27035000   6.494   1.657   1.025 -0.4523 -0.1846 -2.3357
  116MOL   H27135001   6.466   1.492   0.992 -0.3632  0.4226  0.2934
  116MOL   C27235002   6.234   1.481   1.433  0.1663  0.2441 -0.2633
  116MOL   C27335003   6.084   1.502   1.474 -0.5817 -0.3309  0.1975
  116MOL   C27435004   6.066   1.583   1.600 -0.3758  0.9749  1.3500
  116MOL   O27535005   6.009   1.694   1.600 -0.3186  0.4542  0.0016
  116MOL   O27635006   6.127   1.532   1.707 -0.1971 -0.0253 -0.6720
  116MOL   C27735007   6.160   1.607   1.823 -0.6161 -0.0042 -0.0788
  116MOL   C27835008   6.143   1.529   1.948  0.1760 -0.5130  0.0073
  116MOL   H27935009   6.239   1.447   1.330 -1.2729 -1.7048  0.2948
  116MOL   H28035010   6.263   1.401   1.501 -1.7832 -0.0986  0.1768
  116MOL   H28135011   6.038   1.572   1.405 -1.2981  1.2553  2.2242
  116MOL   H28235012   6.260   1.651   1.815 -1.6288  2.0934 -1.8431
  116MOL   H28335013   6.096   1.695   1.826  1.5635  1.5743  2.7600
  116MOL   H28435014   6.216   1.449   1.934 -0.6437 -1.5004  1.1954
  116MOL   H28535015   6.047   1.478   1.956  0.3204 -0.9306 -0.8410
  116MOL   H28635016   6.169   1.586   2.038 -0.1768  0.2096 -0.3472
  116MOL   C28735017   6.000   1.371   1.460  0.2071  0.2324  0.2733
  116MOL   C28835018   5.851   1.373   1.500 -0.1742 -0.5000 -0.3623
  116MOL   C28935019   5.755   1.449   1.408  0.1212  0.2428  0.5042
  116MOL   O29035020   5.641   1.483   1.445 -0.2355 -0.5304 -0.3454
  116MOL   O29135021   5.809   1.483   1.293 -0.5997 -0.2891 -0.4080
  116MOL   C29235022   5.750   1.588   1.219 -0.0592 -0.0454 -0.1064
  116MOL   C29335023   5.830   1.715   1.249  0.4849 -0.5856  0.2802
  116MOL   H29435024   6.010   1.324   1.362  0.5837 -0.7646  0.7800
  116MOL   H29535025   6.050   1.305   1.531 -2.2971 -2.6857 -0.5948
  116MOL   H29635026   5.802   1.277   1.517  0.1878 -1.0290 -2.1796
  116MOL   H29735027   5.756   1.562   1.113  3.9913 -0.9058  0.2550
  116MOL   H29835028   5.647   1.605   1.251  0.2699 -0.9970  1.4833
  116MOL   H29935029   5.823   1.784   1.165  1.5482 -0.5588  0.2042
  116MOL   H30035030   5.936   1.699   1.267  0.6591  3.0717  3.1434
  116MOL   H30135031   5.796   1.763   1.341  1.8846 -1.0253  1.0363
  116MOL   H30235032   5.850   1.436   1.588  0.7940  1.0647 -1.4376
  117MOL     C135033   5.609   2.639   0.027 -0.0494 -0.0787  0.4676
  117MOL     C235034   5.708   2.556   0.116 -0.3236 -0.6981 -0.3003
  117MOL     C335035   5.848   2.615   0.109  0.2453 -0.4800  0.5664
  117MOL     O435036   5.885   2.702   0.028  0.3072  0.9230 -0.5476
  117MOL     O535037   5.928   2.554   0.208 -0.0290  0.0612  0.2856
  117MOL     C635038   6.067   2.602   0.220  0.2055  0.0907 -0.1550
  117MOL     C735039   6.133   2.501   0.316  0.0650  0.6680 -0.4683
  117MOL     H835040   5.663   2.638   7.840 -1.2142 -5.3097 -0.3191
  117MOL     H935041   5.606   2.744   0.055 -0.5299  0.2161 -0.6647
  117MOL    H1035042   5.676   2.572   0.219  0.2302 -0.5211 -0.1546
  117MOL    H1135043   6.111   2.593   0.121  0.8270 -0.4161  0.1620
  117MOL    H1235044   6.074   2.706   0.251  1.6553  0.4178 -1.5363
  117MOL    H1335045   6.145   2.395   0.290  1.4739 -0.0489  2.8506
  117MOL    H1435046   6.083   2.493   0.413 -1.4513  0.7574 -1.2189
  117MOL    H1535047   6.233   2.539   0.333 -0.1071  0.2879  1.5348
  117MOL    H1635048   5.520   2.584   7.905 -0.0815  0.6648 -0.8133
  117MOL    C1735049   5.706   2.410   0.086  0.3753  1.0977 -0.3361
  117MOL    C1835050   5.580   2.333   0.135 -0.1946 -0.0197 -0.9910
  117MOL    C1935051   5.568   2.325   0.287  0.3264  0.0015  0.5042
  117MOL    O2035052   5.468   2.348   0.344 -0.3547 -0.4645 -0.6936
  117MOL    O2135053   5.687   2.293   0.348  0.0454 -0.4247 -0.2077
  117MOL    C2235054   5.708   2.309   0.486  0.6472 -0.2011 -0.1874
  117MOL    C2335055   5.821   2.405   0.513  0.0565 -0.5264 -0.2614
  117MOL    H2435056   5.709   2.404   7.885 -2.1789 -1.3744 -0.2967
  117MOL    H2535057   5.789   2.359   0.135 -0.0870 -0.0434 -0.7318
  117MOL    H2635058   5.487   2.380   0.103  0.5154  1.6337 -0.6778
  117MOL    H2735059   5.617   2.323   0.544  0.5136 -1.1452 -0.1610
  117MOL    H2835060   5.743   2.208   0.510 -0.6314 -1.0577 -1.8419
  117MOL    H2935061   5.806   2.495   0.454  1.9186  0.6779  1.0486
  117MOL    H3035062   5.918   2.358   0.496  1.5192  2.4372 -0.4467
  117MOL    H3135063   5.824   2.441   0.615 -0.0004 -1.3336  0.0310
  117MOL    C3235064   5.573   2.189   0.069 -0.7353  0.0043  0.3377
  117MOL    C3335065   5.428   2.126   0.064 -1.0830  0.3270 -0.1613
  117MOL    C3435066   5.426   1.977   0.071  0.4394  0.2739 -0.3178
  117MOL    O3535067   5.365   1.921   0.162 -0.2483  0.5459  0.0192
  117MOL    O3635068   5.491   1.918   7.878  0.0494  0.4112  0.4527
  117MOL    C3735069   5.488   1.774   7.857  0.2772  0.1485 -0.7135
  117MOL    C3835070   5.612   1.711   0.022 -0.1684 -0.3911  0.0521
  117MOL    H3935071   5.606   2.188   7.874 -3.4413  0.5761 -0.5684
  117MOL    H4035072   5.630   2.120   0.131 -2.6789 -1.0239  1.0296
  117MOL    H4135073   5.371   2.144   0.155  0.3229  1.5803  0.4978
  117MOL    H4235074   5.395   1.735   7.897 -0.3135  0.2003 -2.0150
  117MOL    H4335075   5.495   1.753   7.750  1.4283  0.4217 -0.7009
  117MOL    H4435076   5.701   1.760   7.891 -1.1831  2.8901  1.7472
  117MOL    H4535077   5.632   1.604   0.012 -3.5686 -0.9729 -1.3004
  117MOL    H4635078   5.604   1.722   0.130 -0.9122 -0.1289 -0.0254
  117MOL    C4735079   5.346   2.173   7.845  0.8708  0.0308  0.0350
  117MOL    C4835080   5.283   2.317   7.845 -0.6827 -0.3222 -0.6416
  117MOL    C4935081   5.211   2.367   0.070 -0.2834 -0.2323 -1.0102
  117MOL    O5035082   5.246   2.468   0.128 -0.3490 -0.0879 -0.3732
  117MOL    O5135083   5.116   2.284   0.115 -0.9773  1.0798 -0.3435
  117MOL    C5235084   5.053   2.304   0.236  0.0411 -0.2599 -0.3965
  117MOL    C5335085   5.134   2.220   0.340  0.2700  0.1586  0.5297
  117MOL    H5435086   5.406   2.147   7.758  2.0001  2.8040 -0.0781
  117MOL    H5535087   5.257   2.111   7.847  1.5784 -1.0277 -0.9663
  117MOL    H5635088   5.365   2.388   7.838 -0.6800 -0.2186  0.3316
  117MOL    H5735089   5.053   2.409   0.264 -3.1996  0.3013 -2.2010
  117MOL    H5835090   4.949   2.273   0.224 -0.5733  1.9685 -1.0166
  117MOL    H5935091   5.239   2.246   0.340  0.0973  0.8819 -0.2321
  117MOL    H6035092   5.131   2.113   0.321  0.3947  0.1630  0.4817
  117MOL    H6135093   5.085   2.246   0.434 -0.4513  0.9622 -0.0501
  117MOL    C6235094   5.181   2.335   7.730  0.2089  0.6949  0.3103
  117MOL    C6335095   5.195   2.474   7.662  0.0448  0.3625 -0.4251
  117MOL    C6435096   5.062   2.553   7.680  0.3069 -0.8763  0.3230
  117MOL    O6535097   5.040   2.632   7.770 -0.2368 -0.2788 -0.0508
  117MOL    O6635098   4.971   2.525   7.575 -0.3296  0.0144  0.0415
  117MOL    C6735099   4.837   2.568   7.586  0.1787  0.1533  0.3397
  117MOL    C6835100   4.820   2.714   7.535  0.0948  0.5683  0.4776
  117MOL    H6935101   5.186   2.253   7.659 -0.4420  1.3646 -0.5159
  117MOL    H7035102   5.079   2.318   7.765  0.6331 -0.5615  0.9992
  117MOL    H7135103   5.268   2.526   7.723  0.8245 -0.8832 -0.2837
  117MOL    H7235104   4.777   2.499   7.526  1.2183 -1.2717  0.8961
  117MOL    H7335105   4.815   2.546   7.691 -0.2641  0.3738  0.2946
  117MOL    H7435106   4.898   2.742   7.464  1.3107 -0.4549  1.3813
  117MOL    H7535107   4.838   2.781   7.620  1.5975  1.0635 -0.2132
  117MOL    H7635108   4.723   2.726   7.488  0.8376 -0.2495 -1.3148
  117MOL    C7735109   5.239   2.461   7.518 -0.1463 -0.1326 -0.1266
  117MOL    C7835110   5.385   2.433   7.505  0.1274  0.2647  0.2040
  117MOL    C7935111   5.483   2.552   7.525 -0.2520  0.4320  0.1469
  117MOL    O8035112   5.579   2.547   7.607 -0.2815 -0.2599 -0.0757
  117MOL    O8135113   5.449   2.659   7.452 -0.0722  0.5920 -0.2044
  117MOL    C8235114   5.522   2.781   7.454  0.7190  0.0487  0.2811
  117MOL    C8335115   5.449   2.877   7.552 -0.1529 -0.0741 -0.3727
  117MOL    H8435116   5.182   2.387   7.462  0.8101 -1.1898  0.2803
  117MOL    H8535117   5.213   2.551   7.463  3.8207  1.4425  0.3728
  117MOL    H8635118   5.413   2.365   7.586 -0.3171  1.4480  1.3743
  117MOL    H8735119   5.626   2.766   7.483  0.4200  1.7613  2.3040
  117MOL    H8835120   5.515   2.819   7.352  1.2014 -3.5934 -1.1801
  117MOL    H8935121   5.359   2.923   7.512 -0.4470  0.7005  1.1263
  117MOL    H9035122   5.509   2.967   7.564  3.9085 -2.6637 -0.3776
  117MOL    H9135123   5.419   2.837   7.649  0.8926  0.2738  0.1026
  117MOL    C9235124   5.408   2.362   7.366  0.0154  0.1114 -0.8525
  117MOL    C9335125   5.359   2.216   7.341  0.1363  0.4001 -0.0918
  117MOL    C9435126   5.411   2.114   7.442  0.4954  0.2204  0.7367
  117MOL    O9535127   5.340   2.067   7.530 -0.4149 -0.0680  0.2274
  117MOL    O9635128   5.540   2.075   7.423  0.7278 -0.2381  0.3842
  117MOL    C9735129   5.609   1.987   7.512  0.1232  0.0077  0.1857
  117MOL    C9835130   5.739   2.055   7.553  0.2600  0.0439 -0.2340
  117MOL    H9935131   5.359   2.419   7.287 -1.1743  1.3015  0.7260
  117MOL   H10035132   5.515   2.359   7.348  0.3710 -0.4260  1.3024
  117MOL   H10135133   5.251   2.212   7.358 -0.3002  0.9467 -2.5580
  117MOL   H10235134   5.555   1.957   7.602  2.8822 -2.0733  1.2194
  117MOL   H10335135   5.627   1.890   7.467  0.4587 -0.0243  0.3872
  117MOL   H10435136   5.816   1.985   7.586 -0.0564 -0.2530 -0.1201
  117MOL   H10535137   5.733   2.130   7.633 -0.6006 -1.1057  0.8011
  117MOL   H10635138   5.773   2.107   7.463 -1.1114 -1.2418 -1.5168
  117MOL   C10735139   5.378   2.170   7.189  0.5774  0.2117 -0.3707
  117MOL   C10835140   5.295   2.039   7.151 -0.4848  0.1818  0.4313
  117MOL   C10935141   5.388   1.919   7.135  0.6464 -0.2092 -0.1550
  117MOL   O11035142   5.384   1.823   7.215 -0.2351  0.2500 -0.2143
  117MOL   O11135143   5.472   1.931   7.031  0.2035  0.2457 -0.3158
  117MOL   C11235144   5.576   1.829   7.023 -0.0606  0.0334  0.0934
  117MOL   C11335145   5.702   1.889   7.078 -0.2594 -0.2239  0.4083
  117MOL   H11435146   5.351   2.259   7.133 -0.0700 -0.2886 -0.8630
  117MOL   H11535147   5.483   2.160   7.165  0.5713  0.2815 -0.4250
  117MOL   H11635148   5.224   2.004   7.226 -0.2951 -0.0272  0.5117
  117MOL   H11735149   5.542   1.746   7.085 -0.9090  2.2412  2.6439
  117MOL   H11835150   5.584   1.784   6.924  0.7897  2.1645 -0.8179
  117MOL   H11935151   5.781   1.821   7.111  0.2444  0.3206  0.3209
  117MOL   H12035152   5.683   1.943   7.171  0.5582  0.3664  0.2386
  117MOL   H12135153   5.739   1.967   7.012 -2.6180 -1.3726 -2.4336
  117MOL   C12235154   5.215   2.059   7.008  0.2097 -0.2197 -0.6977
  117MOL   C12335155   5.094   2.151   7.022  0.7283 -0.6370 -0.1735
  117MOL   C12435156   4.975   2.085   7.103 -0.5377  0.0987 -0.1239
  117MOL   O12535157   4.918   2.140   7.194  0.3892  0.7057 -0.1610
  117MOL   O12635158   4.947   1.962   7.064 -0.1679 -0.4098  0.0061
  117MOL   C12735159   4.879   1.874   7.156  0.4950  0.4753  0.3093
  117MOL   C12835160   4.894   1.732   7.085 -0.8038 -0.1703 -0.6164
  117MOL   H12935161   5.289   2.098   6.938  0.8576  0.5372  0.3999
  117MOL   H13035162   5.189   1.962   6.965  2.4784 -1.3020  0.2578
  117MOL   H13135163   5.117   2.239   7.083 -1.4463  0.0334 -0.2664
  117MOL   H13235164   4.933   1.862   7.250  1.3471  0.4117 -0.1919
  117MOL   H13335165   4.779   1.909   7.183  0.9954  0.8140  1.7488
  117MOL   H13435166   4.842   1.653   7.141  0.0364 -0.9082 -0.8568
  117MOL   H13535167   5.002   1.713   7.087 -0.9275 -0.9166 -0.7056
  117MOL   H13635168   4.855   1.736   6.983 -0.9562  2.6573 -0.4861
  117MOL   C13735169   5.048   2.217   6.894  0.4828 -0.2087 -0.4784
  117MOL   C13835170   5.133   2.328   6.833 -0.4948  0.5992 -0.0984
  117MOL   C13935171   5.162   2.440   6.933  0.4881 -0.1920  0.1758
  117MOL   O14035172   5.280   2.470   6.957  0.0223 -0.1092  0.5790
  117MOL   O14135173   5.048   2.492   7.003  0.4875  0.2990 -0.6391
  117MOL   C14235174   5.065   2.565   7.119 -0.7019  0.1024  0.1986
  117MOL   C14335175   4.935   2.614   7.182  1.1991 -0.4272  0.0473
  117MOL   H14435176   5.035   2.138   6.820 -0.1565  0.0426 -0.6432
  117MOL   H14535177   4.946   2.251   6.913  1.1554  1.4386  0.3067
  117MOL   H14635178   5.236   2.293   6.830 -0.7413 -0.2157  0.7919
  117MOL   H14735179   5.116   2.503   7.192  1.1902  1.1896 -0.1793
  117MOL   H14835180   5.126   2.654   7.103 -0.2895 -0.2300 -0.0876
  117MOL   H14935181   4.885   2.693   7.125  2.0491  1.1519  1.4387
  117MOL   H15035182   4.954   2.676   7.269  1.3428 -3.2386  2.0704
  117MOL   H15135183   4.864   2.540   7.217  0.0757  1.4058  1.7296
  117MOL   C15235184   5.071   2.373   6.705  0.3228  0.2538  0.8460
  117MOL   C15335185   5.176   2.413   6.591 -0.3343 -0.0092 -0.0283
  117MOL   C15435186   5.244   2.543   6.631 -0.0384 -0.8019 -0.7199
  117MOL   O15535187   5.193   2.626   6.702  0.1712  0.3143  0.0755
  117MOL   O15635188   5.371   2.557   6.577 -0.1091 -0.2359 -0.4696
  117MOL   C15735189   5.432   2.688   6.590  0.0922 -0.0532 -1.0041
  117MOL   C15835190   5.546   2.701   6.489  0.4307  0.0699  0.5336
  117MOL   H15935191   4.999   2.304   6.663  0.8405 -0.4712  1.1368
  117MOL   H16035192   5.013   2.464   6.719 -0.2537  0.5390 -2.9841
  117MOL   H16135193   5.242   2.327   6.583 -1.4028 -0.7902 -0.4802
  117MOL   H16235194   5.368   2.771   6.562 -0.5892 -0.5255 -0.8719
  117MOL   H16335195   5.475   2.700   6.690 -2.2169  2.3513 -0.2422
  117MOL   H16435196   5.587   2.603   6.464 -0.1162 -0.1501  0.4914
  117MOL   H16535197   5.624   2.772   6.517  0.3382  0.2320  0.3871
  117MOL   H16635198   5.516   2.737   6.390 -0.2327  1.0015  1.0638
  117MOL   C16735199   5.127   2.435   6.449  0.5466  0.7208 -0.8360
  117MOL   C16835200   5.221   2.403   6.329 -0.5889  0.6004 -0.0408
  117MOL   C16935201   5.201   2.499   6.211  0.6230 -0.0521  0.3438
  117MOL   O17035202   5.283   2.580   6.180 -0.2981  0.0563 -0.1793
  117MOL   O17135203   5.083   2.485   6.155 -0.0144  0.1439 -0.2244
  117MOL   C17235204   5.026   2.575   6.055 -0.4858 -0.0506 -0.4901
  117MOL   C17335205   4.894   2.505   6.006  0.2567  0.0671 -0.2737
  117MOL   H17435206   5.040   2.373   6.425  0.8980  0.6212 -1.8903
  117MOL   H17535207   5.086   2.535   6.440 -0.5599  0.5005  1.4341
  117MOL   H17635208   5.318   2.440   6.364 -0.4837 -1.2467  1.6562
  117MOL   H17735209   4.992   2.664   6.109 -0.3574 -0.6248  0.5445
  117MOL   H17835210   5.083   2.612   5.970  2.6221 -0.3476  1.3947
  117MOL   H17935211   4.906   2.423   5.936  0.6915  1.0458 -1.3738
  117MOL   H18035212   4.830   2.570   5.946  1.7066  0.7026 -1.1804
  117MOL   H18135213   4.838   2.480   6.096  0.9329 -0.4204  0.0142
  117MOL   C18235214   5.233   2.255   6.294 -0.2889 -0.6417  0.2421
  117MOL   C18335215   5.346   2.218   6.197 -0.0582  0.7851  0.5872
  117MOL   C18435216   5.349   2.071   6.164  0.2320  0.5667 -0.2394
  117MOL   O18535217   5.337   1.985   6.249 -0.0935 -0.4695 -0.4891
  117MOL   O18635218   5.378   2.056   6.033  0.3525  0.8459  0.2828
  117MOL   C18735219   5.393   1.930   5.976 -0.6009 -0.5042  0.8294
  117MOL   C18835220   5.285   1.913   5.873 -0.0672 -0.2216  0.5521
  117MOL   H18935221   5.249   2.193   6.382  0.6120  0.5110  0.9039
  117MOL   H19035222   5.142   2.225   6.242 -0.3582 -2.8539  1.5727
  117MOL   H19135223   5.322   2.271   6.105  0.0908  1.0175  0.6814
  117MOL   H19235224   5.489   1.919   5.925 -0.8888 -0.3646  0.2512
  117MOL   H19335225   5.388   1.853   6.053  2.7743  0.2495  1.9229
  117MOL   H19435226   5.187   1.892   5.916 -0.5448 -2.3420 -1.4791
  117MOL   H19535227   5.309   1.816   5.830  1.9466 -0.1524  1.4786
  117MOL   H19635228   5.282   1.972   5.781 -1.1556 -1.8908 -0.5142
  117MOL   C19735229   5.483   2.264   6.248  0.1806  0.3939 -0.2722
  117MOL   C19835230   5.603   2.240   6.154  0.3094  0.3431 -0.0444
  117MOL   C19935231   5.702   2.126   6.203 -0.8866  0.3788 -0.0310
  117MOL   O20035232   5.706   2.012   6.146 -0.4999  0.1910  0.2421
  117MOL   O20135233   5.770   2.167   6.313 -0.2549  0.0004  0.2215
  117MOL   C20235234   5.870   2.079   6.355 -0.6301  0.3067  0.3287
  117MOL   C20335235   5.947   2.157   6.459 -0.2872 -0.0746  0.2392
  117MOL   H20435236   5.483   2.369   6.274 -1.8732 -0.0864  1.8230
  117MOL   H20535237   5.508   2.218   6.344  1.3842 -0.1491 -0.8289
  117MOL   H20635238   5.564   2.196   6.063  1.1043 -0.7443  0.1296
  117MOL   H20735239   5.831   1.986   6.397  0.2339  0.0556  0.5907
  117MOL   H20835240   5.932   2.044   6.273 -0.4454 -0.3855  0.7583
  117MOL   H20935241   5.970   2.255   6.416 -0.6203  0.1667  0.6008
  117MOL   H21035242   6.043   2.114   6.488  0.6450  1.2264 -0.8181
  117MOL   H21135243   5.887   2.182   6.547  0.5248  1.5548  0.3468
  117MOL   C21235244   5.680   2.371   6.112 -0.1153 -0.0685 -0.2686
  117MOL   C21335245   5.791   2.346   6.012 -0.3043 -0.2305 -0.6005
  117MOL   C21435246   5.870   2.478   5.980 -0.1907  0.7604 -0.0190
  117MOL   O21535247   5.953   2.483   5.890 -0.0003  0.2442 -0.1504
  117MOL   O21635248   5.838   2.578   6.064  0.1034 -0.6274  0.3082
  117MOL   C21735249   5.919   2.698   6.051  0.9603 -0.3801  0.1264
  117MOL   C21835250   5.917   2.767   6.189 -0.0990  0.2886  0.8533
  117MOL   H21935251   5.599   2.433   6.072  1.0501 -0.0035 -2.6452
  117MOL   H22035252   5.719   2.417   6.203  0.6799  1.0292 -1.1571
  117MOL   H22135253   5.852   2.285   6.079 -1.6525  0.2960  1.1681
  117MOL   H22235254   6.019   2.676   6.014 -0.8284 -1.8032 -4.2098
  117MOL   H22335255   5.869   2.763   5.978  1.7644  0.7238  0.5459
  117MOL   H22435256   5.941   2.696   6.268  1.0789  0.8648  1.0309
  117MOL   H22535257   5.825   2.806   6.232 -0.0575 -0.8013  1.9637
  117MOL   H22635258   5.994   2.844   6.179  0.4363 -0.3269  0.1222
  117MOL   C22735259   5.759   2.272   5.881 -0.1519  0.0339 -0.2236
  117MOL   C22835260   5.636   2.326   5.795  0.3673 -0.3801  0.7101
  117MOL   C22935261   5.595   2.215   5.707 -0.1973  0.3557 -0.1325
  117MOL   O23035262   5.490   2.149   5.727 -0.6649 -0.0598  0.5693
  117MOL   O23135263   5.698   2.174   5.633  0.9106  0.3270  0.5101
  117MOL   C23235264   5.692   2.054   5.561  0.2263 -0.9206  0.5530
  117MOL   C23335265   5.720   1.933   5.649  0.2888  0.2053 -0.3986
  117MOL   H23435266   5.841   2.251   5.812 -0.8239 -0.5072 -0.8787
  117MOL   H23535267   5.723   2.175   5.915  1.7604 -0.9401 -0.9201
  117MOL   H23635268   5.550   2.343   5.859  0.4521  4.4600 -0.2842
  117MOL   H23735269   5.595   2.055   5.511  0.8116 -1.7703 -0.6103
  117MOL   H23835270   5.758   2.050   5.475 -1.7518 -0.5307 -1.0171
  117MOL   H23935271   5.811   1.941   5.708 -1.1077 -1.2469  2.0768
  117MOL   H24035272   5.724   1.842   5.590 -0.7037  0.0365 -0.2156
  117MOL   H24135273   5.634   1.908   5.712  1.5682 -1.5363  0.6956
  117MOL   C24235274   5.662   2.458   5.709 -0.2879  0.0288 -1.0659
  117MOL   C24335275   5.547   2.553   5.694 -0.3131  0.1984  0.5242
  117MOL   C24435276   5.505   2.608   5.826 -0.3411  0.1137  0.5954
  117MOL   O24535277   5.429   2.542   5.894  0.1015  0.1943  0.5698
  117MOL   O24635278   5.550   2.730   5.859 -0.4473 -0.7600  0.1648
  117MOL   C24735279   5.524   2.767   5.995 -0.1486  0.1325 -0.1413
  117MOL   C24835280   5.581   2.906   6.019 -0.3029 -0.4508 -0.2537
  117MOL   H24935281   5.740   2.522   5.750  0.2326  0.7554 -3.1037
  117MOL   H25035282   5.706   2.442   5.610 -1.1777  0.9632 -1.6176
  117MOL   H25135283   5.584   2.639   5.637 -1.5765 -0.7102 -1.7580
  117MOL   H25235284   5.419   2.759   6.026  0.0264  0.0637  0.4256
  117MOL   H25335285   5.561   2.695   6.068  0.4551  1.9461  1.3765
  117MOL   H25435286   5.551   2.935   6.119  0.1238 -0.1611 -0.2106
  117MOL   H25535287   5.543   2.974   5.942 -0.8420  0.1254  0.5156
  117MOL   H25635288   5.689   2.902   6.031 -0.4411 -2.8323  0.4581
  117MOL   C25735289   5.439   2.497   5.604  0.4195 -0.6748 -0.7217
  117MOL   C25835290   5.403   2.578   5.476  1.0353  0.2366 -0.5140
  117MOL   C25935291   5.330   2.710   5.510  0.3236  0.1150  0.0484
  117MOL   O26035292   5.297   2.745   5.625 -0.0051  0.0957 -0.1235
  117MOL   O26135293   5.306   2.782   5.401 -0.1667  0.3687 -0.6030
  117MOL   C26235294   5.237   2.908   5.415 -0.1572  0.2657 -0.6054
  117MOL   C26335295   5.139   2.925   5.307  0.4381  0.9481  0.3178
  117MOL   H26435296   5.464   2.401   5.560 -0.6692 -0.4944 -1.7627
  117MOL   H26535297   5.351   2.480   5.666  0.9375 -0.4348  0.0871
  117MOL   H26635298   5.497   2.604   5.426  1.8663  1.8809  1.8242
  117MOL   H26735299   5.199   2.928   5.515 -0.4916 -2.0896 -0.2436
  117MOL   H26835300   5.309   2.989   5.405 -0.4133  0.4618 -0.8810
  117MOL   H26935301   5.187   2.894   5.214  0.1466 -1.6883  0.9977
  117MOL   H27035302   5.103   3.027   5.297 -3.8181 -0.3546  1.3670
  117MOL   H27135303   5.053   2.859   5.319  0.5874  1.1751  2.9617
  117MOL   C27235304   5.320   2.487   5.373  0.0809  0.1814  0.5957
  117MOL   C27335305   5.181   2.454   5.429 -0.4444  0.1043 -0.1969
  117MOL   C27435306   5.173   2.341   5.526 -0.0920  0.2908  0.5786
  117MOL   O27535307   5.256   2.250   5.524 -0.1068  0.2725 -0.7371
  117MOL   O27635308   5.079   2.355   5.615  0.4719  0.6103  0.8046
  117MOL   C27735309   5.071   2.265   5.724  0.7952 -0.2761  0.0179
  117MOL   C27835310   5.170   2.278   5.840 -0.0531  0.5783  0.0463
  117MOL   H27935311   5.304   2.543   5.281  0.4022  1.7482  1.4905
  117MOL   H28035312   5.371   2.394   5.345 -0.9996  0.2413 -1.7169
  117MOL   H28135313   5.148   2.544   5.481 -1.5741 -0.5033  0.1746
  117MOL   H28235314   4.974   2.281   5.771 -0.6792 -1.6660 -2.4337
  117MOL   H28335315   5.071   2.159   5.698 -0.6728 -0.6671  1.5247
  117MOL   H28435316   5.273   2.292   5.809  0.5830  1.2522  2.3494
  117MOL   H28535317   5.173   2.186   5.898 -0.8494  0.9767  0.7541
  117MOL   H28635318   5.137   2.346   5.920  3.8909  1.8826  0.6714
  117MOL   C28735319   5.077   2.427   5.320  0.1068 -0.1792  0.1208
  117MOL   C28835320   5.034   2.546   5.233  0.1443  0.6145  0.4917
  117MOL   C28935321   5.101   2.555   5.088  0.0009  0.3901 -0.2404
  117MOL   O29035322   5.138   2.455   5.025  0.3174  0.0246  0.2674
  117MOL   O29135323   5.126   2.682   5.057 -0.3555 -0.2275  0.2350
  117MOL   C29235324   5.177   2.706   4.931  0.4364  0.0048  0.5337
  117MOL   C29335325   5.169   2.857   4.891  0.1212  0.1134  0.4560
  117MOL   H29435326   5.111   2.341   5.262 -0.1091  0.5436 -1.0929
  117MOL   H29535327   4.986   2.407   5.376  1.4775 -2.5501  1.6243
  117MOL   H29635328   4.925   2.548   5.231  0.1108 -0.4387  0.6426
  117MOL   H29735329   5.285   2.693   4.932  0.5118  0.6636  1.3684
  117MOL   H29835330   5.128   2.649   4.851  0.4853  0.5102  0.1348
  117MOL   H29935331   5.224   2.877   4.799 -2.2020  0.0459 -0.9830
  117MOL   H30035332   5.199   2.923   4.972  1.7496  0.0030 -0.0247
  117MOL   H30135333   5.069   2.888   4.860  0.1517 -0.8197 -0.6364
  117MOL   H30235334   5.061   2.638   5.285  0.7618  1.2640 -0.9531
  118MOL     C135335   5.338   2.820   4.073  0.0928  0.1412  0.5767
  118MOL     C235336   5.433   2.697   4.082  0.1418 -0.2720  0.1088
  118MOL     C335337   5.393   2.593   3.972 -0.1872 -0.3226  0.3836
  118MOL     O435338   5.479   2.517   3.919  0.3123 -0.5079 -0.0279
  118MOL     O535339   5.256   2.584   3.960 -0.6026 -0.6624 -0.1025
  118MOL     C635340   5.209   2.487   3.867  0.3920 -0.4485  0.4638
  118MOL     C735341   5.178   2.562   3.736  0.3653  0.9557  0.3333
  118MOL     H835342   5.342   2.879   3.982  1.6845  0.3133  0.7465
  118MOL     H935343   5.361   2.896   4.148  2.4029  3.3221 -3.1822
  118MOL    H1035344   5.537   2.725   4.061  0.1271 -0.7693 -0.6757
  118MOL    H1135345   5.281   2.406   3.854  0.3932 -0.3386 -0.2147
  118MOL    H1235346   5.122   2.435   3.908 -0.4943 -0.4541 -1.3966
  118MOL    H1335347   5.280   2.589   3.709  1.3274 -1.0118  1.8711
  118MOL    H1435348   5.122   2.655   3.747 -0.3175  0.8169 -1.7358
  118MOL    H1535349   5.138   2.504   3.653 -2.7113  1.7011  1.2328
  118MOL    H1635350   5.236   2.784   4.086  0.1462 -0.5105 -0.7375
  118MOL    C1735351   5.436   2.633   4.224  0.1619 -0.0771 -0.0418
  118MOL    C1835352   5.540   2.516   4.254  0.7994 -0.3378 -0.9230
  118MOL    C1935353   5.489   2.432   4.369  0.9394 -0.2138 -0.0631
  118MOL    O2035354   5.470   2.311   4.359  0.2092 -0.2418  0.6752
  118MOL    O2135355   5.473   2.505   4.486  0.4504 -0.0801 -0.7650
  118MOL    C2235356   5.426   2.437   4.603  0.3829 -0.4199 -0.5129
  118MOL    C2335357   5.447   2.531   4.728  0.6801 -0.0009  0.1927
  118MOL    H2435358   5.453   2.717   4.292  0.9954  0.3428 -0.7573
  118MOL    H2535359   5.334   2.608   4.254  0.8180 -1.3246  1.2061
  118MOL    H2635360   5.538   2.455   4.163  2.9493  1.1548 -2.0273
  118MOL    H2735361   5.324   2.401   4.587 -0.2583  1.6782 -1.2433
  118MOL    H2835362   5.477   2.341   4.617  0.4410 -0.2214  0.6648
  118MOL    H2935363   5.401   2.630   4.716  0.1563 -0.0884  1.4055
  118MOL    H3035364   5.554   2.547   4.742  0.4341  5.1343 -2.6749
  118MOL    H3135365   5.390   2.495   4.813 -0.0996  1.7807  0.4622
  118MOL    C3235366   5.681   2.569   4.269 -0.2451 -0.3382 -0.3854
  118MOL    C3335367   5.787   2.473   4.212 -0.5630  0.0827  0.0158
  118MOL    C3435368   5.794   2.472   4.057 -0.3557 -0.3108 -0.6302
  118MOL    O3535369   5.811   2.372   3.987  0.2142 -0.2099  0.2625
  118MOL    O3635370   5.793   2.605   4.016 -0.2022  0.0251  0.5962
  118MOL    C3735371   5.803   2.627   3.876  0.1998  0.1710  0.3650
  118MOL    C3835372   5.738   2.755   3.832 -0.0489 -1.1343 -0.2929
  118MOL    H3935373   5.682   2.666   4.221 -2.2521  0.1086  0.4123
  118MOL    H4035374   5.723   2.592   4.367  0.5016 -2.4241 -0.1880
  118MOL    H4135375   5.885   2.511   4.241 -0.2271 -1.1101  0.4677
  118MOL    H4235376   5.898   2.627   3.824 -1.0616  0.4591 -2.0028
  118MOL    H4335377   5.758   2.536   3.837  2.2023 -1.2895  1.3673
  118MOL    H4435378   5.634   2.771   3.862  0.4801 -0.8326  1.4724
  118MOL    H4535379   5.737   2.759   3.723  0.7896 -0.6991 -0.2863
  118MOL    H4635380   5.794   2.835   3.880 -0.8575  1.4885 -3.5308
  118MOL    C4735381   5.795   2.327   4.262  0.6181 -0.0900  0.1138
  118MOL    C4835382   5.818   2.303   4.413  0.1874  0.0784 -0.1052
  118MOL    C4935383   5.954   2.361   4.447  1.0255  0.3452  0.1218
  118MOL    O5035384   5.961   2.456   4.530 -0.4203 -0.3393 -0.2431
  118MOL    O5135385   6.057   2.306   4.385  0.3118 -0.3196  0.2537
  118MOL    C5235386   6.179   2.378   4.378 -0.2450  0.3339 -0.0916
  118MOL    C5335387   6.221   2.402   4.233 -0.2659  0.1610  0.4354
  118MOL    H5435388   5.698   2.284   4.235  0.2119 -0.2132  1.7096
  118MOL    H5535389   5.855   2.261   4.199 -1.1356 -0.7733 -0.8887
  118MOL    H5635390   5.751   2.365   4.473 -0.7865 -1.3434  0.2861
  118MOL    H5735391   6.181   2.475   4.429  3.3059 -0.9049  2.3323
  118MOL    H5835392   6.252   2.313   4.426 -1.0048 -0.0043  0.6311
  118MOL    H5935393   6.307   2.468   4.231  0.2920 -0.5944 -0.7244
  118MOL    H6035394   6.143   2.457   4.181  0.7481  1.3956  0.2153
  118MOL    H6135395   6.241   2.307   4.184 -1.4459 -1.2311  2.5712
  118MOL    C6235396   5.791   2.159   4.448  0.0373  0.4776  0.0612
  118MOL    C6335397   5.830   2.114   4.597  0.4381  0.2719 -0.3631
  118MOL    C6435398   5.876   1.960   4.599 -0.2922 -1.4940 -0.1079
  118MOL    O6535399   5.991   1.937   4.551  0.1827 -0.2126  0.0830
  118MOL    O6635400   5.781   1.875   4.631 -0.5531 -0.0258  0.6093
  118MOL    C6735401   5.808   1.734   4.612 -0.9343  0.4971 -0.2780
  118MOL    C6835402   5.742   1.689   4.482  0.3090  0.4794  0.9791
  118MOL    H6935403   5.685   2.134   4.438 -0.0129  1.1512 -1.1107
  118MOL    H7035404   5.849   2.090   4.387  0.6653  0.5177  0.6019
  118MOL    H7135405   5.920   2.173   4.612  0.2515  0.7516 -1.0556
  118MOL    H7235406   5.913   1.712   4.596 -1.2518 -0.4688 -1.0719
  118MOL    H7335407   5.767   1.669   4.690  1.7956 -2.5194 -1.2431
  118MOL    H7435408   5.782   1.749   4.401  1.2552  0.3619  1.3462
  118MOL    H7535409   5.634   1.704   4.481  0.3494  0.7058  0.3535
  118MOL    H7635410   5.758   1.584   4.458 -1.4997  0.4993 -0.3793
  118MOL    C7735411   5.725   2.162   4.697  0.2823  0.5843  0.4033
  118MOL    C7835412   5.741   2.123   4.842  0.3221  0.3345 -0.0679
  118MOL    C7935413   5.614   2.158   4.916  0.9609  0.0345  0.8215
  118MOL    O8035414   5.513   2.080   4.921 -0.2069  0.4703 -0.5955
  118MOL    O8135415   5.617   2.280   4.973  0.2592 -0.0914 -0.2228
  118MOL    C8235416   5.504   2.330   5.043  0.1568  0.4152  0.2047
  118MOL    C8335417   5.524   2.472   5.064 -0.1630  0.1666  0.3664
  118MOL    H8435418   5.708   2.269   4.692 -0.2227  0.4031 -2.3048
  118MOL    H8535419   5.627   2.126   4.666 -0.5666  1.9071  1.4834
  118MOL    H8635420   5.749   2.015   4.858  1.3998  0.1966 -1.4374
  118MOL    H8735421   5.419   2.303   4.979 -1.0337  0.2782  1.8061
  118MOL    H8835422   5.480   2.288   5.141  1.0712  3.3693  1.7245
  118MOL    H8935423   5.578   2.499   5.155 -0.3240  3.6500 -0.4944
  118MOL    H9035424   5.422   2.507   5.075 -0.9165 -1.7567 -0.3850
  118MOL    H9135425   5.570   2.529   4.983  1.1424 -0.5662  0.5641
  118MOL    C9235426   5.870   2.188   4.889 -1.0461  0.4523 -0.0985
  118MOL    C9335427   5.936   2.108   5.012 -0.2727 -0.0945  0.3083
  118MOL    C9435428   5.864   2.139   5.144 -1.0766  0.1888  0.4832
  118MOL    O9535429   5.841   2.050   5.234  0.4071 -0.2854  0.0119
  118MOL    O9635430   5.849   2.276   5.161 -0.0379  0.2504 -0.3270
  118MOL    C9735431   5.804   2.315   5.287 -0.0112  0.2542 -0.3940
  118MOL    C9835432   5.826   2.467   5.329 -0.0106 -0.7695 -0.1189
  118MOL    H9935433   5.947   2.188   4.812 -0.0276 -0.4618  0.8926
  118MOL   H10035434   5.848   2.292   4.914  0.2421  0.9673 -1.0556
  118MOL   H10135435   5.925   2.004   4.981 -2.7472  0.3033 -0.2855
  118MOL   H10235436   5.699   2.287   5.293 -0.1771  1.3418  2.7967
  118MOL   H10335437   5.854   2.263   5.369 -0.4153  1.0136  0.3450
  118MOL   H10435438   5.773   2.539   5.267 -1.0870 -0.0253  1.6250
  118MOL   H10535439   5.931   2.496   5.330 -0.1490 -0.2963  1.1652
  118MOL   H10635440   5.814   2.478   5.437  0.8837  1.2104 -0.1974
  118MOL   C10735441   6.088   2.129   5.018 -0.4443  0.2481  0.2170
  118MOL   C10835442   6.144   2.257   5.084 -0.1517  0.4681 -0.3594
  118MOL   C10935443   6.121   2.386   5.006 -0.1973  0.2265  0.6641
  118MOL   O11035444   6.039   2.469   5.042 -0.2363 -0.6370 -0.3217
  118MOL   O11135445   6.187   2.394   4.893  0.1467  0.6619  0.0517
  118MOL   C11235446   6.167   2.514   4.814  0.5469  0.3057  0.4741
  118MOL   C11335447   6.296   2.552   4.742  0.1143  0.2331  0.0991
  118MOL   H11435448   6.116   2.046   5.082 -0.5433  0.4435  0.5142
  118MOL   H11535449   6.118   2.107   4.916 -0.8151  0.9207 -0.0411
  118MOL   H11635450   6.087   2.269   5.176  0.5955 -0.4821  0.2421
  118MOL   H11735451   6.089   2.493   4.741  0.7251  0.6480  0.1900
  118MOL   H11835452   6.141   2.601   4.875  1.5765  0.5573  0.5644
  118MOL   H11935453   6.358   2.617   4.804  1.1745 -0.7882  0.1275
  118MOL   H12035454   6.262   2.613   4.658 -0.5735 -1.5105 -0.9127
  118MOL   H12135455   6.348   2.463   4.705  3.4535  1.1981  2.2568
  118MOL   C12235456   6.297   2.248   5.122 -0.6643 -0.2273 -0.4034
  118MOL   C12335457   6.358   2.346   5.230  0.0243  0.3203 -0.0739
  118MOL   C12435458   6.263   2.368   5.350 -0.2364 -0.2913  0.4172
  118MOL   O12535459   6.234   2.483   5.392  0.2280  0.1368  0.0146
  118MOL   O12635460   6.214   2.259   5.406 -0.0945 -0.1338 -0.3186
  118MOL   C12735461   6.136   2.269   5.525 -0.6251 -0.4606 -0.0114
  118MOL   C12835462   6.092   2.132   5.584  0.3845  1.1404 -0.3341
  118MOL   H12935463   6.304   2.148   5.164  0.4725 -0.5556 -1.3690
  118MOL   H13035464   6.352   2.245   5.028  1.1758 -0.7752  0.6694
  118MOL   H13135465   6.435   2.291   5.284  0.0342 -1.0946 -1.4779
  118MOL   H13235466   6.195   2.318   5.602 -0.3225 -0.0917 -0.4784
  118MOL   H13335467   6.044   2.325   5.511  0.7968  1.7971 -0.5070
  118MOL   H13435468   6.058   2.146   5.687 -0.8035 -0.3319 -0.5134
  118MOL   H13535469   6.176   2.061   5.588 -0.8971 -0.3564  0.8671
  118MOL   H13635470   6.019   2.083   5.521 -0.5179  0.5430  1.1433
  118MOL   C13735471   6.416   2.481   5.188  0.5007  0.5160  0.6893
  118MOL   C13835472   6.521   2.475   5.074 -0.4425  0.3113 -0.2756
  118MOL   C13935473   6.633   2.372   5.096  0.2745 -0.2382  1.3000
  118MOL   O14035474   6.721   2.383   5.176 -0.2664 -0.1244  0.1950
  118MOL   O14135475   6.620   2.271   5.007 -0.0697 -0.3318  0.5217
  118MOL   C14235476   6.709   2.167   4.985 -0.0265  0.4821  0.8707
  118MOL   C14335477   6.664   2.048   5.070 -0.0635  0.2701  0.3329
  118MOL   H14435478   6.337   2.547   5.155  0.6476 -0.0669 -0.8749
  118MOL   H14535479   6.460   2.531   5.274  0.1923  2.1599 -0.0877
  118MOL   H14635480   6.471   2.430   4.987  0.0430  0.0840 -0.4370
  118MOL   H14735481   6.715   2.139   4.879 -1.9102 -0.6668  1.0358
  118MOL   H14835482   6.811   2.190   5.014  0.6762 -1.6457  0.1567
  118MOL   H14935483   6.568   2.009   5.037  0.5695 -1.8971  0.9748
  118MOL   H15035484   6.660   2.074   5.176  0.8833  1.1506  0.1615
  118MOL   H15135485   6.740   1.971   5.080 -1.6200 -1.0265  2.6676
  118MOL   C15235486   6.575   2.616   5.038  0.1644 -0.4258 -0.2165
  118MOL   C15335487   6.656   2.632   4.903 -0.4736 -0.3327  0.0003
  118MOL   C15435488   6.797   2.560   4.902 -1.0485  0.4188  0.1008
  118MOL   O15535489   6.828   2.495   4.804 -0.0272 -0.7237  0.2980
  118MOL   O15635490   6.880   2.601   4.996  0.1430  0.1366  0.1925
  118MOL   C15735491   6.988   2.510   5.022  0.2902 -0.8814 -0.1635
  118MOL   C15835492   7.081   2.573   5.125  0.1431 -0.7057 -0.3700
  118MOL   H15935493   6.502   2.697   5.048 -0.1694 -0.4260 -2.4695
  118MOL   H16035494   6.636   2.649   5.123 -1.6100 -0.0387  0.9395
  118MOL   H16135495   6.600   2.570   4.831  1.1500  0.1136 -1.6810
  118MOL   H16235496   6.939   2.418   5.056 -0.2511 -0.3032  0.6403
  118MOL   H16335497   7.049   2.503   4.932 -0.9595 -0.7977 -1.0331
  118MOL   H16435498   7.034   2.573   5.223 -0.9573 -2.2072 -0.8810
  118MOL   H16535499   7.116   2.672   5.095 -0.0778 -0.7006 -0.6142
  118MOL   H16635500   7.171   2.511   5.126  0.7291  0.1610  1.6947
  118MOL   C16735501   6.677   2.784   4.864  0.0683 -0.3296  0.1789
  118MOL   C16835502   6.742   2.803   4.720 -0.5319 -0.9027 -0.2854
  118MOL   C16935503   6.812   2.935   4.696  0.3195 -0.5001  0.4620
  118MOL   O17035504   6.812   3.029   4.773  0.0655  0.2100  0.6668
  118MOL   O17135505   6.869   2.930   4.566  0.1783 -0.3101  0.4426
  118MOL   C17235506   6.936   3.048   4.520  0.0133 -0.1673 -0.4477
  118MOL   C17335507   7.063   3.006   4.448  0.1593 -0.1066  0.1954
  118MOL   H17435508   6.580   2.834   4.866  0.3058  0.1555 -0.2543
  118MOL   H17535509   6.747   2.821   4.939  0.3827  0.0659 -0.3095
  118MOL   H17635510   6.813   2.721   4.706  1.1901  0.2353  1.4943
  118MOL   H17735511   6.868   3.093   4.447  1.6939 -1.0468 -2.6461
  118MOL   H17835512   6.959   3.119   4.598  1.1025 -0.5175 -0.4340
  118MOL   H17935513   7.130   2.948   4.511  0.0188  0.3014  0.7320
  118MOL   H18035514   7.125   3.095   4.444 -2.5721  1.8833  0.2787
  118MOL   H18135515   7.042   2.954   4.354 -0.3227 -0.9190  0.7461
  118MOL   C18235516   6.619   2.785   4.623 -0.6187  0.3407 -0.5755
  118MOL   C18335517   6.656   2.692   4.505 -0.7765  0.2080 -0.0756
  118MOL   C18435518   6.619   2.763   4.374  0.5959  0.0254 -0.4709
  118MOL   O18535519   6.508   2.737   4.323 -0.0365 -0.5176  0.0005
  118MOL   O18635520   6.717   2.833   4.325 -0.3043 -0.2222 -0.3871
  118MOL   C18735521   6.699   2.883   4.193 -0.4222 -0.2079  0.1829
  118MOL   C18835522   6.819   2.978   4.154  0.2796 -0.1734 -0.0167
  118MOL   H18935523   6.531   2.733   4.662 -0.4188 -0.1034 -0.7048
  118MOL   H19035524   6.589   2.882   4.585 -3.5718 -0.7788 -1.3004
  118MOL   H19135525   6.765   2.679   4.505 -0.4060  3.0726 -0.8373
  118MOL   H19235526   6.703   2.795   4.129  2.8673  0.5058 -0.7130
  118MOL   H19335527   6.606   2.929   4.161 -1.2078 -1.2320  0.9971
  118MOL   H19435528   6.801   3.068   4.212  2.4737  0.1081  0.2825
  118MOL   H19535529   6.810   3.009   4.050 -0.4328 -1.9858 -0.5231
  118MOL   H19635530   6.921   2.939   4.165 -0.5316 -3.5065 -3.2362
  118MOL   C19735531   6.598   2.554   4.526 -0.7015 -0.6994 -0.2956
  118MOL   C19835532   6.683   2.435   4.481  0.3263  0.2236 -0.2916
  118MOL   C19935533   6.709   2.424   4.331  0.0816 -0.3309 -0.2624
  118MOL   O20035534   6.821   2.420   4.288  0.0326 -0.4712  0.2011
  118MOL   O20135535   6.587   2.410   4.271  0.1042  0.0298  0.1578
  118MOL   C20235536   6.577   2.393   4.129 -0.1500  0.3061 -0.0971
  118MOL   C20335537   6.630   2.507   4.040  0.2924 -0.4724  0.3738
  118MOL   H20435538   6.570   2.525   4.627  3.8764 -0.7603  1.0424
  118MOL   H20535539   6.505   2.539   4.471 -1.3562 -1.8139  1.0978
  118MOL   H20635540   6.780   2.451   4.529  0.7005  0.9635 -1.2861
  118MOL   H20735541   6.631   2.299   4.120 -0.9037 -0.0561 -0.8383
  118MOL   H20835542   6.481   2.366   4.086  0.8495 -1.6444 -1.1595
  118MOL   H20935543   6.605   2.498   3.934 -0.1917  1.0021  0.3468
  118MOL   H21035544   6.739   2.501   4.051  0.1840  0.6482  2.2895
  118MOL   H21135545   6.610   2.609   4.074 -0.0129 -0.3470 -0.1814
  118MOL   C21235546   6.633   2.303   4.541  0.4069 -0.5410 -0.6153
  118MOL   C21335547   6.711   2.174   4.512  0.0217  0.2283 -0.8324
  118MOL   C21435548   6.624   2.045   4.550 -0.1577 -0.3691 -0.4959
  118MOL   O21535549   6.642   1.941   4.490  0.1448  0.0076 -0.0529
  118MOL   O21635550   6.540   2.074   4.660 -0.1973  0.2650  0.2215
  118MOL   C21735551   6.442   1.979   4.698  0.0099 -1.1737  1.0171
  118MOL   C21835552   6.299   2.026   4.668 -1.3920  0.4172  0.2208
  118MOL   H21935553   6.622   2.325   4.647 -1.1744 -0.1721 -0.8337
  118MOL   H22035554   6.531   2.286   4.504  0.4756 -3.4371  0.4022
  118MOL   H22135555   6.725   2.163   4.404  0.1267  2.1851 -1.0259
  118MOL   H22235556   6.459   1.881   4.654  1.6623  0.1128 -1.3200
  118MOL   H22335557   6.446   1.968   4.806  0.0535  4.5767  1.7245
  118MOL   H22435558   6.276   2.029   4.561 -0.6036 -1.2285 -0.0095
  118MOL   H22535559   6.276   2.122   4.714 -0.2678  1.2620 -0.9628
  118MOL   H22635560   6.229   1.955   4.713 -2.0599  0.7054 -0.3477
  118MOL   C22735561   6.857   2.176   4.573  0.2209 -0.3922 -0.2433
  118MOL   C22835562   6.959   2.082   4.499  0.3842 -0.0986 -0.0511
  118MOL   C22935563   7.073   2.060   4.594  0.1942  0.0317 -0.3038
  118MOL   O23035564   7.096   1.940   4.627  0.4952 -0.5422 -0.7181
  118MOL   O23135565   7.143   2.170   4.635  0.4179 -0.4025  0.1132
  118MOL   C23235566   7.215   2.169   4.755 -0.0640  0.5858 -0.0042
  118MOL   C23335567   7.122   2.204   4.871 -0.0740 -0.0480  0.1980
  118MOL   H23435568   6.897   2.277   4.572  2.2365 -1.1571 -0.2817
  118MOL   H23535569   6.858   2.136   4.674 -0.5913 -1.5987 -0.7006
  118MOL   H23635570   6.922   1.982   4.479  0.4295  0.1537 -1.3911
  118MOL   H23735571   7.236   2.064   4.775 -0.6776  0.6346  0.9734
  118MOL   H23835572   7.303   2.233   4.758  0.1498  0.2573  1.0166
  118MOL   H23935573   7.022   2.159   4.869 -0.5001  0.8687  0.6932
  118MOL   H24035574   7.097   2.309   4.861 -1.2644 -0.4596 -1.3740
  118MOL   H24135575   7.161   2.185   4.971  1.2388  1.0520 -0.0944
  118MOL   C24235576   7.002   2.144   4.362  0.7193 -0.1023  0.5015
  118MOL   C24335577   7.096   2.054   4.283 -0.1158  0.5276  0.4702
  118MOL   C24435578   7.144   2.113   4.150  0.0360  0.0244 -0.2369
  118MOL   O24535579   7.255   2.168   4.139  0.3886  0.6083 -0.3687
  118MOL   O24635580   7.052   2.102   4.052 -0.4912 -0.1968 -0.2193
  118MOL   C24735581   7.094   2.106   3.916  0.1401  0.8253 -0.1842
  118MOL   C24835582   7.132   1.966   3.863  0.1584  1.1158 -0.0389
  118MOL   H24935583   6.910   2.157   4.304  0.6762  2.7232  1.1492
  118MOL   H25035584   7.056   2.237   4.380  0.4612 -0.2774  2.2658
  118MOL   H25135585   7.188   2.045   4.341 -0.3776  0.6729  0.9011
  118MOL   H25235586   7.015   2.147   3.853  0.5394 -0.3753 -1.5064
  118MOL   H25335587   7.187   2.161   3.901 -0.3460  1.2661 -1.7844
  118MOL   H25435588   7.054   1.894   3.889 -0.5425  1.8657 -0.0763
  118MOL   H25535589   7.235   1.941   3.890 -0.1273  0.4995  0.5061
  118MOL   H25635590   7.122   1.961   3.754 -1.5773  0.0523  0.1374
  118MOL   C25735591   7.045   1.915   4.262  0.2730 -0.3140 -0.2394
  118MOL   C25835592   7.141   1.809   4.209 -0.2053  0.2541  0.3926
  118MOL   C25935593   7.052   1.686   4.193 -0.2478  0.3957 -0.1572
  118MOL   O26035594   6.998   1.660   4.086 -0.2932  0.1868 -0.6370
  118MOL   O26135595   7.013   1.624   4.314  0.0314 -0.6916  0.3184
  118MOL   C26235596   6.947   1.497   4.291  0.0359 -0.5178 -0.1916
  118MOL   C26335597   6.961   1.401   4.411  0.4607 -1.7228  0.4566
  118MOL   H26435598   6.998   1.870   4.350  3.0642 -0.9475  0.9759
  118MOL   H26535599   6.967   1.911   4.186  0.2857 -1.2197 -0.2082
  118MOL   H26635600   7.175   1.823   4.106  4.7979  0.9012  1.9855
  118MOL   H26735601   6.840   1.514   4.279 -0.1454 -0.6071  1.2656
  118MOL   H26835602   6.985   1.451   4.199  0.5714  2.8221 -1.7287
  118MOL   H26935603   6.907   1.308   4.398 -1.4365 -0.7469  1.2028
  118MOL   H27035604   6.917   1.454   4.496  2.7118  0.5301  0.2889
  118MOL   H27135605   7.065   1.395   4.443 -0.1838 -1.5500  2.6493
  118MOL   C27235606   7.262   1.789   4.307  0.1144  0.6085  0.5692
  118MOL   C27335607   7.341   1.656   4.286  0.4759 -0.1501  0.4253
  118MOL   C27435608   7.451   1.629   4.396 -0.0430  0.7556  0.0432
  118MOL   O27535609   7.491   1.717   4.474  0.0187  0.1778 -0.1127
  118MOL   O27635610   7.483   1.500   4.399  0.3381 -0.3600  0.3692
  118MOL   C27735611   7.581   1.455   4.494 -0.4763  0.3290 -0.0220
  118MOL   C27835612   7.709   1.431   4.421 -0.0959  0.5375 -0.0127
  118MOL   H27935613   7.330   1.870   4.284 -0.4574  0.4848 -1.6770
  118MOL   H28035614   7.239   1.793   4.413  3.2533 -0.6233  1.3395
  118MOL   H28135615   7.266   1.579   4.304 -0.6077  0.9254  0.6257
  118MOL   H28235616   7.605   1.528   4.571  1.6055 -0.0755 -0.2541
  118MOL   H28335617   7.560   1.358   4.538  1.1618 -0.2276 -0.4420
  118MOL   H28435618   7.691   1.376   4.329  1.7321  1.0316 -0.6895
  118MOL   H28535619   7.763   1.363   4.487 -1.1939 -1.0699 -0.7519
  118MOL   H28635620   7.764   1.523   4.402 -0.0501  0.1673 -1.7768
  118MOL   C28735621   7.398   1.648   4.137 -0.2934 -1.0447 -0.6842
  118MOL   C28835622   7.463   1.513   4.099 -0.0409 -0.8607  0.4743
  118MOL   C28935623   7.376   1.394   4.075 -0.3124  0.3794  0.1134
  118MOL   O29035624   7.253   1.397   4.085  1.1696 -0.4001  0.3093
  118MOL   O29135625   7.450   1.290   4.039  0.1427 -0.0058  0.7361
  118MOL   C29235626   7.394   1.170   4.004  0.6100 -0.4189 -0.3448
  118MOL   C29335627   7.488   1.075   3.931 -0.2542  0.2608 -0.7815
  118MOL   H29435628   7.316   1.663   4.067 -1.0551  0.1734  0.4228
  118MOL   H29535629   7.471   1.725   4.111  0.0816 -0.8213  0.9791
  118MOL   H29635630   7.526   1.525   4.011  2.4792  2.6092  2.6220
  118MOL   H29735631   7.350   1.121   4.091 -0.4634  0.4931 -0.3531
  118MOL   H29835632   7.307   1.187   3.940  0.7732 -1.4127 -0.8341
  118MOL   H29935633   7.543   1.126   3.853 -2.0415  1.0932 -1.5150
  118MOL   H30035634   7.445   0.982   3.894  0.3879  0.1510 -1.2590
  118MOL   H30135635   7.555   1.041   4.011 -1.0798  0.9189  0.1983
  118MOL   H30235636   7.538   1.497   4.176 -0.9836 -2.5691  1.0751
  119MOL     C135637   5.810   2.994   2.724 -0.2907 -0.5460  0.1124
  119MOL     C235638   5.845   3.083   2.606  0.4685 -0.0639 -0.8151
  119MOL     C335639   5.931   3.004   2.508 -0.2555 -0.3444 -0.0389
  119MOL     O435640   5.887   2.995   2.394 -0.0548  0.4507 -0.2222
  119MOL     O535641   6.050   2.955   2.554 -0.5489 -0.3544 -0.7727
  119MOL     C635642   6.135   2.885   2.464  0.6563  0.5059 -0.8722
  119MOL     C735643   6.075   2.744   2.419  0.2257 -0.4879 -0.6067
  119MOL     H835644   5.817   2.889   2.697 -0.3466 -0.2980 -0.8689
  119MOL     H935645   5.714   3.025   2.765 -1.1162 -0.6416 -1.7132
  119MOL    H1035646   5.750   3.105   2.557 -0.7309 -1.8208  0.6762
  119MOL    H1135647   6.142   2.946   2.374  2.4028 -0.1293 -1.1831
  119MOL    H1235648   6.232   2.875   2.512  0.1932  2.2543  0.4590
  119MOL    H1335649   5.987   2.756   2.356 -1.6702  0.5892  2.1610
  119MOL    H1435650   6.039   2.685   2.503  0.2903  0.4492  0.0885
  119MOL    H1535651   6.153   2.693   2.362  1.6984  3.2901 -2.1897
  119MOL    H1635652   5.880   3.000   2.808  1.3413  1.4402 -1.3492
  119MOL    C1735653   5.907   3.217   2.648  0.2412  0.0560 -0.1906
  119MOL    C1835654   5.831   3.301   2.755  0.9536  0.2450  0.3172
  119MOL    C1935655   5.691   3.355   2.723  0.9483 -0.4026 -0.2066
  119MOL    O2035656   5.593   3.333   2.792 -0.0109  1.6555  0.3344
  119MOL    O2135657   5.695   3.439   2.614 -0.2290 -0.7416  0.6045
  119MOL    C2235658   5.583   3.516   2.560 -0.9755 -0.1222 -0.1184
  119MOL    C2335659   5.636   3.657   2.523 -0.0021  0.1078 -0.0672
  119MOL    H2435660   6.000   3.190   2.698 -0.0039 -1.9335 -0.7775
  119MOL    H2535661   5.919   3.281   2.560  0.4338  3.4097  2.1911
  119MOL    H2635662   5.814   3.223   2.829 -1.3125 -0.7864 -1.2097
  119MOL    H2735663   5.560   3.472   2.464 -0.3044  2.2011 -1.3782
  119MOL    H2835664   5.496   3.514   2.626 -1.4767  1.0197 -0.7330
  119MOL    H2935665   5.644   3.718   2.613  3.5608 -0.4399  0.0669
  119MOL    H3035666   5.577   3.705   2.445  0.5036 -1.0332 -1.1655
  119MOL    H3135667   5.736   3.651   2.480 -0.5971  0.4208 -1.5144
  119MOL    C3235668   5.915   3.403   2.831 -0.4232 -0.3883  0.4259
  119MOL    C3335669   5.861   3.450   2.972  0.2976 -0.2322  0.8762
  119MOL    C3435670   5.799   3.589   2.964 -0.0077 -0.2659  0.1531
  119MOL    O3535671   5.686   3.607   3.015 -0.6833 -0.3202  0.9037
  119MOL    O3635672   5.876   3.686   2.924  0.1817 -0.1341 -0.9352
  119MOL    C3735673   5.831   3.820   2.938  0.1052  0.2203 -0.4052
  119MOL    C3835674   5.945   3.917   2.938  0.2050  0.7293  0.3874
  119MOL    H3935675   6.010   3.351   2.846 -0.3840 -0.4038  0.1274
  119MOL    H4035676   5.942   3.480   2.759  1.9377  0.6548  2.3506
  119MOL    H4135677   5.779   3.381   2.991 -1.1958  1.2361 -0.0897
  119MOL    H4235678   5.751   3.845   2.868 -1.0920 -0.3080  0.7461
  119MOL    H4335679   5.774   3.843   3.029  1.1566 -3.5172  1.2672
  119MOL    H4435680   5.903   4.013   2.909 -2.5305 -0.1807  1.1932
  119MOL    H4535681   6.006   3.891   2.851 -1.0424 -0.3602 -0.1811
  119MOL    H4635682   6.003   3.937   3.028  1.0055 -1.9942  0.5275
  119MOL    C4735683   5.969   3.439   3.080 -0.1784 -0.0847 -0.4676
  119MOL    C4835684   5.993   3.292   3.131  0.7654  0.2961  0.0767
  119MOL    C4935685   5.874   3.251   3.223 -0.0610 -0.1856  1.0670
  119MOL    O5035686   5.786   3.177   3.181 -0.5124 -0.3354 -0.5582
  119MOL    O5135687   5.874   3.312   3.343 -0.0655 -0.0573 -0.1174
  119MOL    C5235688   5.770   3.273   3.433 -0.6428 -0.3374  0.0301
  119MOL    C5335689   5.769   3.365   3.556 -0.5442 -0.1690  0.1702
  119MOL    H5435690   6.061   3.482   3.040  1.2804  1.2624  4.0970
  119MOL    H5535691   5.941   3.494   3.169 -1.9426 -0.9692 -0.4586
  119MOL    H5635692   5.991   3.225   3.045  0.0952  0.0546  0.2778
  119MOL    H5735693   5.673   3.291   3.387 -0.7418 -0.9252  0.0095
  119MOL    H5835694   5.766   3.167   3.457 -0.1052 -0.3265  0.1944
  119MOL    H5935695   5.687   3.337   3.622  0.4453 -0.0684  1.4614
  119MOL    H6035696   5.769   3.472   3.534  1.8270  0.0566  1.0628
  119MOL    H6135697   5.863   3.344   3.609 -0.1416 -2.2597 -1.3057
  119MOL    C6235698   6.129   3.266   3.196 -0.2357  0.3634 -1.0122
  119MOL    C6335699   6.264   3.292   3.123  0.3131 -0.3640  0.6614
  119MOL    C6435700   6.256   3.232   2.979 -0.1973  0.5461 -0.1511
  119MOL    O6535701   6.287   3.300   2.881 -0.0555  0.1032 -0.1235
  119MOL    O6635702   6.228   3.101   2.985  0.1920 -0.5557  0.3866
  119MOL    C6735703   6.189   3.033   2.866  0.1080 -0.3437  0.4117
  119MOL    C6835704   6.230   2.894   2.884 -0.7755  0.6101 -0.2969
  119MOL    H6935705   6.133   3.328   3.285  0.0809  1.1784 -1.5958
  119MOL    H7035706   6.130   3.166   3.240 -2.9293  0.5738 -0.4025
  119MOL    H7135707   6.275   3.400   3.114 -3.1791  0.2843  3.0568
  119MOL    H7235708   6.084   3.051   2.842  0.2837  0.2803  0.1148
  119MOL    H7335709   6.243   3.083   2.785  0.4380 -1.1371  0.1305
  119MOL    H7435710   6.338   2.882   2.894 -0.7173  1.8563  0.6586
  119MOL    H7535711   6.196   2.837   2.797  0.6687  0.0541 -0.5100
  119MOL    H7635712   6.188   2.850   2.975  2.6389 -2.6712 -0.2095
  119MOL    C7735713   6.383   3.243   3.211 -0.0752 -0.2419 -0.3741
  119MOL    C7835714   6.512   3.296   3.156 -0.2026 -0.8788  0.6154
  119MOL    C7935715   6.597   3.179   3.109 -0.1262 -0.2713  0.2410
  119MOL    O8035716   6.629   3.167   2.989  0.7458 -0.2163  0.1042
  119MOL    O8135717   6.639   3.106   3.215  0.1259  0.7816 -0.1225
  119MOL    C8235718   6.719   2.984   3.204  0.7288 -0.6972  0.8551
  119MOL    C8335719   6.639   2.865   3.251 -0.1649  0.2629  0.2567
  119MOL    H8435720   6.365   3.274   3.314 -0.4004 -0.7897 -0.2598
  119MOL    H8535721   6.380   3.134   3.212 -0.2783 -0.2555 -1.4548
  119MOL    H8635722   6.492   3.362   3.072  4.4347  0.6914  0.5557
  119MOL    H8735723   6.739   2.969   3.097 -0.6804 -0.0951  0.5021
  119MOL    H8835724   6.812   2.998   3.259  1.3984 -0.8121 -0.2262
  119MOL    H8935725   6.629   2.865   3.360 -2.3111  2.6295  0.1150
  119MOL    H9035726   6.697   2.775   3.230 -2.1191 -0.8721 -0.3962
  119MOL    H9135727   6.541   2.856   3.204  0.5240  1.1123 -1.3951
  119MOL    C9235728   6.582   3.391   3.258 -0.1050  0.2839 -0.0936
  119MOL    C9335729   6.516   3.533   3.259 -0.3695  0.1374 -0.4248
  119MOL    C9435730   6.517   3.602   3.122  0.2027 -0.4716 -0.1888
  119MOL    O9535731   6.624   3.638   3.072  0.3218 -0.4722 -0.0141
  119MOL    O9635732   6.396   3.605   3.061 -0.0200 -0.2265 -0.2053
  119MOL    C9735733   6.378   3.676   2.942 -0.0306  0.5922  0.2554
  119MOL    C9835734   6.252   3.759   2.951 -0.0981  0.1709  0.4682
  119MOL    H9935735   6.563   3.350   3.357 -1.6405 -1.9358 -1.2496
  119MOL   H10035736   6.688   3.395   3.235 -0.1998  1.5336 -0.3457
  119MOL   H10135737   6.410   3.512   3.270 -0.4285  0.6827  0.0249
  119MOL   H10235738   6.464   3.724   2.895  0.1731  1.9435  1.9571
  119MOL   H10335739   6.356   3.595   2.872 -0.1261 -0.5440  1.5833
  119MOL   H10435740   6.237   3.816   2.860  1.9326 -1.8086 -1.1631
  119MOL   H10535741   6.246   3.832   3.031 -0.0525 -1.0752  1.6234
  119MOL   H10635742   6.164   3.695   2.963 -0.9465  1.2776  0.2570
  119MOL   C10735743   6.572   3.627   3.367 -0.2140  0.1744  0.1099
  119MOL   C10835744   6.492   3.618   3.497  0.0646 -0.0765 -0.6130
  119MOL   C10935745   6.353   3.692   3.488  0.4846  0.9826  0.3807
  119MOL   O11035746   6.352   3.808   3.450  0.2700 -0.4615 -0.0830
  119MOL   O11135747   6.246   3.624   3.522 -0.2575  0.0577  0.1274
  119MOL   C11235748   6.118   3.691   3.521 -0.2355  0.1058  0.0508
  119MOL   C11335749   6.036   3.655   3.399 -0.1651 -0.0826 -0.4245
  119MOL   H11435750   6.679   3.606   3.378 -0.0669  1.3367  1.0187
  119MOL   H11535751   6.567   3.733   3.345 -0.4185  0.1949  0.2570
  119MOL   H11635752   6.472   3.511   3.509  0.7449 -0.3978 -2.2304
  119MOL   H11735753   6.079   3.641   3.611  1.5587  0.0080  0.8038
  119MOL   H11835754   6.120   3.799   3.530 -0.9390  0.1190  0.1088
  119MOL   H11935755   6.064   3.716   3.313 -0.6857 -1.1648 -1.3702
  119MOL   H12035756   5.930   3.670   3.420 -0.4307 -0.9408 -1.1234
  119MOL   H12135757   6.059   3.551   3.377  0.5691 -0.0532  0.1647
  119MOL   C12235758   6.566   3.683   3.621  0.7804 -0.3141  0.7672
  119MOL   C12335759   6.510   3.635   3.758  0.7830  0.1261  0.6574
  119MOL   C12435760   6.536   3.744   3.863  0.3924 -0.0791 -0.2934
  119MOL   O12535761   6.446   3.795   3.923  0.1362  0.2397 -0.0923
  119MOL   O12635762   6.663   3.752   3.906  0.4236  0.6354  0.0932
  119MOL   C12735763   6.705   3.838   4.013 -0.3261  0.0799 -0.5666
  119MOL   C12835764   6.823   3.924   3.963 -0.8130  0.3568  0.1930
  119MOL   H12935765   6.671   3.658   3.609  0.7041 -0.3196  0.0980
  119MOL   H13035766   6.558   3.792   3.621 -0.7419 -0.4020 -0.9834
  119MOL   H13135767   6.402   3.625   3.752  0.8559  0.6489 -2.5270
  119MOL   H13235768   6.633   3.913   4.045 -0.8727 -0.5233 -0.3557
  119MOL   H13335769   6.738   3.782   4.101  0.8797 -0.4476 -1.3431
  119MOL   H13435770   6.787   3.996   3.890  0.3299  2.3879  1.5804
  119MOL   H13535771   6.890   3.864   3.901 -0.7838  0.7063 -0.1143
  119MOL   H13635772   6.886   3.976   4.035  1.4436 -0.6714 -0.9901
  119MOL   C13735773   6.576   3.498   3.794 -0.1584  0.1284  0.0319
  119MOL   C13835774   6.483   3.396   3.867 -0.3096  0.0930  0.4119
  119MOL   C13935775   6.384   3.343   3.772  0.2731  0.2914 -0.5411
  119MOL   O14035776   6.263   3.369   3.775  0.0671 -0.1449  0.3103
  119MOL   O14135777   6.441   3.257   3.680  0.4330 -0.0585 -0.2626
  119MOL   C14235778   6.359   3.174   3.604 -0.3793 -1.1604 -0.0452
  119MOL   C14335779   6.445   3.061   3.540  0.4729 -0.2787  0.0776
  119MOL   H14435780   6.595   3.439   3.704 -0.0441 -2.2259  1.5531
  119MOL   H14535781   6.679   3.497   3.831  0.8345 -1.9288 -2.6181
  119MOL   H14635782   6.546   3.311   3.893  1.1751  0.7096 -1.0748
  119MOL   H14735783   6.286   3.135   3.675 -1.4732 -3.3899 -2.2942
  119MOL   H14835784   6.303   3.234   3.532 -1.4029  0.3547  1.9745
  119MOL   H14935785   6.386   3.006   3.467 -0.3711 -2.0239  2.0287
  119MOL   H15035786   6.479   2.982   3.607  1.2092  1.7688  2.2106
  119MOL   H15135787   6.534   3.104   3.493  0.2780 -3.0168 -2.9578
  119MOL   C15235788   6.433   3.425   4.009 -0.7440 -0.3662  0.1020
  119MOL   C15335789   6.527   3.395   4.129  0.7914  0.0869 -0.2659
  119MOL   C15435790   6.656   3.488   4.138  0.3355 -0.3912 -0.4935
  119MOL   O15535791   6.665   3.564   4.237 -0.7890  0.2084  0.6643
  119MOL   O15635792   6.751   3.465   4.047  0.5596 -0.4138  0.4763
  119MOL   C15735793   6.875   3.539   4.058 -0.7370 -0.5622 -0.6658
  119MOL   C15835794   6.984   3.430   4.050 -0.0026  0.1874 -0.1288
  119MOL   H15935795   6.419   3.534   4.005 -1.7598 -0.5456 -4.9953
  119MOL   H16035796   6.334   3.386   4.033 -0.0696 -1.7980  0.6108
  119MOL   H16135797   6.474   3.434   4.216  1.8339 -2.2573  1.4754
  119MOL   H16235798   6.884   3.603   3.971 -1.1991  0.1522 -0.1933
  119MOL   H16335799   6.884   3.607   4.143  0.3964  2.9852 -3.4960
  119MOL   H16435800   6.994   3.391   3.948 -0.5427 -0.9197  0.2380
  119MOL   H16535801   6.953   3.351   4.117  1.5375  1.4206  2.0801
  119MOL   H16635802   7.082   3.464   4.082  0.1763  1.4864 -1.9203
  119MOL   C16735803   6.561   3.250   4.160  0.3204  0.4154  0.1111
  119MOL   C16835804   6.440   3.161   4.200 -0.4278  0.0338 -0.1352
  119MOL   C16935805   6.381   3.082   4.079  0.2858  0.1455  0.2718
  119MOL   O17035806   6.263   3.087   4.049 -0.6050 -0.4228 -0.4119
  119MOL   O17135807   6.469   3.016   4.013  0.1462  0.4558  0.2687
  119MOL   C17235808   6.442   2.951   3.888 -0.1801 -0.2842 -0.2406
  119MOL   C17335809   6.478   2.809   3.911 -0.1107  0.1155 -0.2383
  119MOL   H17435810   6.610   3.206   4.074  0.3756  0.9517 -0.1319
  119MOL   H17535811   6.633   3.241   4.241  0.4758 -0.2148 -0.0941
  119MOL   H17635812   6.494   3.089   4.262 -1.5978  0.5341  1.4909
  119MOL   H17735813   6.336   2.965   3.866 -0.2696  0.6676  0.7902
  119MOL   H17835814   6.504   3.000   3.814  1.1034 -0.1760  0.8932
  119MOL   H17935815   6.584   2.788   3.927  0.2022  0.9093 -1.2217
  119MOL   H18035816   6.450   2.748   3.825  0.5970  1.2076 -1.2616
  119MOL   H18135817   6.432   2.763   3.999 -3.7246  1.1076 -1.5040
  119MOL   C18235818   6.334   3.209   4.296  0.1602 -0.0665 -0.3734
  119MOL   C18335819   6.376   3.293   4.423  0.1324  0.2279 -0.4209
  119MOL   C18435820   6.495   3.244   4.501 -0.3249  0.6512 -0.2890
  119MOL   O18535821   6.507   3.124   4.529  0.5787  0.2258 -0.0977
  119MOL   O18635822   6.586   3.343   4.528 -0.2139  0.6385 -0.5002
  119MOL   C18735823   6.708   3.330   4.611 -0.4170  0.0376 -0.1181
  119MOL   C18835824   6.809   3.385   4.515 -0.9660 -0.0104  0.0231
  119MOL   H18935825   6.259   3.269   4.245  0.1829  0.4803  0.2313
  119MOL   H19035826   6.276   3.122   4.328 -0.6923 -0.9742 -4.0679
  119MOL   H19135827   6.396   3.391   4.380 -0.0780  0.2047 -0.5749
  119MOL   H19235828   6.695   3.390   4.701 -1.0540  2.1459 -1.5893
  119MOL   H19335829   6.739   3.231   4.645  0.0891  0.0034 -0.6820
  119MOL   H19435830   6.786   3.492   4.513 -0.0452  0.2251  1.3806
  119MOL   H19535831   6.808   3.352   4.411  0.1117  0.9687 -0.3058
  119MOL   H19635832   6.909   3.372   4.557 -0.6299 -0.8447 -1.0190
  119MOL   C19735833   6.259   3.307   4.528  0.0852 -0.4478  0.0477
  119MOL   C19835834   6.134   3.376   4.464  0.2934 -0.0351 -0.0760
  119MOL   C19935835   6.149   3.528   4.460 -0.5193  0.0604  0.4430
  119MOL   O20035836   6.091   3.594   4.546 -0.1458 -0.2276 -0.3770
  119MOL   O20135837   6.234   3.573   4.365  1.1045 -0.3267 -0.3616
  119MOL   C20235838   6.252   3.716   4.353  0.0351  0.4413 -0.1394
  119MOL   C20335839   6.376   3.739   4.278  0.5821  0.3793 -0.4939
  119MOL   H20435840   6.242   3.212   4.577  0.3602 -0.4870  0.0691
  119MOL   H20535841   6.301   3.370   4.606  2.9325 -0.9664 -0.9977
  119MOL   H20635842   6.138   3.358   4.357  0.2003  1.1917 -0.2922
  119MOL   H20735843   6.178   3.738   4.276  0.3534 -0.0069 -0.5726
  119MOL   H20835844   6.238   3.782   4.439  1.0766  1.3614 -0.6534
  119MOL   H20935845   6.392   3.845   4.257 -0.4138  1.1384  2.2577
  119MOL   H21035846   6.373   3.704   4.175  1.0958  1.5160 -0.9018
  119MOL   H21135847   6.465   3.692   4.320 -0.4690 -1.0235  0.2418
  119MOL   C21235848   5.999   3.338   4.518  0.4234  0.1517 -0.1949
  119MOL   C21335849   5.958   3.199   4.475  0.0583  0.8942  1.3281
  119MOL   C21435850   6.013   3.073   4.554 -0.3909  0.5471  0.2692
  119MOL   O21535851   5.997   3.061   4.676  0.1613 -0.1663  0.2462
  119MOL   O21635852   6.071   2.976   4.479 -0.2475  0.0667 -0.3505
  119MOL   C21735853   6.133   2.869   4.537 -0.4490  0.1316 -0.3427
  119MOL   C21835854   6.272   2.902   4.587 -0.7823  0.2513  0.2124
  119MOL   H21935855   6.014   3.350   4.625  0.9849  0.4650 -0.3046
  119MOL   H22035856   5.927   3.414   4.490 -0.4294 -0.1548  1.1436
  119MOL   H22135857   5.854   3.180   4.502  0.2875 -0.8135  1.0680
  119MOL   H22235858   6.084   2.842   4.630 -0.3934 -0.5351 -0.5042
  119MOL   H22335859   6.134   2.773   4.486 -3.2491 -1.6298  2.7104
  119MOL   H22435860   6.357   2.915   4.520 -0.7591  0.2293  0.2382
  119MOL   H22535861   6.310   2.823   4.653  0.8618  0.8050 -0.0500
  119MOL   H22635862   6.261   2.997   4.639 -0.6312 -0.6561  1.9501
  119MOL   C22735863   5.963   3.181   4.321 -0.4974 -0.1441 -0.4044
  119MOL   C22835864   5.850   3.091   4.266 -0.8497  1.0996  0.2343
  119MOL   C22935865   5.867   3.023   4.132 -0.8465 -0.5907  0.5669
  119MOL   O23035866   5.869   2.902   4.110 -0.0457 -0.0227  0.5953
  119MOL   O23135867   5.877   3.118   4.034  0.1937  0.1095 -0.4067
  119MOL   C23235868   5.911   3.077   3.901  0.5350 -0.0574  0.2586
  119MOL   C23335869   5.978   3.192   3.837  0.1309  0.4478  0.1091
  119MOL   H23435870   5.944   3.272   4.264 -2.6225  1.0434  2.0807
  119MOL   H23535871   6.057   3.141   4.282 -0.5574 -1.1692  0.4717
  119MOL   H23635872   5.834   3.009   4.337  0.0485  0.0334 -0.7735
  119MOL   H23735873   5.978   2.991   3.905  1.4179  0.6216  0.4311
  119MOL   H23835874   5.822   3.048   3.845 -0.7882 -0.1402  2.3308
  119MOL   H23935875   5.999   3.176   3.731  1.5048 -1.6074  0.6709
  119MOL   H24035876   6.069   3.223   3.889  0.0644 -0.3320  0.6922
  119MOL   H24135877   5.920   3.284   3.831  0.5582  0.8147  1.3307
  119MOL   C24235878   5.720   3.174   4.263 -0.1695 -0.4304 -0.1442
  119MOL   C24335879   5.591   3.092   4.245  0.1007  0.7589 -0.0227
  119MOL   C24435880   5.514   3.125   4.124 -0.2451 -0.4220 -0.2976
  119MOL   O24535881   5.395   3.145   4.130  0.3175  0.2844 -0.3776
  119MOL   O24635882   5.578   3.124   4.011  0.1874  0.1678  0.1697
  119MOL   C24735883   5.504   3.133   3.881  0.1581  1.3448 -0.3976
  119MOL   C24835884   5.527   3.281   3.829 -0.4957 -0.0075  0.1443
  119MOL   H24935885   5.708   3.239   4.350  0.8961 -2.5569  1.6485
  119MOL   H25035886   5.725   3.245   4.181 -1.0749 -1.4944 -1.1434
  119MOL   H25135887   5.610   2.985   4.234  1.5541  1.0836 -0.7912
  119MOL   H25235888   5.548   3.052   3.823 -0.6085  0.9130 -0.3814
  119MOL   H25335889   5.398   3.111   3.889  0.0927  1.6041 -0.5360
  119MOL   H25435890   5.459   3.352   3.877  2.9467  2.0341  2.2540
  119MOL   H25535891   5.501   3.274   3.724 -0.1128  0.7819 -0.0067
  119MOL   H25635892   5.627   3.316   3.856 -0.0737 -0.4576 -0.8245
  119MOL   C25735893   5.506   3.097   4.380  0.3116  0.7147  0.5199
  119MOL   C25835894   5.561   3.054   4.517 -0.9866 -0.2663 -0.4637
  119MOL   C25935895   5.618   2.908   4.529 -0.2683  0.2218 -0.2182
  119MOL   O26035896   5.601   2.827   4.434  0.4096  0.4669 -0.5621
  119MOL   O26135897   5.683   2.882   4.642  0.1102  0.2969 -0.3005
  119MOL   C26235898   5.760   2.766   4.661 -0.0623 -0.5984 -0.6215
  119MOL   C26335899   5.831   2.770   4.796 -0.6408  0.3901  0.0878
  119MOL   H26435900   5.458   3.194   4.388 -0.3224  0.4890 -0.4786
  119MOL   H26535901   5.414   3.041   4.369  1.7541 -1.5723 -0.2316
  119MOL   H26635902   5.641   3.122   4.546  0.9186 -1.7639 -2.0749
  119MOL   H26735903   5.688   2.686   4.647  0.6598 -0.9454 -2.4397
  119MOL   H26835904   5.832   2.759   4.580 -0.7969 -2.4575 -1.1259
  119MOL   H26935905   5.909   2.694   4.796 -2.3186 -1.4076 -0.4688
  119MOL   H27035906   5.764   2.753   4.881  0.0465 -0.0766  0.5410
  119MOL   H27135907   5.892   2.859   4.810  1.0241 -0.6145 -0.6262
  119MOL   C27235908   5.447   3.085   4.614 -0.5070 -0.0285  0.4363
  119MOL   C27335909   5.424   3.224   4.677  0.1167  0.0274  0.6702
  119MOL   C27435910   5.557   3.287   4.724  0.3491  0.0874 -0.3970
  119MOL   O27535911   5.612   3.365   4.648 -0.0709  0.1909  0.2761
  119MOL   O27635912   5.595   3.250   4.846 -0.4302  0.3476 -0.3540
  119MOL   C27735913   5.726   3.267   4.895 -0.5016  0.2742 -0.7019
  119MOL   C27835914   5.762   3.144   4.978  0.2983  0.2544  0.2164
  119MOL   H27935915   5.349   3.062   4.572 -1.5899  2.5214  1.4664
  119MOL   H28035916   5.458   3.013   4.695 -0.8959 -1.5796 -0.8723
  119MOL   H28135917   5.385   3.292   4.601 -0.0940 -0.3626  0.4301
  119MOL   H28235918   5.793   3.281   4.809 -0.9708 -2.7222 -1.6433
  119MOL   H28335919   5.749   3.356   4.953  3.0555 -1.6278  0.9421
  119MOL   H28435920   5.859   3.144   5.026  0.4888 -1.8154 -0.1193
  119MOL   H28535921   5.751   3.060   4.910 -2.1123  1.0555 -0.4379
  119MOL   H28635922   5.690   3.122   5.057  0.6037 -3.8572 -0.5667
  119MOL   C28735923   5.331   3.215   4.804 -0.5267  0.0290  0.2081
  119MOL   C28835924   5.289   3.352   4.866 -0.1618  0.1824  0.3171
  119MOL   C28935925   5.187   3.439   4.789 -0.0009  0.1045 -0.2883
  119MOL   O29035926   5.100   3.388   4.720  0.4249 -0.0267 -0.7604
  119MOL   O29135927   5.207   3.567   4.820  0.3479 -0.6046 -0.1772
  119MOL   C29235928   5.113   3.666   4.778  0.7136 -0.4314  0.3015
  119MOL   C29335929   5.158   3.810   4.816  0.2007 -0.2663 -0.5534
  119MOL   H29435930   5.233   3.174   4.776 -1.9354  2.0821  1.9725
  119MOL   H29535931   5.373   3.144   4.875  0.7459  1.2046  0.6343
  119MOL   H29635932   5.245   3.336   4.964  0.7853 -1.0783  0.5465
  119MOL   H29735933   5.106   3.665   4.669 -0.8108 -0.0789  0.3781
  119MOL   H29835934   5.014   3.640   4.815 -0.2184  0.5783 -1.4278
  119MOL   H29935935   5.076   3.874   4.783 -0.5601 -0.4570  0.9320
  119MOL   H30035936   5.250   3.836   4.765  1.1465 -3.5021 -0.6226
  119MOL   H30135937   5.163   3.830   4.923  1.2142  0.1387 -0.6707
  119MOL   H30235938   5.377   3.415   4.881  0.0127 -0.3363  1.4758
  120MOL     C135939   6.849   2.212   6.502  0.4021 -0.0926  0.1653
  120MOL     C235940   6.781   2.315   6.586 -0.4556 -0.5499 -0.2420
  120MOL     C335941   6.730   2.416   6.493 -0.0085  0.3170  0.4414
  120MOL     O435942   6.798   2.512   6.467  0.0733 -0.3830 -0.3591
  120MOL     O535943   6.616   2.393   6.440  0.1298 -0.9118  0.0785
  120MOL     C635944   6.544   2.502   6.381 -0.0300  0.3913 -0.4741
  120MOL     C735945   6.416   2.473   6.305  0.1238  0.5217  0.5111
  120MOL     H835946   6.863   2.123   6.563  4.4665  0.1053 -0.2928
  120MOL     H935947   6.945   2.234   6.454 -0.6904  1.0227 -1.5645
  120MOL    H1035948   6.691   2.266   6.622 -0.4688 -1.2154 -1.1459
  120MOL    H1135949   6.539   2.580   6.458  0.3752  0.7045 -0.7577
  120MOL    H1235950   6.610   2.539   6.302  0.2571 -0.2485 -0.5361
  120MOL    H1335951   6.429   2.416   6.214 -1.5047 -0.8303  1.0978
  120MOL    H1435952   6.362   2.566   6.284 -1.6185 -0.6810 -0.4063
  120MOL    H1535953   6.343   2.418   6.364 -1.4669  0.3376 -1.5555
  120MOL    H1635954   6.783   2.174   6.424 -0.6232  0.1089  0.9249
  120MOL    C1735955   6.865   2.371   6.697  0.1784  0.7042 -0.5849
  120MOL    C1835956   6.882   2.276   6.815 -0.2648 -0.2380  0.0260
  120MOL    C1935957   6.756   2.256   6.903 -0.8448  0.1133 -1.1596
  120MOL    O2035958   6.717   2.144   6.922 -0.0682 -0.3827 -0.3662
  120MOL    O2135959   6.705   2.361   6.956 -0.0741  0.7906 -0.2776
  120MOL    C2235960   6.619   2.352   7.069  0.2303  0.7018  0.4409
  120MOL    C2335961   6.663   2.430   7.180  0.6321 -0.1777  0.0759
  120MOL    H2435962   6.961   2.409   6.663  0.0028 -0.1921 -2.1153
  120MOL    H2535963   6.820   2.467   6.721 -0.2249  0.1476  0.9794
  120MOL    H2635964   6.894   2.177   6.771 -1.4682 -1.1503  1.6876
  120MOL    H2735965   6.524   2.399   7.041  0.3916 -0.9109 -3.0791
  120MOL    H2835966   6.599   2.249   7.098  2.6559  0.3923  1.0704
  120MOL    H2935967   6.670   2.538   7.166 -2.9306  0.1445  0.4411
  120MOL    H3035968   6.760   2.389   7.210  0.9053  0.0608 -0.4834
  120MOL    H3135969   6.590   2.414   7.259 -1.2451  2.2114 -1.1182
  120MOL    C3235970   7.013   2.308   6.891  0.1779 -0.0563 -0.0659
  120MOL    C3335971   7.082   2.185   6.955  0.2888 -0.9316 -0.4317
  120MOL    C3435972   7.029   2.155   7.098 -0.6539 -0.1326  0.0233
  120MOL    O3535973   6.962   2.058   7.120  0.5267  0.2601  0.0171
  120MOL    O3635974   7.067   2.243   7.194  0.6573 -0.3400 -0.4601
  120MOL    C3735975   7.039   2.222   7.333  0.8093 -0.2758  0.0173
  120MOL    C3835976   7.116   2.321   7.417  0.3596 -0.3504  0.3373
  120MOL    H3935977   7.087   2.349   6.822 -0.3753 -1.1099 -1.3142
  120MOL    H4035978   6.996   2.381   6.970  1.9657 -0.6076  0.8630
  120MOL    H4135979   7.063   2.095   6.897  0.4008 -2.7609  2.2809
  120MOL    H4235980   6.934   2.248   7.342  0.5641 -0.3058 -2.4999
  120MOL    H4335981   7.048   2.118   7.363  1.5182 -0.1568  0.2368
  120MOL    H4435982   7.130   2.417   7.367  0.2501 -0.4183  0.1739
  120MOL    H4535983   7.217   2.281   7.418  0.9029  0.9952  1.0667
  120MOL    H4635984   7.096   2.326   7.524  2.0885 -1.7841  0.7514
  120MOL    C4735985   7.235   2.194   6.944  0.0579  0.0679 -0.4641
  120MOL    C4835986   7.308   2.156   6.812  0.1102 -0.6904  0.6296
  120MOL    C4935987   7.292   2.006   6.778 -0.4638 -0.1262 -0.6743
  120MOL    O5035988   7.367   1.917   6.813 -0.4619 -0.0564 -0.1493
  120MOL    O5135989   7.182   1.978   6.707 -0.1597  0.1052  0.8894
  120MOL    C5235990   7.156   1.850   6.655 -0.0761 -0.9519  0.8811
  120MOL    C5335991   7.005   1.809   6.655 -1.3511 -0.3784  0.7063
  120MOL    H5435992   7.261   2.294   6.978  1.0938  0.0482 -1.1501
  120MOL    H5535993   7.271   2.141   7.032  1.5208  2.8278  0.6626
  120MOL    H5635994   7.259   2.211   6.731  3.5616 -1.5265 -2.1753
  120MOL    H5735995   7.196   1.853   6.553  1.3224 -1.1347  1.4073
  120MOL    H5835996   7.213   1.773   6.707  0.1045 -2.3823 -1.3560
  120MOL    H5935997   6.944   1.878   6.596  0.0168  0.0021 -0.2852
  120MOL    H6035998   6.962   1.812   6.756 -0.4327  0.9641  1.0700
  120MOL    H6135999   6.993   1.714   6.603 -2.6261 -0.5198  1.2334
  120MOL    C6236000   7.454   2.208   6.814  0.5383 -0.3209  0.0748
  120MOL    C6336001   7.505   2.273   6.683 -0.1755  0.4439  0.5015
  120MOL    C6436002   7.586   2.166   6.595  0.4471 -0.8212  0.4781
  120MOL    O6536003   7.533   2.101   6.504 -0.0808  0.0345  0.5325
  120MOL    O6636004   7.710   2.152   6.646  0.2821  0.5925 -0.4595
  120MOL    C6736005   7.818   2.103   6.571  0.4238 -0.2736  0.8094
  120MOL    C6836006   0.047   2.160   6.617  0.2636 -0.0821 -0.0409
  120MOL    H6936007   7.445   2.289   6.886  2.2186 -0.0676  0.0114
  120MOL    H7036008   7.512   2.128   6.860 -1.4160 -0.8389  1.7092
  120MOL    H7136009   7.419   2.319   6.634 -0.1164  0.8381  0.7663
  120MOL    H7236010   7.822   1.995   6.585  1.5821  0.0013  2.9907
  120MOL    H7336011   7.792   2.123   6.468 -0.2394 -1.1169  0.8097
  120MOL    H7436012   0.121   2.088   6.582 -0.9968 -2.7496  2.6491
  120MOL    H7536013   0.066   2.183   6.722  1.4194  1.0730 -0.4834
  120MOL    H7636014   0.050   2.253   6.561 -0.3136  0.4094  0.7367
  120MOL    C7736015   7.591   2.398   6.705  0.1494 -0.0401  0.6320
  120MOL    C7836016   7.674   2.465   6.599 -0.3313 -0.0086  0.4668
  120MOL    C7936017   7.775   2.556   6.666  0.3333  0.8406 -0.2600
  120MOL    O8036018   7.763   2.677   6.667 -0.5205  0.6169 -0.3924
  120MOL    O8136019   7.878   2.483   6.722  1.0286  0.0232 -0.0329
  120MOL    C8236020   0.072   2.549   6.790 -0.3539 -0.2751 -0.0827
  120MOL    C8336021   0.202   2.487   6.730 -0.3089 -0.4166  0.3295
  120MOL    H8436022   7.517   2.470   6.740 -0.9233  0.0125 -1.6821
  120MOL    H8536023   7.652   2.385   6.794  1.8035  2.2392 -0.1208
  120MOL    H8636024   7.736   2.386   6.557  1.9543  1.9454  0.0515
  120MOL    H8736025   0.084   2.653   6.760  0.1050 -0.2625  0.1438
  120MOL    H8836026   0.064   2.528   6.896 -0.6126 -1.1844 -0.2829
  120MOL    H8936027   0.207   2.492   6.621  1.1959  0.2484  0.4108
  120MOL    H9036028   0.216   2.380   6.745 -0.0253 -0.5332 -0.7157
  120MOL    H9136029   0.295   2.537   6.758  0.6371 -1.1863 -1.3697
  120MOL    C9236030   7.590   2.523   6.480  0.4906  0.0187 -0.5924
  120MOL    C9336031   7.656   2.547   6.348  0.5181  0.1380  0.7077
  120MOL    C9436032   7.574   2.650   6.267  0.2361  0.0512 -0.3309
  120MOL    O9536033   7.621   2.757   6.228 -0.1812  0.2363  0.0928
  120MOL    O9636034   7.455   2.607   6.243 -0.5764 -0.3179  0.2437
  120MOL    C9736035   7.361   2.688   6.167  0.4379 -0.8833  0.9255
  120MOL    C9836036   7.273   2.771   6.264 -0.2097 -0.5012  0.0874
  120MOL    H9936037   7.504   2.459   6.461  1.1936 -0.9056 -0.7194
  120MOL   H10036038   7.555   2.619   6.517  2.7721  0.3888  0.7373
  120MOL   H10136039   7.748   2.598   6.378  0.6849 -0.1638  0.7084
  120MOL   H10236040   7.423   2.745   6.097 -0.6595 -1.1582 -0.2996
  120MOL   H10336041   7.289   2.623   6.117 -0.3055 -0.7868  1.8522
  120MOL   H10436042   7.209   2.843   6.213  0.9588 -0.6459 -1.5900
  120MOL   H10536043   7.338   2.832   6.326 -1.1229  2.3967 -1.7006
  120MOL   H10636044   7.216   2.720   6.342  0.1516 -1.9262 -0.5688
  120MOL   C10736045   7.697   2.415   6.279 -0.4484  1.1554 -0.0663
  120MOL   C10836046   7.785   2.425   6.158 -0.0778 -0.0328  0.4484
  120MOL   C10936047   7.718   2.346   6.045  0.2460 -0.3934  0.2205
  120MOL   O11036048   7.745   2.236   6.009  0.6428  0.1192 -0.0626
  120MOL   O11136049   7.620   2.422   5.984  0.3663  0.7405 -0.4667
  120MOL   C11236050   7.538   2.356   5.891 -0.3759 -0.3874 -0.6137
  120MOL   C11336051   7.417   2.449   5.867 -0.1740  1.3020 -0.1123
  120MOL   H11436052   7.743   2.351   6.355 -1.3248 -0.4453 -0.8655
  120MOL   H11536053   7.602   2.366   6.256  1.6297 -3.3690  0.4116
  120MOL   H11636054   7.784   2.528   6.124 -1.8147  0.9000  3.1855
  120MOL   H11736055   7.600   2.332   5.805 -0.2174 -3.1058  0.2033
  120MOL   H11836056   7.513   2.256   5.928 -1.7153  0.1541 -0.0452
  120MOL   H11936057   7.442   2.533   5.804 -0.8087  0.0607 -2.0525
  120MOL   H12036058   7.385   2.474   5.968  0.6213 -0.6419  0.6463
  120MOL   H12136059   7.332   2.397   5.824  1.0872  0.2624 -1.3980
  120MOL   C12236060   0.027   2.369   6.187 -0.0551 -0.1559 -0.1002
  120MOL   C12336061   0.139   2.433   6.102 -0.6175  0.0063 -0.0114
  120MOL   C12436062   0.160   2.583   6.123  0.1508 -0.5213 -0.0378
  120MOL   O12536063   0.182   2.665   6.036 -0.3261 -0.4976 -0.7025
  120MOL   O12636064   0.157   2.608   6.253  0.5425 -0.5501 -0.0826
  120MOL   C12736065   0.152   2.736   6.307  0.5444 -0.3754  0.0813
  120MOL   C12836066   0.168   2.741   6.461  0.1862  0.3970  0.2278
  120MOL   H12936067   0.056   2.391   6.289 -2.9966  1.4062  0.4498
  120MOL   H13036068   0.027   2.261   6.177  1.3025 -0.2443  0.6992
  120MOL   H13136069   0.229   2.391   6.146  1.1749  1.4869 -2.1775
  120MOL   H13236070   0.231   2.796   6.260  0.9873 -1.1962 -0.2260
  120MOL   H13336071   0.057   2.781   6.279  1.0123  0.9115  0.5268
  120MOL   H13436072   0.120   2.661   6.517  0.1026  1.9383  2.3955
  120MOL   H13536073   0.128   2.829   6.511 -1.1435  0.8422 -1.5830
  120MOL   H13636074   0.272   2.748   6.491  0.7654 -2.1354 -1.0076
  120MOL   C13736075   0.157   2.386   5.957 -0.9009 -0.0993  0.2822
  120MOL   C13836076   0.304   2.356   5.904 -0.0827 -0.0679  0.1760
  120MOL   C13936077   0.401   2.472   5.896  0.8140 -0.4389  0.5646
  120MOL   O14036078   0.506   2.479   5.959  0.1809 -0.0956 -0.3658
  120MOL   O14136079   0.356   2.577   5.818 -0.2084  0.3880 -0.8300
  120MOL   C14236080   0.442   2.684   5.808 -0.3953 -0.0777  0.2520
  120MOL   C14336081   0.425   2.768   5.684  1.1198 -0.3945  0.7945
  120MOL   H14436082   0.109   2.292   5.932 -1.4747  0.0328  0.8907
  120MOL   H14536083   0.120   2.465   5.891  2.2357  1.5247  0.3537
  120MOL   H14636084   0.352   2.300   5.984  0.8002  1.5557  0.8080
  120MOL   H14736085   0.425   2.748   5.895 -0.7083 -2.3455  1.8791
  120MOL   H14836086   0.546   2.654   5.795 -0.9832 -1.6007 -0.9663
  120MOL   H14936087   0.482   2.860   5.693 -0.6891  0.8415 -0.1556
  120MOL   H15036088   0.320   2.796   5.687  1.2998  0.4308 -0.1425
  120MOL   H15136089   0.453   2.712   5.595 -0.5438 -2.8423  1.7693
  120MOL   C15236090   0.313   2.270   5.778  0.2945 -0.2483  0.4640
  120MOL   C15336091   0.278   2.335   5.642  0.0894 -0.5006  0.2642
  120MOL   C15436092   0.137   2.390   5.632 -0.4398  0.5260  0.0611
  120MOL   O15536093   0.104   2.504   5.596  0.2295 -1.0284 -0.4343
  120MOL   O15636094   0.046   2.298   5.661  0.5417 -0.0700  0.0138
  120MOL   C15736095   7.819   2.320   5.634  0.4890  0.3404 -0.2242
  120MOL   C15836096   7.738   2.182   5.633 -0.5013  0.4853 -0.3094
  120MOL   H15936097   0.417   2.241   5.768  0.6947  1.5170 -0.7042
  120MOL   H16036098   0.248   2.184   5.791  0.3086 -0.5001 -1.0828
  120MOL   H16136099   0.340   2.423   5.627  1.3448 -1.6260 -1.3249
  120MOL   H16236100   7.783   2.385   5.714  3.3968  0.5445  0.9904
  120MOL   H16336101   7.796   2.365   5.538 -3.2610  1.5323  1.1453
  120MOL   H16436102   7.637   2.181   5.592  0.2987 -1.4928 -2.2871
  120MOL   H16536103   7.740   2.146   5.736 -0.7091  1.4605  0.0470
  120MOL   H16636104   7.793   2.110   5.573 -2.5009 -0.7084 -0.7592
  120MOL   C16736105   0.320   2.247   5.523 -0.1668 -0.0249 -0.3487
  120MOL   C16836106   0.464   2.260   5.491 -0.2304 -0.6477  0.1308
  120MOL   C16936107   0.489   2.365   5.382  0.1635  0.6632 -0.4064
  120MOL   O17036108   0.500   2.489   5.404  0.2028 -0.3007  0.5723
  120MOL   O17136109   0.493   2.302   5.258 -0.3690  0.3813  0.4723
  120MOL   C17236110   0.472   2.385   5.148 -0.1272  0.0336 -0.3326
  120MOL   C17336111   0.323   2.386   5.113 -0.3668 -0.0517  0.5921
  120MOL   H17436112   0.299   2.141   5.536  2.0378 -0.5288 -0.7434
  120MOL   H17536113   0.269   2.291   5.437 -1.0421  0.6641  0.5120
  120MOL   H17636114   0.502   2.302   5.584  2.2272 -1.4679 -0.4704
  120MOL   H17736115   0.503   2.486   5.173 -0.4845 -0.4449  2.2284
  120MOL   H17836116   0.532   2.371   5.059  0.0125  0.8674 -0.3715
  120MOL   H17936117   0.297   2.292   5.064 -1.5733  0.7765 -0.3854
  120MOL   H18036118   0.297   2.468   5.046  0.8497 -1.2082 -1.3750
  120MOL   H18136119   0.264   2.399   5.203 -1.5120  1.0041 -0.2912
  120MOL   C18236120   0.543   2.128   5.473  0.2317 -0.9908 -0.4342
  120MOL   C18336121   0.545   2.032   5.594 -0.4125 -0.0596  0.2416
  120MOL   C18436122   0.632   2.084   5.710 -0.2772 -0.1239 -0.4120
  120MOL   O18536123   0.703   2.185   5.700  0.3905 -0.0014  0.0989
  120MOL   O18636124   0.634   1.996   5.808 -0.5197  0.0514  0.1437
  120MOL   C18736125   0.691   2.033   5.932 -0.6154  0.2147 -0.1363
  120MOL   C18836126   0.622   2.148   6.006 -0.2918  0.8664 -0.5454
  120MOL   H18936127   0.503   2.070   5.389 -0.2733  0.2683 -1.0813
  120MOL   H19036128   0.642   2.147   5.432  0.5028 -0.8965  0.2750
  120MOL   H19136129   0.442   2.029   5.629 -0.9187  1.1919 -1.1015
  120MOL   H19236130   0.695   1.941   5.991  1.1298  0.9587  0.9477
  120MOL   H19336131   0.794   2.062   5.910 -0.5942  1.1042  1.1139
  120MOL   H19436132   0.651   2.161   6.110 -1.0851  1.1298 -0.3485
  120MOL   H19536133   0.518   2.113   6.009  0.0500  0.0077  2.5923
  120MOL   H19636134   0.620   2.244   5.955  2.3020  1.1976 -0.0855
  120MOL   C19736135   0.591   1.891   5.556 -0.0828  0.1875 -0.5774
  120MOL   C19836136   0.469   1.799   5.528  0.1418 -0.0886  0.1839
  120MOL   C19936137   0.374   1.768   5.645 -0.0359  1.0284 -0.0238
  120MOL   O20036138   0.396   1.783   5.767  0.5667  0.5971  0.5210
  120MOL   O20136139   0.257   1.726   5.596  0.3634  0.1972 -0.5635
  120MOL   C20236140   0.152   1.700   5.681  0.5360  0.4725 -0.1310
  120MOL   C20336141   0.104   1.828   5.743 -0.7596 -0.5451  0.4436
  120MOL   H20436142   0.661   1.898   5.473 -0.0925  1.8474 -0.4721
  120MOL   H20536143   0.640   1.836   5.636 -3.1853 -0.7279  0.7815
  120MOL   H20636144   0.417   1.867   5.460  2.5405  1.8798  0.2361
  120MOL   H20736145   0.068   1.651   5.631  0.6728 -0.2185  0.3164
  120MOL   H20836146   0.187   1.634   5.759  0.8926  1.4588  0.5555
  120MOL   H20936147   0.018   1.798   5.803 -1.7864 -2.8152 -2.0122
  120MOL   H21036148   0.071   1.911   5.680  0.6153 -0.2430  0.1008
  120MOL   H21136149   0.175   1.867   5.816 -1.8240  0.0945  1.1617
  120MOL   C21236150   0.513   1.672   5.451 -0.3937 -0.1210  0.0458
  120MOL   C21336151   0.409   1.613   5.351 -0.6434 -0.3098  0.1924
  120MOL   C21436152   0.379   1.457   5.378  0.3444  0.6784 -0.2444
  120MOL   O21536153   0.400   1.367   5.295 -0.1964 -0.2683 -0.3582
  120MOL   O21636154   0.306   1.437   5.490  0.3676 -0.3412  0.0200
  120MOL   C21736155   0.269   1.304   5.521  0.2243  0.8977 -0.6583
  120MOL   C21836156   0.239   1.299   5.673 -0.3797  0.4926  0.1016
  120MOL   H21936157   0.595   1.691   5.381  1.3908 -1.7066  1.6384
  120MOL   H22036158   0.547   1.594   5.519 -0.6578 -0.6658 -0.4451
  120MOL   H22136159   0.309   1.642   5.381  0.2761  1.1380  1.9277
  120MOL   H22236160   0.176   1.277   5.471 -0.8679  3.3085  0.0322
  120MOL   H22336161   0.344   1.227   5.500  0.0691  0.3168  0.8344
  120MOL   H22436162   0.165   1.370   5.707 -1.6255 -0.6348 -0.2189
  120MOL   H22536163   0.329   1.316   5.732 -0.4786 -0.9256  0.6824
  120MOL   H22636164   0.221   1.194   5.699 -2.0103  1.1043  1.5411
  120MOL   C22736165   0.427   1.640   5.199 -0.3722 -0.1878  0.3521
  120MOL   C22836166   0.419   1.798   5.175 -0.5708  0.0755 -0.2708
  120MOL   C22936167   0.282   1.855   5.199 -1.1028 -0.4662  0.3669
  120MOL   O23036168   0.261   1.959   5.263 -0.5722  0.7771 -0.3633
  120MOL   O23136169   0.184   1.783   5.139  0.0291 -0.4388  0.5139
  120MOL   C23236170   0.051   1.818   5.146 -0.6985 -0.3495 -0.2811
  120MOL   C23336171   7.904   1.739   5.268 -0.3138  0.2400  0.0899
  120MOL   H23436172   0.529   1.612   5.173 -0.4549  0.0380 -0.2116
  120MOL   H23536173   0.369   1.579   5.130  0.0197  1.3614 -1.3859
  120MOL   H23636174   0.488   1.824   5.255  0.1589 -1.4472 -0.3885
  120MOL   H23736175   0.035   1.925   5.159  3.0118  0.1633  0.5545
  120MOL   H23836176   0.009   1.782   5.052  1.2541 -2.1670 -0.4918
  120MOL   H23936177   7.810   1.782   5.304 -0.6333 -0.3768  0.0075
  120MOL   H24036178   0.072   1.733   5.345 -0.2233  1.7162  0.1306
  120MOL   H24136179   7.883   1.636   5.239 -0.0762 -0.0747  1.0445
  120MOL   C24236180   0.475   1.839   5.038  0.7455  0.1955  0.3663
  120MOL   C24336181   0.509   1.989   5.024  0.0046 -0.5169 -0.0529
  120MOL   C24436182   0.513   2.032   4.875  0.1309  0.1035  0.3010
  120MOL   O24536183   0.512   1.947   4.787 -0.2822  0.2838  0.4181
  120MOL   O24636184   0.515   2.170   4.861 -0.0217 -0.1938  0.6559
  120MOL   C24736185   0.538   2.231   4.737 -0.4317  0.2957  0.4844
  120MOL   C24836186   0.455   2.356   4.724  0.1381  0.1044 -0.2561
  120MOL   H24936187   0.569   1.787   5.019  1.1287  1.1991 -0.5770
  120MOL   H25036188   0.409   1.801   4.960 -0.1926  0.2606  1.1169
  120MOL   H25136189   0.422   2.046   5.055  0.5616  0.4897 -0.2909
  120MOL   H25236190   0.640   2.257   4.709 -1.0053  0.3658 -1.6064
  120MOL   H25336191   0.520   2.169   4.649 -1.8325  1.1401  0.1674
  120MOL   H25436192   0.355   2.318   4.702 -0.0603 -0.8942  2.1900
  120MOL   H25536193   0.492   2.411   4.638  2.9462  0.6727  1.2755
  120MOL   H25636194   0.446   2.425   4.807 -0.1746 -0.3229  0.0657
  120MOL   C25736195   0.626   2.038   5.104 -0.2969 -0.1031  0.1013
  120MOL   C25836196   0.771   1.989   5.075 -0.5431  0.1121 -0.2070
  120MOL   C25936197   0.805   1.854   5.142  0.5930 -0.4792 -0.3644
  120MOL   O26036198   0.802   1.844   5.263 -0.2393 -0.1537 -0.1596
  120MOL   O26136199   0.836   1.762   5.047 -0.0488  0.0596  0.0660
  120MOL   C26236200   0.862   1.629   5.101 -0.3233  0.0607  0.3386
  120MOL   C26336201   0.902   1.551   4.978 -0.5891  1.2189 -0.3239
  120MOL   H26436202   0.627   2.147   5.099  2.5423 -0.1165 -0.6167
  120MOL   H26536203   0.606   2.004   5.205  0.8632 -0.4737  0.2091
  120MOL   H26636204   0.785   1.983   4.967  2.5347  1.1886  0.0947
  120MOL   H26736205   0.944   1.640   5.172  0.6682 -1.2511 -0.5811
  120MOL   H26836206   0.764   1.595   5.135 -1.1255  1.3177 -0.6848
  120MOL   H26936207   0.817   1.519   4.918  1.3092 -0.4757 -2.1486
  120MOL   H27036208   0.971   1.471   5.004 -0.2835  2.3843  2.7130
  120MOL   H27136209   0.957   1.616   4.910  1.8437 -1.6876 -1.2517
  120MOL   C27236210   0.872   2.102   5.120 -0.3959 -0.0524 -0.2559
  120MOL   C27336211   0.877   2.225   5.031  0.5056  0.0246  0.0090
  120MOL   C27436212   0.948   2.188   4.901 -0.2824  0.0574  0.5966
  120MOL   O27536213   0.911   2.232   4.795 -0.4269 -0.0010  0.1398
  120MOL   O27636214   1.048   2.104   4.918  0.1382  0.1529  0.0768
  120MOL   C27736215   1.141   2.071   4.813 -0.1005 -0.3879  0.4754
  120MOL   C27836216   1.248   1.979   4.873 -0.0740 -0.0646  0.7158
  120MOL   H27936217   0.836   2.134   5.218  1.2610  0.2398  0.2744
  120MOL   H28036218   0.971   2.070   5.152  0.6745  3.1283 -0.2530
  120MOL   H28136219   0.778   2.260   5.002  0.8559  0.6463 -0.4511
  120MOL   H28236220   1.079   2.041   4.728 -1.7214  0.5992  1.3028
  120MOL   H28336221   1.185   2.167   4.787 -0.6608  0.0657  1.1972
  120MOL   H28436222   1.205   1.883   4.902  0.4388  0.1193  2.1360
  120MOL   H28536223   1.285   2.026   4.965  0.0287  0.1364  0.5722
  120MOL   H28636224   1.323   1.960   4.797 -1.1928 -0.2850 -0.3503
  120MOL   C28736225   0.947   2.338   5.107  0.1719 -0.0069 -0.2099
  120MOL   C28836226   0.974   2.466   5.031 -0.4308  0.1170  0.2961
  120MOL   C28936227   0.849   2.528   4.963 -0.0576  0.1758  0.0579
  120MOL   O29036228   0.737   2.516   5.010 -0.0838  0.4211  0.0444
  120MOL   O29136229   0.877   2.616   4.862 -0.3981 -0.0803  0.7084
  120MOL   C29236230   0.777   2.685   4.797  0.2977  0.2373 -0.1240
  120MOL   C29336231   0.829   2.745   4.668  0.1284  0.7548 -0.5095
  120MOL   H29436232   0.913   2.352   5.209 -2.0879  1.1725 -1.0643
  120MOL   H29536233   1.044   2.294   5.128  0.2993 -0.7160 -2.1030
  120MOL   H29636234   1.013   2.534   5.107  1.0003 -1.0929  0.6491
  120MOL   H29736235   0.703   2.615   4.758 -1.5649  2.4530 -0.6698
  120MOL   H29836236   0.737   2.768   4.854 -1.5819 -0.3467 -0.5582
  120MOL   H29936237   0.902   2.824   4.682  0.8735 -0.1915  1.1812
  120MOL   H30036238   0.754   2.792   4.604  2.9314  2.0570 -2.9672
  120MOL   H30136239   0.870   2.669   4.601  1.4042 -0.3807  1.4994
  120MOL   H30236240   1.035   2.448   4.943  0.7829  2.5989  0.5832
  121MOL     C136241   6.340   6.866   2.363  0.1431  0.7081  0.3413
  121MOL     C236242   6.427   6.829   2.481  0.5765  0.0355  0.5740
  121MOL     C336243   6.365   6.908   2.600 -0.4507  0.2313 -0.2128
  121MOL     O436244   6.293   6.851   2.686  0.0828 -0.2244 -0.3049
  121MOL     O536245   6.411   7.041   2.604  0.1759 -0.5014 -0.5512
  121MOL     C636246   6.388   7.132   2.708 -0.0870  0.2172 -0.3003
  121MOL     C736247   6.518   7.175   2.781 -0.2783 -0.3002 -0.1738
  121MOL     H836248   6.331   6.974   2.352 -1.2128  0.6581  0.8717
  121MOL     H936249   6.240   6.822   2.363 -0.1066  1.2773  1.8770
  121MOL    H1036250   6.421   6.724   2.509  1.5547 -0.1636  0.0358
  121MOL    H1136251   6.343   7.221   2.666 -0.2464 -0.2589 -1.1425
  121MOL    H1236252   6.322   7.091   2.785 -0.6734  1.7349  0.0158
  121MOL    H1336253   6.589   7.094   2.763  0.3633  0.6221 -2.0045
  121MOL    H1436254   6.483   7.179   2.884 -1.0899  0.7266 -0.4794
  121MOL    H1536255   6.563   7.266   2.740  1.6570 -0.8315  0.6957
  121MOL    H1636256   6.380   6.825   2.270  0.7669  1.1617  0.4045
  121MOL    C1736257   6.579   6.857   2.452  0.5777 -0.0125  0.2345
  121MOL    C1836258   6.673   6.846   2.574  0.4508  0.0755  0.0519
  121MOL    C1936259   6.818   6.876   2.524  0.1514  0.0912 -0.2382
  121MOL    O2036260   6.883   6.962   2.590 -0.4180  0.1858  0.0959
  121MOL    O2136261   6.857   6.808   2.413  0.6939  0.2873 -0.7138
  121MOL    C2236262   6.992   6.832   2.366 -0.3256 -0.2797 -0.4332
  121MOL    C2336263   7.005   6.803   2.220 -0.5750 -0.3857  0.3202
  121MOL    H2436264   6.610   6.786   2.375  1.0140  1.0262 -0.5594
  121MOL    H2536265   6.580   6.961   2.420  0.6898  0.2172  0.9690
  121MOL    H2636266   6.648   6.915   2.655  0.7201 -0.3493  0.5054
  121MOL    H2736267   7.001   6.939   2.383  1.2749 -0.5900  0.7885
  121MOL    H2836268   7.074   6.787   2.422  0.4393  1.5472 -0.0453
  121MOL    H2936269   7.104   6.826   2.181 -1.3454  0.3930 -1.2196
  121MOL    H3036270   6.931   6.866   2.172 -0.7272  0.9771  2.3069
  121MOL    H3136271   6.971   6.700   2.207 -0.4724 -0.7022  2.4515
  121MOL    C3236272   6.656   6.709   2.651  0.0730 -0.1810  0.0156
  121MOL    C3336273   6.744   6.700   2.780 -0.2138 -0.0765 -0.4685
  121MOL    C3436274   6.781   6.554   2.798  0.1856  0.3608 -0.0659
  121MOL    O3536275   6.892   6.505   2.762 -0.5662 -0.3309  0.4517
  121MOL    O3636276   6.681   6.471   2.837  0.0454 -0.0543 -0.3159
  121MOL    C3736277   6.717   6.331   2.863 -0.1632  0.8940  1.1905
  121MOL    C3836278   6.594   6.253   2.899  0.2936 -0.0968  0.0670
  121MOL    H3936279   6.551   6.692   2.673  0.0380  2.3562  1.9875
  121MOL    H4036280   6.689   6.624   2.591  0.7611 -1.6374  2.4100
  121MOL    H4136281   6.832   6.757   2.750 -0.8458  0.1678 -1.8806
  121MOL    H4236282   6.764   6.287   2.776 -1.7890 -0.8963  1.1961
  121MOL    H4336283   6.790   6.329   2.944  1.4098 -0.1585 -0.2364
  121MOL    H4436284   6.558   6.286   2.997 -0.3674 -0.9707  0.1291
  121MOL    H4536285   6.608   6.145   2.897 -2.5364 -0.5290  0.8890
  121MOL    H4636286   6.518   6.288   2.830  1.4475 -0.5359 -1.4467
  121MOL    C4736287   6.672   6.761   2.898 -0.5420 -0.0238  0.2425
  121MOL    C4836288   6.761   6.798   3.021  0.2659 -0.2587 -0.0589
  121MOL    C4936289   6.862   6.902   2.998 -0.3968 -0.1473 -0.1584
  121MOL    O5036290   6.840   7.016   3.023 -0.1582 -0.6440  0.5926
  121MOL    O5136291   6.968   6.861   2.934 -0.3180 -0.3779  0.4977
  121MOL    C5236292   7.079   6.947   2.912 -0.2233  0.3292 -0.3620
  121MOL    C5336293   7.168   6.882   2.806 -0.5137 -0.0083 -0.1270
  121MOL    H5436294   6.625   6.856   2.873  1.5238  1.4930  1.9377
  121MOL    H5536295   6.605   6.685   2.937 -1.5542  0.1885 -1.0684
  121MOL    H5636296   6.690   6.834   3.096  0.1918  0.5780 -0.5269
  121MOL    H5736297   7.048   7.044   2.873 -0.4720  0.6115  0.5236
  121MOL    H5836298   7.136   6.966   3.003 -0.1317 -2.4643  0.2068
  121MOL    H5936299   7.207   6.784   2.834  1.3839  0.7852  0.0937
  121MOL    H6036300   7.255   6.942   2.779 -0.1822 -0.4236  0.0054
  121MOL    H6136301   7.115   6.881   2.711  0.4013  0.0662 -0.6492
  121MOL    C6236302   6.823   6.668   3.080  0.1638 -0.1169  0.2432
  121MOL    C6336303   6.874   6.693   3.226 -0.2028 -0.2463  0.0216
  121MOL    C6436304   6.953   6.565   3.278  0.8697 -0.5311  0.0829
  121MOL    O6536305   7.052   6.570   3.355 -0.2869  0.6198  0.3959
  121MOL    O6636306   6.889   6.448   3.253 -0.2321 -0.0853  0.4099
  121MOL    C6736307   6.923   6.331   3.328  0.3088 -0.4495  0.6057
  121MOL    C6836308   6.815   6.225   3.293 -0.0173  0.1755 -0.0870
  121MOL    H6936309   6.748   6.589   3.077  0.2510 -0.2379  1.1602
  121MOL    H7036310   6.901   6.632   3.013 -0.1639 -1.4517  0.5739
  121MOL    H7136311   6.941   6.779   3.231 -0.9011  0.2571  0.6797
  121MOL    H7236312   7.020   6.295   3.296 -0.4870 -0.7221 -1.5925
  121MOL    H7336313   6.907   6.361   3.431  1.8679 -2.2011  1.3807
  121MOL    H7436314   6.721   6.269   3.325  0.0147 -0.1291  0.4403
  121MOL    H7536315   6.835   6.128   3.341  0.0991  0.0103 -0.4689
  121MOL    H7636316   6.804   6.214   3.185  3.6132 -0.0845 -0.5067
  121MOL    C7736317   6.769   6.742   3.328  0.3398  0.2367 -0.1499
  121MOL    C7836318   6.673   6.636   3.394 -0.8122  0.0483 -0.3562
  121MOL    C7936319   6.575   6.581   3.288  0.8090 -0.0804 -0.2158
  121MOL    O8036320   6.553   6.461   3.289 -0.1544 -0.1357  0.1399
  121MOL    O8136321   6.525   6.665   3.204  0.4215 -0.0234  0.4602
  121MOL    C8236322   6.420   6.622   3.125  0.5660  0.6534 -0.7842
  121MOL    C8336323   6.327   6.740   3.093 -0.4425  0.3027 -0.0015
  121MOL    H8436324   6.819   6.792   3.410  0.2329 -1.9577  1.2949
  121MOL    H8536325   6.710   6.823   3.284  1.8587  0.6701 -1.4482
  121MOL    H8636326   6.724   6.550   3.438 -0.4861  0.5332  0.2142
  121MOL    H8736327   6.466   6.571   3.040  2.2935  0.2558  0.3523
  121MOL    H8836328   6.361   6.544   3.174  1.0135  0.3649 -0.6998
  121MOL    H8936329   6.254   6.726   3.013 -1.3183 -2.0366  1.1507
  121MOL    H9036330   6.383   6.823   3.051  0.2087  1.7197  3.5480
  121MOL    H9136331   6.271   6.777   3.178 -2.9476  0.3593 -1.6233
  121MOL    C9236332   6.594   6.687   3.511 -0.2625  0.3153  0.0196
  121MOL    C9336333   6.663   6.755   3.629  0.4816  0.2398 -0.0238
  121MOL    C9436334   6.776   6.672   3.683 -0.4373  0.0465  0.5724
  121MOL    O9536335   6.757   6.563   3.734 -0.1507  0.1674 -0.8917
  121MOL    O9636336   6.891   6.734   3.668  0.4875 -0.4203  0.3623
  121MOL    C9736337   7.010   6.678   3.711  0.4412 -0.3591 -0.4891
  121MOL    C9836338   7.123   6.763   3.669 -0.4043 -0.3692 -0.3807
  121MOL    H9936339   6.525   6.766   3.482  1.3535  2.2860  1.3941
  121MOL   H10036340   6.519   6.616   3.546  0.2125 -1.4993 -2.5246
  121MOL   H10136341   6.707   6.847   3.589  1.4670  1.5179  3.7971
  121MOL   H10236342   7.011   6.671   3.820  2.6167  0.5268 -0.4155
  121MOL   H10336343   7.015   6.584   3.655 -0.0456 -0.4019 -0.4594
  121MOL   H10436344   7.124   6.768   3.560 -1.4603  2.9487 -0.3010
  121MOL   H10536345   7.218   6.719   3.699  1.5162  1.4214 -3.4693
  121MOL   H10636346   7.125   6.869   3.696 -0.5269 -0.3317 -0.5126
  121MOL   C10736347   6.565   6.793   3.744 -0.8228 -0.0964 -0.9046
  121MOL   C10836348   6.609   6.917   3.831 -0.6951  0.9345 -0.0390
  121MOL   C10936349   6.605   6.877   3.981 -0.7334 -0.4130  0.2192
  121MOL   O11036350   6.520   6.924   4.053  0.4573 -0.0623  0.3204
  121MOL   O11136351   6.705   6.799   4.018  0.5083  0.0148 -0.2927
  121MOL   C11236352   6.701   6.759   4.153 -0.4442  0.4831 -0.3117
  121MOL   C11336353   6.805   6.649   4.161 -0.0747  0.3904  0.5117
  121MOL   H11436354   6.476   6.837   3.699 -0.3953 -0.1100 -1.7757
  121MOL   H11536355   6.525   6.709   3.800  0.7703 -1.1064 -1.2607
  121MOL   H11636356   6.714   6.931   3.804 -0.7870  0.7628 -0.4970
  121MOL   H11736357   6.733   6.838   4.222 -2.4984  1.6743 -0.6632
  121MOL   H11836358   6.605   6.724   4.192 -0.7927  3.0379  1.2769
  121MOL   H11936359   6.781   6.593   4.251 -1.1428  0.2938  0.1799
  121MOL   H12036360   6.907   6.687   4.165 -0.2537  1.2568 -2.2247
  121MOL   H12136361   6.796   6.573   4.084  0.5626  0.8210  0.0126
  121MOL   C12236362   6.530   7.050   3.800 -0.5429  0.2600  0.5331
  121MOL   C12336363   6.548   7.114   3.664 -0.1771 -0.5855  1.1889
  121MOL   C12436364   6.679   7.191   3.644 -0.1006 -0.2895  0.2342
  121MOL   O12536365   6.775   7.148   3.584 -0.7054 -0.0541 -0.2730
  121MOL   O12636366   6.677   7.317   3.699 -0.5505 -0.1702 -0.1809
  121MOL   C12736367   6.793   7.406   3.692 -0.0618 -0.7696 -0.1774
  121MOL   C12836368   6.772   7.481   3.553 -0.3551  0.0356 -0.8560
  121MOL   H12936369   6.426   7.029   3.826 -0.2158 -0.9781  0.8761
  121MOL   H13036370   6.548   7.134   3.867  0.7871  0.3676  0.0425
  121MOL   H13136371   6.563   7.035   3.590 -0.4721 -0.7513  1.3061
  121MOL   H13236372   6.796   7.479   3.773  0.9198 -2.0267  0.9480
  121MOL   H13336373   6.889   7.357   3.676  0.3513  0.1380 -0.5380
  121MOL   H13436374   6.800   7.422   3.466 -1.6128 -0.6795 -0.7902
  121MOL   H13536375   6.832   7.572   3.544 -0.1869 -0.1253 -1.3732
  121MOL   H13636376   6.672   7.525   3.550  0.5581  2.1356 -1.8991
  121MOL   C13736377   6.419   7.194   3.610 -0.3065  0.0528  0.0363
  121MOL   C13836378   6.331   7.119   3.509 -0.4844 -0.4322 -0.1319
  121MOL   C13936379   6.405   7.061   3.385 -0.0794  0.2549 -0.1684
  121MOL   O14036380   6.391   6.944   3.349 -0.2948  0.2061  0.8325
  121MOL   O14136381   6.490   7.149   3.325  0.1506  0.9190 -0.2128
  121MOL   C14236382   6.579   7.107   3.220  0.1542 -0.1289 -0.2421
  121MOL   C14336383   6.639   7.242   3.160  0.0149  0.1796 -0.2064
  121MOL   H14436384   6.353   7.239   3.684  0.9795  1.4963  0.3241
  121MOL   H14536385   6.466   7.280   3.561 -0.4760 -0.9210 -1.8835
  121MOL   H14636386   6.299   7.027   3.558  0.1307  0.5651  2.1868
  121MOL   H14736387   6.660   7.040   3.249 -1.0155 -1.3434  0.2557
  121MOL   H14836388   6.519   7.059   3.143 -0.9873 -0.9014  1.1247
  121MOL   H14936389   6.720   7.232   3.087 -1.1253 -1.3586 -1.3050
  121MOL   H15036390   6.675   7.308   3.238 -2.0728  1.3637 -0.2041
  121MOL   H15136391   6.563   7.293   3.102 -0.6025 -0.6736 -0.1629
  121MOL   C15236392   6.206   7.198   3.467  0.2318 -0.2780  0.2802
  121MOL   C15336393   6.229   7.338   3.403  0.5778 -0.1382 -1.0758
  121MOL   C15436394   6.240   7.452   3.509  0.0903 -0.1001 -0.5194
  121MOL   O15536395   6.331   7.528   3.525  0.6044  0.4104  0.4862
  121MOL   O15636396   6.127   7.460   3.580  0.0250 -0.5395  0.1641
  121MOL   C15736397   6.109   7.575   3.663  0.2865  0.3744  0.1425
  121MOL   C15836398   6.055   7.694   3.580 -0.3205 -0.3099 -0.7137
  121MOL   H15936399   6.152   7.131   3.399  0.1386  0.3325 -0.2507
  121MOL   H16036400   6.135   7.192   3.550 -0.5827  0.9889 -0.3063
  121MOL   H16136401   6.326   7.336   3.354  0.0793 -3.2511 -1.9940
  121MOL   H16236402   6.027   7.558   3.733 -0.5098  2.4312 -0.2353
  121MOL   H16336403   6.195   7.589   3.728 -1.7309 -1.0251  3.2116
  121MOL   H16436404   6.030   7.776   3.646 -1.0867 -0.1827 -1.1635
  121MOL   H16536405   5.969   7.657   3.526 -0.8106 -1.6900  0.9469
  121MOL   H16636406   6.135   7.725   3.513  1.3976  1.1683  1.9322
  121MOL   C16736407   6.119   7.367   3.301 -0.5816 -0.1546  0.0066
  121MOL   C16836408   6.167   7.363   3.152  0.2081 -0.1165 -0.1759
  121MOL   C16936409   6.200   7.224   3.101 -0.2868 -0.0569 -0.2971
  121MOL   O17036410   6.315   7.198   3.062 -0.7359  0.5551  0.0407
  121MOL   O17136411   6.105   7.141   3.126  0.1314 -0.1717  0.4334
  121MOL   C17236412   6.126   7.004   3.105 -0.7224 -0.1485  0.7274
  121MOL   C17336413   5.997   6.925   3.100  0.3992  0.1503 -0.0170
  121MOL   H17436414   6.033   7.302   3.317 -0.1830 -0.3341  1.4878
  121MOL   H17536415   6.090   7.468   3.328  0.8238 -0.0238  1.0372
  121MOL   H17636416   6.082   7.402   3.095  0.0496 -0.5630 -0.2412
  121MOL   H17736417   6.184   7.000   3.013 -0.4359  1.6829  0.8118
  121MOL   H17836418   6.192   6.968   3.184  0.3121 -1.0977 -0.5381
  121MOL   H17936419   5.936   6.957   3.184 -0.4303  0.1111 -0.5975
  121MOL   H18036420   6.010   6.817   3.095  0.2251  0.1272  0.0145
  121MOL   H18136421   5.939   6.968   3.018  1.2860  3.6351  1.1050
  121MOL   C18236422   6.276   7.467   3.122 -0.4012  0.3985  0.2105
  121MOL   C18336423   6.285   7.504   2.970  0.1563 -0.1324  0.0699
  121MOL   C18436424   6.430   7.547   2.936 -0.1632 -0.3632  0.1656
  121MOL   O18536425   6.500   7.481   2.861  0.0369 -0.2881  0.5789
  121MOL   O18636426   6.470   7.665   2.993  0.4210  0.1248 -0.6712
  121MOL   C18736427   6.605   7.704   2.986 -0.4650 -0.1578  0.4668
  121MOL   C18836428   6.687   7.655   3.100  0.0422 -0.2041 -0.2413
  121MOL   H18936429   6.262   7.560   3.175 -2.6579 -0.5588  1.3693
  121MOL   H19036430   6.370   7.423   3.156 -0.7272  1.6649  2.8635
  121MOL   H19136431   6.268   7.415   2.909  0.1208  1.3753 -2.1785
  121MOL   H19236432   6.640   7.668   2.889 -2.2516 -1.0648  0.1222
  121MOL   H19336433   6.615   7.812   2.977 -3.6498  0.4667  3.5269
  121MOL   H19436434   6.716   7.551   3.084 -0.4713 -0.7846  2.3533
  121MOL   H19536435   6.644   7.656   3.200 -0.7974 -1.0221 -0.5864
  121MOL   H19636436   6.780   7.712   3.107  0.9192 -1.5574 -0.4788
  121MOL   C19736437   6.181   7.612   2.935  1.2450 -0.4029 -0.1788
  121MOL   C19836438   6.179   7.649   2.782 -0.0034  0.3078 -0.4517
  121MOL   C19936439   6.099   7.778   2.747 -0.7126 -0.4889  0.3408
  121MOL   O20036440   6.145   7.863   2.670 -0.6918  0.0690  0.3218
  121MOL   O20136441   5.982   7.797   2.803 -0.4389  0.0767 -0.4461
  121MOL   C20236442   5.907   0.002   2.766  0.9610 -0.4431 -0.1494
  121MOL   C20336443   5.775   0.008   2.851 -0.0382 -0.3574 -0.4725
  121MOL   H20436444   6.086   7.574   2.974  1.6697 -0.9052  0.3701
  121MOL   H20536445   6.217   7.706   2.978  0.8237  1.4704 -3.7399
  121MOL   H20636446   6.280   7.682   2.756  0.8710 -1.4255  0.6856
  121MOL   H20736447   5.972   0.086   2.789  0.9225  0.1449 -2.1636
  121MOL   H20836448   5.895   0.003   2.658  0.9783 -1.3478 -0.1690
  121MOL   H20936449   5.703   0.070   2.797  0.6288 -0.2021 -1.1979
  121MOL   H21036450   5.782   0.038   2.956 -0.4838 -0.1189 -0.5133
  121MOL   H21136451   5.741   7.813   2.851 -1.6044  0.1488  0.2520
  121MOL   C21236452   6.126   7.536   2.693  0.3406  0.5021 -0.0908
  121MOL   C21336453   6.181   7.543   2.556  0.0139 -0.4140 -0.4331
  121MOL   C21436454   6.098   7.473   2.453 -0.4549  0.0626  0.1997
  121MOL   O21536455   6.072   7.521   2.344  0.1020 -0.9406  0.1048
  121MOL   O21636456   6.065   7.346   2.497  0.1946  0.0223  0.3563
  121MOL   C21736457   6.007   7.257   2.410 -0.0556 -0.2538 -0.1815
  121MOL   C21836458   6.109   7.139   2.379  0.2209 -0.3388  0.4975
  121MOL   H21936459   6.145   7.438   2.737  0.1262 -0.0213 -1.1440
  121MOL   H22036460   6.018   7.545   2.695  0.3988  1.0895  0.8216
  121MOL   H22136461   6.178   7.648   2.527 -2.4412 -0.5559 -0.7453
  121MOL   H22236462   5.916   7.215   2.454  0.2814  0.6559  1.4149
  121MOL   H22336463   5.980   7.317   2.324 -1.2196  1.2304  1.1870
  121MOL   H22436464   6.130   7.077   2.466 -0.5505 -1.0455  0.1921
  121MOL   H22536465   6.201   7.191   2.355 -0.7857  1.0358 -0.4825
  121MOL   H22636466   6.086   7.075   2.293  2.5431  0.3365 -0.6725
  121MOL   C22736467   6.328   7.499   2.548  0.2382 -0.8714 -0.6729
  121MOL   C22836468   6.426   7.581   2.460 -0.3264 -0.1060  0.3208
  121MOL   C22936469   6.425   7.732   2.502  0.0767 -0.3440  0.4620
  121MOL   O23036470   6.384   7.822   2.438  0.5293  0.4247 -0.2765
  121MOL   O23136471   6.481   7.748   2.616 -0.2562  0.3079 -0.5572
  121MOL   C23236472   6.491   7.869   2.690 -0.3104 -0.2890  0.6077
  121MOL   C23336473   6.643   7.905   2.689 -0.8218  0.3048  0.7221
  121MOL   H23436474   6.388   7.519   2.636 -0.0698 -1.6542 -0.2770
  121MOL   H23536475   6.323   7.393   2.522  1.1350 -0.9556 -0.4963
  121MOL   H23636476   6.529   7.547   2.470  0.4945  2.2404  0.1326
  121MOL   H23736477   6.425   0.033   2.642 -1.1870 -0.6665  1.2426
  121MOL   H23836478   6.443   7.864   2.787  0.5427  0.1413  1.0576
  121MOL   H23936479   6.657   0.097   2.728  1.1509  0.6166 -0.7475
  121MOL   H24036480   6.685   7.894   2.589 -2.1408 -0.0086  0.1922
  121MOL   H24136481   6.700   7.836   2.752 -2.4315 -2.0807 -0.3456
  121MOL   C24236482   6.420   7.560   2.308  0.4200  0.0518  0.5551
  121MOL   C24336483   6.407   7.412   2.256  0.9027  0.7072 -0.5539
  121MOL   C24436484   6.522   7.326   2.302 -0.7500 -0.3175 -0.3434
  121MOL   O24536485   6.509   7.234   2.383  0.3193 -0.0507 -0.5286
  121MOL   O24636486   6.635   7.368   2.253  0.3150  0.0119  1.0587
  121MOL   C24736487   6.753   7.302   2.293 -0.3727  1.2777  0.0391
  121MOL   C24836488   6.782   7.164   2.222  0.4783  0.0761 -0.5358
  121MOL   H24936489   6.332   7.613   2.269  1.8137  0.6890 -1.8557
  121MOL   H25036490   6.503   7.607   2.256  0.1697  1.7919  1.6886
  121MOL   H25136491   6.320   7.365   2.303  0.1079  0.0373 -2.6749
  121MOL   H25236492   6.842   7.362   2.275  1.6297 -2.0604 -1.6587
  121MOL   H25336493   6.743   7.291   2.401  1.1799  0.6076  0.1329
  121MOL   H25436494   6.874   7.113   2.252  1.1618  1.8016  0.3690
  121MOL   H25536495   6.761   7.159   2.115  2.5039  0.4565 -0.9631
  121MOL   H25636496   6.703   7.099   2.260 -0.3359 -0.7967 -3.5347
  121MOL   C25736497   6.394   7.407   2.098  0.1916  0.9581  0.0864
  121MOL   C25836498   6.352   7.273   2.028  0.7616 -0.0946 -0.3169
  121MOL   C25936499   6.437   7.259   1.904 -0.2315 -0.7459 -0.0283
  121MOL   O26036500   6.520   7.165   1.898  0.0789 -0.2094  0.0886
  121MOL   O26136501   6.411   7.344   1.808  0.5007 -0.0058  0.5814
  121MOL   C26236502   6.488   7.350   1.691  0.6514  0.1766  0.0225
  121MOL   C26336503   6.436   7.271   1.567  0.0663  0.3694 -0.3605
  121MOL   H26436504   6.321   7.478   2.058 -0.7114 -0.2282 -0.4050
  121MOL   H26536505   6.487   7.452   2.065  0.1021  0.8865 -0.2615
  121MOL   H26636506   6.400   7.195   2.087  1.2989  1.5973  1.5390
  121MOL   H26736507   6.486   7.457   1.666 -1.0192  0.4051  1.1074
  121MOL   H26836508   6.592   7.322   1.705  1.3937  3.0009  0.5848
  121MOL   H26936509   6.454   7.163   1.559  1.0110  0.3194  2.1584
  121MOL   H27036510   6.498   7.313   1.488 -0.9720  0.1739 -1.3011
  121MOL   H27136511   6.334   7.295   1.536 -0.3035  0.4265  0.8656
  121MOL   C27236512   6.201   7.264   2.009 -0.5832 -0.3229  0.5544
  121MOL   C27336513   6.139   7.141   1.940  0.3496 -0.5017 -0.1255
  121MOL   C27436514   6.146   7.004   2.005  0.2250  0.5626 -0.1681
  121MOL   O27536515   6.254   6.950   2.016 -0.7241  0.2230  0.2883
  121MOL   O27636516   6.034   6.962   2.054 -0.0771  0.5942  1.2240
  121MOL   C27736517   6.020   6.832   2.100 -0.0851  0.3369 -0.3303
  121MOL   C27836518   5.884   6.814   2.159  0.3166 -0.0851  0.4788
  121MOL   H27936519   6.143   7.281   2.100 -1.2186  1.0880 -0.1107
  121MOL   H28036520   6.173   7.352   1.951 -2.2040 -1.8037 -0.9464
  121MOL   H28136521   6.036   7.167   1.966  1.4814  3.0856  1.0296
  121MOL   H28236522   6.043   6.769   2.014 -0.9030  0.8061 -0.9006
  121MOL   H28336523   6.094   6.817   2.178 -0.0000  1.6277 -0.1447
  121MOL   H28436524   5.882   6.723   2.219  0.3218 -0.5918 -0.2765
  121MOL   H28536525   5.806   6.803   2.084 -0.8111 -1.2512  1.7949
  121MOL   H28636526   5.851   6.894   2.225  1.0987  1.2961 -0.7422
  121MOL   C28736527   6.160   7.134   1.788 -0.2787  0.1030 -0.0971
  121MOL   C28836528   6.049   7.047   1.711  0.2178  0.3187 -0.2150
  121MOL   C28936529   6.075   7.035   1.563 -0.3798 -0.8959 -0.6278
  121MOL   O29036530   6.164   7.087   1.508 -0.1921  0.2086 -0.0349
  121MOL   O29136531   5.978   6.964   1.503 -0.5399 -0.2892  0.1380
  121MOL   C29236532   5.960   6.964   1.361  0.3352 -0.3678  0.0089
  121MOL   C29336533   6.014   6.833   1.292  0.3106 -0.5530  0.4201
  121MOL   H29436534   6.140   7.230   1.741  5.0128  1.1663 -0.5172
  121MOL   H29536535   6.262   7.118   1.752  0.0379  1.7434  0.0173
  121MOL   H29636536   6.060   6.942   1.739  3.4476  0.8801  0.8170
  121MOL   H29736537   5.853   6.961   1.341  0.5849 -1.3771 -1.2839
  121MOL   H29836538   6.005   7.055   1.320 -0.7639  1.1291  2.0809
  121MOL   H29936539   6.027   6.835   1.184  0.2957 -1.8657  0.3822
  121MOL   H30036540   5.942   6.756   1.317 -1.6599  1.0544 -0.1845
  121MOL   H30136541   6.116   6.814   1.325  1.3318  1.1578 -1.6434
  121MOL   H30236542   5.947   7.084   1.724 -0.3540 -1.5773  0.8394
  122MOL     C136543   1.357   3.811   5.835 -0.4543 -0.3533 -0.4810
  122MOL     C236544   1.470   3.904   5.793 -0.0566 -0.3051  0.0203
  122MOL     C336545   1.482   4.033   5.886  0.1001  0.0997 -0.7139
  122MOL     O436546   1.397   4.055   5.972 -0.1873 -0.1250 -0.4676
  122MOL     O536547   1.594   4.100   5.867  0.4539 -0.6752 -0.3025
  122MOL     C636548   1.627   4.212   5.948 -0.3595  0.0805  0.2576
  122MOL     C736549   1.776   4.245   5.932  0.1784  0.1821  0.0124
  122MOL     H836550   1.393   3.708   5.827 -0.7345 -0.3490 -2.0858
  122MOL     H936551   1.259   3.829   5.790 -0.5023  0.5380 -0.0269
  122MOL    H1036552   1.569   3.858   5.803  0.5898  1.0225 -0.1837
  122MOL    H1136553   1.560   4.285   5.904 -1.6170 -0.7207  0.8060
  122MOL    H1236554   1.596   4.185   6.049  0.3283  1.4787  0.8493
  122MOL    H1336555   1.839   4.174   5.986  1.9997  1.5716 -0.2553
  122MOL    H1436556   1.798   4.342   5.978  0.4523 -0.3350  0.9973
  122MOL    H1536557   1.807   4.250   5.828 -0.3458  0.7377 -0.1244
  122MOL    H1636558   1.335   3.814   5.941  2.4957 -0.7182  0.1555
  122MOL    C1736559   1.455   3.929   5.643 -0.0717 -0.5930  0.1131
  122MOL    C1836560   1.462   3.814   5.539  0.5022 -0.2349  0.5665
  122MOL    C1936561   1.589   3.726   5.552 -0.4872  0.5803  0.7129
  122MOL    O2036562   1.677   3.748   5.624  0.0529 -0.4247 -0.7130
  122MOL    O2136563   1.602   3.632   5.455  0.2959  0.1209 -0.9581
  122MOL    C2236564   1.693   3.522   5.470  0.2961  0.4273 -0.0499
  122MOL    C2336565   1.698   3.427   5.352  0.2509  0.5899 -0.4077
  122MOL    H2436566   1.362   3.984   5.631  0.2305 -0.5850 -2.3453
  122MOL    H2536567   1.525   4.007   5.611 -1.7423  0.6741 -0.4973
  122MOL    H2636568   1.390   3.735   5.556  0.6238 -0.3042  0.7593
  122MOL    H2736569   1.793   3.563   5.483  0.4368 -0.2636  1.1996
  122MOL    H2836570   1.686   3.477   5.570  1.0000 -1.2135 -0.7240
  122MOL    H2936571   1.701   3.484   5.259  0.9422  1.8574  0.3852
  122MOL    H3036572   1.606   3.368   5.346 -1.4583  2.8513  2.5860
  122MOL    H3136573   1.789   3.369   5.363  1.2114  1.9110 -1.2560
  122MOL    C3236574   1.450   3.867   5.395  0.9681  0.5878  0.5005
  122MOL    C3336575   1.301   3.893   5.355 -0.2113 -0.0052 -0.2441
  122MOL    C3436576   1.226   3.761   5.330 -0.4751  0.1363  0.4533
  122MOL    O3536577   1.127   3.726   5.396 -0.0538  0.2910 -0.1857
  122MOL    O3636578   1.279   3.686   5.234 -0.4268  0.0544 -0.5561
  122MOL    C3736579   1.226   3.561   5.204  0.7395 -0.9522  0.9709
  122MOL    C3836580   1.119   3.581   5.095  0.1360 -0.3808 -0.5465
  122MOL    H3936581   1.507   3.960   5.391  1.5011  0.1684 -3.5039
  122MOL    H4036582   1.493   3.805   5.317 -0.9145  1.1422 -1.0186
  122MOL    H4136583   1.251   3.934   5.443  1.7335 -1.2074  1.4777
  122MOL    H4236584   1.299   3.491   5.164  1.0879  2.4592 -4.9292
  122MOL    H4336585   1.183   3.514   5.292  0.5088  1.1446  2.0206
  122MOL    H4436586   1.057   3.492   5.083 -1.3438  0.3663  1.3510
  122MOL    H4536587   1.171   3.602   5.001  2.2840  2.4257  1.1979
  122MOL    H4636588   1.053   3.663   5.122  1.3428 -0.2052  2.0828
  122MOL    C4736589   1.289   4.002   5.243 -0.0190 -0.0917 -0.1655
  122MOL    C4836590   1.147   4.062   5.205 -0.6523  0.2233  0.3746
  122MOL    C4936591   1.165   4.121   5.060  0.4927 -0.4977  0.3038
  122MOL    O5036592   1.073   4.091   4.984 -0.7058 -0.1619  0.6143
  122MOL    O5136593   1.271   4.204   5.034  0.2428  0.6919 -0.1190
  122MOL    C5236594   1.288   4.259   4.900  0.6103 -0.1278  0.2430
  122MOL    C5336595   1.433   4.261   4.843  0.2829  0.3233 -0.2861
  122MOL    H5436596   1.349   4.086   5.280 -1.9612  0.8135  1.0131
  122MOL    H5536597   1.338   3.973   5.150 -1.8226 -1.5653 -0.6877
  122MOL    H5636598   1.088   3.970   5.196 -2.5508  1.4698 -0.1589
  122MOL    H5736599   1.209   4.219   4.836  1.4428 -0.2001 -0.7642
  122MOL    H5836600   1.254   4.363   4.897 -1.5094 -0.8202 -0.3496
  122MOL    H5936601   1.497   4.331   4.895  0.1654 -1.4820  2.3974
  122MOL    H6036602   1.428   4.291   4.738  2.4970 -1.2157 -0.8753
  122MOL    H6136603   1.470   4.159   4.840  0.1610  0.2382  1.0796
  122MOL    C6236604   1.095   4.168   5.313  0.3014 -0.2746 -0.4847
  122MOL    C6336605   1.184   4.285   5.348 -0.0754 -0.6332 -0.0741
  122MOL    C6436606   1.266   4.265   5.479  0.5600  0.3967 -0.0359
  122MOL    O6536607   1.380   4.230   5.490 -0.2833  0.0151  0.0213
  122MOL    O6636608   1.181   4.273   5.587  0.0600  0.1915  0.4738
  122MOL    C6736609   1.232   4.246   5.723 -0.4305 -0.7090  0.0905
  122MOL    C6836610   1.187   4.348   5.836  0.3633 -0.2535  0.1183
  122MOL    H6936611   1.002   4.206   5.270  1.2304  2.4892 -0.1157
  122MOL    H7036612   1.070   4.106   5.399 -1.1911  3.4496  1.8830
  122MOL    H7136613   1.269   4.290   5.279  0.2764 -1.0748  0.3193
  122MOL    H7236614   1.215   4.141   5.747  0.6588 -0.7085  0.8991
  122MOL    H7336615   1.341   4.252   5.724 -0.5178  1.4659 -0.7938
  122MOL    H7436616   1.250   4.335   5.924  0.6224  1.3135  0.1776
  122MOL    H7536617   1.088   4.331   5.878  1.0745  1.3091  2.5173
  122MOL    H7636618   1.202   4.453   5.810 -0.2489 -0.3586 -0.7027
  122MOL    C7736619   1.108   4.421   5.337  0.1036 -0.2061 -0.4656
  122MOL    C7836620   1.190   4.553   5.362  0.1917 -0.3129  0.0374
  122MOL    C7936621   1.099   4.672   5.399 -0.3151 -0.2230  0.4112
  122MOL    O8036622   1.118   4.741   5.496  0.3595  0.4768 -0.6708
  122MOL    O8136623   0.991   4.678   5.313  0.0377 -0.0142 -0.2571
  122MOL    C8236624   0.886   4.767   5.331 -0.5173  1.0104 -0.0445
  122MOL    C8336625   0.853   4.864   5.222 -0.6536  0.6875 -0.2458
  122MOL    H8436626   1.060   4.426   5.240 -0.5561  1.6267 -0.0526
  122MOL    H8536627   1.034   4.425   5.417  2.9294  1.1406  2.2199
  122MOL    H8636628   1.270   4.549   5.436  2.0730 -0.9500 -1.9679
  122MOL    H8736629   0.804   4.696   5.342  0.2590  0.3369  1.6660
  122MOL    H8836630   0.902   4.804   5.433 -1.4928 -0.5229  0.6856
  122MOL    H8936631   0.751   4.902   5.229 -0.8881 -0.1332  0.8958
  122MOL    H9036632   0.866   4.812   5.127 -2.4263 -0.1426 -0.0528
  122MOL    H9136633   0.933   4.937   5.208  1.4244 -1.2217  1.2687
  122MOL    C9236634   1.267   4.584   5.223 -0.2807  0.6464  0.0651
  122MOL    C9336635   1.391   4.677   5.236 -0.0421 -0.0990  0.1730
  122MOL    C9436636   1.353   4.826   5.238 -0.5166 -1.0653 -0.3493
  122MOL    O9536637   1.288   4.871   5.148 -0.0340 -0.2894 -0.6032
  122MOL    O9636638   1.405   4.897   5.347  0.1708  0.5249  0.2162
  122MOL    C9736639   1.407   5.041   5.361 -0.0784 -0.4206 -0.7259
  122MOL    C9836640   1.274   5.102   5.397 -0.0668 -0.4175  0.1756
  122MOL    H9936641   1.294   4.490   5.176 -2.2072 -0.8002  1.7674
  122MOL   H10036642   1.198   4.623   5.148  0.2022  0.6674 -0.3657
  122MOL   H10136643   1.438   4.660   5.334 -0.2646  1.4233  0.5558
  122MOL   H10236644   1.477   5.070   5.439 -2.2765 -0.4379  1.3057
  122MOL   H10336645   1.445   5.083   5.268 -1.1289  2.3134  0.0454
  122MOL   H10436646   1.253   5.082   5.502  1.8810  0.5775  0.7851
  122MOL   H10536647   1.198   5.056   5.333 -0.0047 -1.5756  0.9143
  122MOL   H10636648   1.264   5.208   5.373 -0.9410 -0.7465 -0.9738
  122MOL   C10736649   1.493   4.642   5.122 -0.0926  0.4503  0.4420
  122MOL   C10836650   1.601   4.548   5.168 -0.6283 -0.2679  0.2486
  122MOL   C10936651   1.713   4.540   5.068 -0.6364  0.0167 -0.2670
  122MOL   O11036652   1.709   4.479   4.958 -0.1430  0.7419 -0.0826
  122MOL   O11136653   1.816   4.610   5.098 -0.1039  0.3035 -0.0167
  122MOL   C11236654   1.926   4.600   5.010  0.3816  0.0838 -0.1373
  122MOL   C11336655   2.038   4.697   5.046  0.0000 -0.9251  0.2601
  122MOL   H11436656   1.443   4.608   5.031 -0.9611 -0.0596  1.0972
  122MOL   H11536657   1.549   4.731   5.094 -0.6091  0.3843 -0.8610
  122MOL   H11636658   1.657   4.599   5.246 -1.1018  1.3641 -0.4487
  122MOL   H11736659   1.971   4.503   5.033  0.3859 -0.2665 -1.5432
  122MOL   H11836660   1.899   4.607   4.904  0.2158  0.6141 -0.0628
  122MOL   H11936661   2.105   4.664   5.125 -0.3187 -1.0763  0.4696
  122MOL   H12036662   1.995   4.791   5.081  0.9202  0.1679 -1.4606
  122MOL   H12136663   2.097   4.733   4.962  1.8701  1.6384  2.5543
  122MOL   C12236664   1.554   4.415   5.224  0.0654  1.0746  0.5648
  122MOL   C12336665   1.654   4.332   5.310 -0.5055  0.3801  0.2703
  122MOL   C12436666   1.686   4.400   5.441 -0.1706  0.1790  0.3005
  122MOL   O12536667   1.803   4.425   5.469  0.3561 -0.5154 -0.2647
  122MOL   O12636668   1.583   4.430   5.520  0.6213  0.7882 -0.3797
  122MOL   C12736669   1.606   4.462   5.658  0.1820  0.3117 -0.3866
  122MOL   C12836670   1.479   4.525   5.707  0.5698  0.6994  0.2400
  122MOL   H12936671   1.466   4.417   5.288 -1.7355  1.3268 -1.8311
  122MOL   H13036672   1.504   4.357   5.146  0.7662  1.8083 -0.4284
  122MOL   H13136673   1.598   4.243   5.338 -2.1287  0.6149 -2.1641
  122MOL   H13236674   1.633   4.368   5.707 -2.1638 -0.2998 -0.2149
  122MOL   H13336675   1.685   4.536   5.672  0.7976 -0.3999 -0.0245
  122MOL   H13436676   1.462   4.630   5.679  1.8601  0.3603 -1.9211
  122MOL   H13536677   1.485   4.512   5.815  0.0499 -1.8713 -0.0213
  122MOL   H13636678   1.395   4.471   5.664  1.3096 -0.1529 -0.1379
  122MOL   C13736679   1.785   4.274   5.238  0.0774  0.0650  0.5934
  122MOL   C13836680   1.760   4.180   5.113 -0.4332 -0.4651 -0.4195
  122MOL   C13936681   1.737   4.038   5.169 -0.0985  0.2441  0.6859
  122MOL   O14036682   1.629   3.984   5.173  0.5570  0.6494  0.7848
  122MOL   O14136683   1.851   3.980   5.227  0.0270 -0.0557  0.0402
  122MOL   C14236684   1.846   3.838   5.253  0.6913  0.2365  0.1507
  122MOL   C14336685   1.994   3.797   5.275  1.1580  0.1060 -0.4051
  122MOL   H14436686   1.842   4.354   5.192  1.1074 -1.1377 -0.2750
  122MOL   H14536687   1.848   4.238   5.319 -0.2666 -0.7904  0.4922
  122MOL   H14636688   1.669   4.219   5.068 -1.0910  0.2986  1.5254
  122MOL   H14736689   1.797   3.822   5.349 -2.5072 -1.4655 -1.6792
  122MOL   H14836690   1.788   3.792   5.173  1.0174 -0.7765  0.4976
  122MOL   H14936691   2.061   3.818   5.192 -0.3374  0.5908 -1.5263
  122MOL   H15036692   1.984   3.690   5.295 -1.5663  0.2614 -0.6799
  122MOL   H15136693   2.030   3.844   5.367  1.6286 -0.4120 -0.3252
  122MOL   C15236694   1.883   4.189   5.018 -0.0492 -0.1652  0.5231
  122MOL   C15336695   1.884   4.105   4.881 -0.0518 -0.0558  0.5135
  122MOL   C15436696   1.964   3.971   4.908 -0.2485 -0.6390  1.0805
  122MOL   O15536697   1.909   3.864   4.926 -0.1717  0.0688 -0.3194
  122MOL   O15636698   2.098   3.988   4.901  0.0512 -0.4440 -0.0804
  122MOL   C15736699   2.183   3.874   4.897 -0.0529  0.2216 -0.4272
  122MOL   C15836700   2.227   3.849   4.752  0.1730  0.1110 -0.2575
  122MOL   H15936701   1.885   4.295   4.996 -2.3711 -0.2359 -0.1284
  122MOL   H16036702   1.982   4.185   5.065 -0.6709  1.0092  1.9846
  122MOL   H16136703   1.780   4.083   4.858 -0.6428 -0.2929  3.3083
  122MOL   H16236704   2.269   3.893   4.961  0.7200 -1.3288 -0.9699
  122MOL   H16336705   2.146   3.779   4.935  2.2204 -0.2181  0.7937
  122MOL   H16436706   2.259   3.944   4.710 -1.5707  1.7310  1.9479
  122MOL   H16536707   2.148   3.819   4.683 -2.3607  2.5487  1.4370
  122MOL   H16636708   2.306   3.774   4.746 -0.2998 -0.3768 -0.4435
  122MOL   C16736709   1.946   4.172   4.750 -0.0287  0.5198  0.3089
  122MOL   C16836710   1.838   4.225   4.649 -0.0483 -0.7200  0.7676
  122MOL   C16936711   1.771   4.101   4.584  0.2509  0.2529 -0.6642
  122MOL   O17036712   1.650   4.084   4.599  0.7075  0.4168 -0.0215
  122MOL   O17136713   1.855   4.014   4.528 -0.0933 -0.1627  0.3223
  122MOL   C17236714   1.807   3.907   4.463 -0.0008 -0.2657  0.5838
  122MOL   C17336715   1.913   3.809   4.426 -0.1997 -0.0116 -0.0386
  122MOL   H17436716   2.012   4.255   4.773 -1.7736  1.4097  2.3195
  122MOL   H17536717   2.005   4.096   4.699 -0.2614 -0.2844  1.2298
  122MOL   H17636718   1.758   4.282   4.695  0.3817  1.2233 -0.7868
  122MOL   H17736719   1.725   3.866   4.521 -1.0628 -1.0990 -1.4459
  122MOL   H17836720   1.750   3.934   4.374 -0.9078  1.0030  1.5406
  122MOL   H17936721   1.969   3.841   4.338 -0.8631  0.2678 -0.3638
  122MOL   H18036722   1.869   3.711   4.404 -1.6488  0.7395 -0.5301
  122MOL   H18136723   1.979   3.793   4.511  0.0429 -0.0340 -0.2310
  122MOL   C18236724   1.891   4.318   4.532  0.5913 -0.4510 -0.1755
  122MOL   C18336725   1.845   4.465   4.535  0.1492  0.4732  0.1156
  122MOL   C18436726   1.701   4.486   4.489  0.0707  0.4415 -0.5061
  122MOL   O18536727   1.656   4.404   4.409  0.0389  0.2228 -0.5899
  122MOL   O18636728   1.645   4.600   4.539  0.2623 -0.1432  0.0538
  122MOL   C18736729   1.509   4.621   4.526  0.5036  0.1743 -0.0164
  122MOL   C18836730   1.464   4.736   4.617 -0.5330 -0.0086 -0.1908
  122MOL   H18936731   1.998   4.309   4.550  0.9077  1.5485 -0.8849
  122MOL   H19036732   1.865   4.287   4.430  0.5633 -1.6155  0.1758
  122MOL   H19136733   1.858   4.504   4.636  1.5972 -0.8085  0.4356
  122MOL   H19236734   1.497   4.647   4.420 -3.2457  0.8270  0.4842
  122MOL   H19336735   1.453   4.530   4.545  1.7220 -0.7942 -0.9741
  122MOL   H19436736   1.481   4.701   4.719  2.2510  0.7218 -0.3640
  122MOL   H19536737   1.363   4.777   4.610  0.0212  1.3607 -0.3191
  122MOL   H19636738   1.528   4.824   4.605  1.4231 -1.4167 -0.4408
  122MOL   C19736739   1.942   4.556   4.446  0.2023 -0.2280 -0.2041
  122MOL   C19836740   2.063   4.602   4.523 -0.3083  0.0754  0.1468
  122MOL   C19936741   2.046   4.721   4.622 -0.1760  0.5641  0.2374
  122MOL   O20036742   2.052   4.703   4.742  0.0159 -0.0997  0.6975
  122MOL   O20136743   2.008   4.836   4.557  0.2985 -0.0967  1.0695
  122MOL   C20236744   1.955   4.945   4.637 -0.4335  0.0323  0.0045
  122MOL   C20336745   1.806   4.921   4.674  0.3091  0.3507 -0.0152
  122MOL   H20436746   1.978   4.495   4.362  2.3894 -0.5494  0.9216
  122MOL   H20536747   1.902   4.650   4.407  0.6838  0.0934  0.0705
  122MOL   H20636748   2.078   4.508   4.576 -1.2371  0.5420  1.2421
  122MOL   H20736749   2.022   4.947   4.724  0.2911  2.1757 -0.5763
  122MOL   H20836750   1.972   5.034   4.577 -0.5235 -0.5392 -0.8835
  122MOL   H20936751   1.737   4.898   4.593  0.0421 -1.0243  0.5877
  122MOL   H21036752   1.768   5.015   4.714 -1.4210 -0.0761 -0.5977
  122MOL   H21136753   1.800   4.849   4.756 -1.1075  2.0968  1.4767
  122MOL   C21236754   2.185   4.625   4.423 -0.1131 -0.1452 -0.4370
  122MOL   C21336755   2.316   4.601   4.505  0.0423 -0.0578 -0.0265
  122MOL   C21436756   2.403   4.735   4.500 -0.0119  0.4557 -0.2371
  122MOL   O21536757   2.507   4.747   4.430 -0.2582 -0.2812 -0.4289
  122MOL   O21636758   2.340   4.829   4.572 -0.3525 -0.1669 -0.4237
  122MOL   C21736759   2.409   4.954   4.582 -0.4502  0.3427  0.6560
  122MOL   C21836760   2.300   5.043   4.635 -0.5339 -0.7411 -0.2969
  122MOL   H21936761   2.186   4.548   4.346  1.4827 -0.8897  0.3062
  122MOL   H22036762   2.186   4.719   4.368  0.5744  0.2009  0.1528
  122MOL   H22136763   2.287   4.588   4.609  0.7478 -0.0516  0.1796
  122MOL   H22236764   2.502   4.951   4.639 -0.8954 -1.0593  1.3215
  122MOL   H22336765   2.440   4.985   4.482  0.7631  1.4865  1.3655
  122MOL   H22436766   2.210   5.028   4.575 -0.2171 -1.1185 -0.6822
  122MOL   H22536767   2.337   5.146   4.634  1.2051 -1.3483  1.3626
  122MOL   H22636768   2.273   5.030   4.739  0.3451  3.3210  0.5333
  122MOL   C22736769   2.401   4.487   4.442  0.2970 -0.2960 -0.3037
  122MOL   C22836770   2.338   4.346   4.441  0.3771  0.2202 -0.8895
  122MOL   C22936771   2.368   4.290   4.583 -0.0575 -0.5764  0.2945
  122MOL   O23036772   2.453   4.207   4.606 -1.0690  0.1462 -0.2669
  122MOL   O23136773   2.281   4.335   4.667 -0.1878 -0.0828 -0.1203
  122MOL   C23236774   2.303   4.327   4.806 -0.0113  0.4052 -0.1580
  122MOL   C23336775   2.214   4.425   4.887 -0.2304  0.4621 -0.0807
  122MOL   H23436776   2.419   4.497   4.335  2.6036  0.4704  0.1151
  122MOL   H23536777   2.500   4.486   4.488  0.1826  0.1708 -0.0403
  122MOL   H23636778   2.229   4.353   4.438  0.4200  1.9070  0.2324
  122MOL   H23736779   2.297   4.222   4.835  1.1620  0.3026 -0.2653
  122MOL   H23836780   2.408   4.354   4.816  0.3355 -0.5553 -1.1534
  122MOL   H23936781   2.113   4.387   4.891  1.3483 -3.7897  2.1956
  122MOL   H24036782   2.216   4.523   4.839  2.6901  0.8601  0.7102
  122MOL   H24136783   2.262   4.421   4.985 -1.7347  1.2970  0.6972
  122MOL   C24236784   2.372   4.248   4.330  0.3044  0.5479  0.5647
  122MOL   C24336785   2.304   4.287   4.192  0.2594 -0.9290  0.3777
  122MOL   C24436786   2.155   4.246   4.185 -0.9574  0.4555  0.1936
  122MOL   O24536787   2.105   4.178   4.270  0.1196  0.4334 -0.0088
  122MOL   O24636788   2.089   4.294   4.071  0.2710 -0.1377 -0.0081
  122MOL   C24736789   1.964   4.230   4.055 -0.1468  0.0949 -0.4604
  122MOL   C24836790   1.907   4.290   3.929  0.0763 -0.3727 -0.4852
  122MOL   H24936791   2.481   4.243   4.326  0.2382 -2.3320  1.0226
  122MOL   H25036792   2.333   4.149   4.355 -0.6219  0.7869  0.1054
  122MOL   H25136793   2.298   4.396   4.192  1.7109 -0.8223 -0.9600
  122MOL   H25236794   1.983   4.124   4.035 -1.5786 -0.2497 -0.0428
  122MOL   H25336795   1.895   4.227   4.139 -1.7373  0.1022 -1.7350
  122MOL   H25436796   1.977   4.297   3.846  2.8532  0.6794  1.8878
  122MOL   H25536797   1.874   4.391   3.952  1.3230 -0.1763  0.5018
  122MOL   H25636798   1.812   4.242   3.904 -1.5021  0.9878  2.5781
  122MOL   C25736799   2.390   4.265   4.067  0.4008 -0.3953  0.1478
  122MOL   C25836800   2.380   4.129   3.988  1.2140 -0.2406 -0.1874
  122MOL   C25936801   2.429   4.020   4.082 -0.0225 -0.5792 -0.2605
  122MOL   O26036802   2.359   3.922   4.118 -0.4932 -0.1311 -0.0599
  122MOL   O26136803   2.554   4.045   4.120 -0.1377  0.4800 -0.0281
  122MOL   C26236804   2.631   3.948   4.194  0.3107 -0.5434  0.4317
  122MOL   C26336805   2.629   3.966   4.350 -0.1493 -0.1636  0.2861
  122MOL   H26436806   2.371   4.343   3.993  2.9359  0.1078  0.0106
  122MOL   H26536807   2.492   4.293   4.093  0.7025  0.9185 -2.3431
  122MOL   H26636808   2.279   4.107   3.954  2.2606 -2.2339 -2.1388
  122MOL   H26736809   2.607   3.846   4.163 -2.3012  0.3825 -0.7233
  122MOL   H26836810   2.737   3.950   4.169 -0.3192 -0.4999 -2.4163
  122MOL   H26936811   2.670   3.875   4.394  0.3789 -1.1519 -2.1399
  122MOL   H27036812   2.527   3.965   4.390 -1.0332 -0.0396 -1.8835
  122MOL   H27136813   2.668   4.065   4.372 -1.8682  0.9011 -1.2145
  122MOL   C27236814   2.463   4.140   3.860 -0.5060 -0.0556  0.2256
  122MOL   C27336815   2.445   4.263   3.764 -0.0729  0.6932  0.4267
  122MOL   C27436816   2.291   4.279   3.720  0.1611  0.7856  0.1280
  122MOL   O27536817   2.232   4.387   3.707  0.1709 -0.0918  0.3481
  122MOL   O27636818   2.237   4.160   3.700  0.7543  0.1975 -0.1446
  122MOL   C27736819   2.105   4.135   3.638  0.7007  0.2983 -0.0486
  122MOL   C27836820   2.135   4.096   3.491  1.0278 -0.2559 -0.1398
  122MOL   H27936821   2.566   4.139   3.896 -0.2706 -0.5951 -0.4589
  122MOL   H28036822   2.439   4.055   3.797  0.0305 -0.0859  0.0643
  122MOL   H28136823   2.465   4.354   3.819  0.0414  0.3999  0.8775
  122MOL   H28236824   2.062   4.046   3.683 -0.4049 -0.5721 -2.7665
  122MOL   H28336825   2.037   4.218   3.660 -1.1879 -0.3103 -3.2486
  122MOL   H28436826   2.186   4.181   3.446  1.0579 -0.2441 -0.0823
  122MOL   H28536827   2.049   4.069   3.430  1.7863 -0.0318 -1.3285
  122MOL   H28636828   2.207   4.014   3.486  1.1486 -0.2857  1.8672
  122MOL   C28736829   2.547   4.267   3.650  0.8250  0.4758 -0.3158
  122MOL   C28836830   2.531   4.399   3.569 -0.3129 -0.1252 -0.5874
  122MOL   C28936831   2.602   4.520   3.636 -0.3755 -0.0266 -0.3894
  122MOL   O29036832   2.545   4.585   3.726  0.2740 -0.1013  0.3011
  122MOL   O29136833   2.728   4.541   3.598  0.2231 -0.3444 -0.1853
  122MOL   C29236834   2.793   4.664   3.634 -0.2953 -0.5283  0.4159
  122MOL   C29336835   2.940   4.658   3.592  0.0536 -0.4912 -0.4386
  122MOL   H29436836   2.649   4.272   3.688  0.8107  0.2775 -0.2500
  122MOL   H29536837   2.539   4.184   3.580 -1.6284 -0.6541  1.2457
  122MOL   H29636838   2.589   4.375   3.480  0.4126  1.6110 -0.6192
  122MOL   H29736839   2.750   4.749   3.580  0.5904  0.5272  1.3474
  122MOL   H29836840   2.781   4.698   3.737 -0.0560 -1.6115  0.8125
  122MOL   H29936841   2.941   4.666   3.483 -3.1252  2.2104 -0.3474
  122MOL   H30036842   2.989   4.567   3.627 -0.4470 -1.2362 -1.6449
  122MOL   H30136843   2.998   4.735   3.643  1.7535 -1.2782 -1.1237
  122MOL   H30236844   2.428   4.422   3.540 -0.2774  1.9050  0.7506
  123MOL     C136845   4.421   2.305   2.001 -0.4684 -0.3138  0.4149
  123MOL     C236846   4.328   2.246   2.107 -0.4088 -0.9901 -0.4964
  123MOL     C336847   4.373   2.275   2.256 -0.5753  0.0472 -0.0951
  123MOL     O436848   4.486   2.258   2.295  0.3202  0.3598 -0.2187
  123MOL     O536849   4.275   2.324   2.328  0.2042 -0.0084 -0.1554
  123MOL     C636850   4.287   2.347   2.471 -0.0685  0.0978  0.5808
  123MOL     C736851   4.177   2.449   2.512 -0.1755 -0.1436  0.7004
  123MOL     H836852   4.435   2.411   2.022 -0.1642 -0.0394 -1.0609
  123MOL     H936853   4.371   2.299   1.904  0.7457 -0.4182 -0.2197
  123MOL    H1036854   4.232   2.298   2.096 -1.6105 -2.0669  3.9646
  123MOL    H1136855   4.262   2.249   2.513  0.4147 -0.6316 -0.7998
  123MOL    H1236856   4.390   2.373   2.495  0.2758 -0.1483 -0.5990
  123MOL    H1336857   4.182   2.547   2.465 -4.2986  0.9991  2.3637
  123MOL    H1436858   4.200   2.478   2.615 -3.0438  2.4283  0.7152
  123MOL    H1536859   4.074   2.416   2.501 -0.0219 -0.0355 -1.1430
  123MOL    H1636860   4.524   2.273   1.982 -0.6165 -0.0859 -0.8434
  123MOL    C1736861   4.317   2.093   2.085  0.4441  0.3801 -0.0513
  123MOL    C1836862   4.195   2.024   2.146 -0.0388  1.0358  0.1839
  123MOL    C1936863   4.222   1.876   2.148  0.1955  0.3577  0.0006
  123MOL    O2036864   4.192   1.810   2.244  0.2891  0.1650 -0.1502
  123MOL    O2136865   4.264   1.826   2.031  0.1956  0.2101  0.0555
  123MOL    C2236866   4.292   1.685   2.023 -0.0241  0.2001  0.0236
  123MOL    C2336867   4.419   1.668   1.946  0.0745 -0.1643  0.3463
  123MOL    H2436868   4.332   2.071   1.979  2.3823 -0.5957  0.3856
  123MOL    H2536869   4.410   2.047   2.118 -1.1370 -2.3049  0.8178
  123MOL    H2636870   4.173   2.051   2.250 -0.4425 -0.8079  0.5820
  123MOL    H2736871   4.320   1.646   2.122 -1.0039  1.3599  0.7643
  123MOL    H2836872   4.204   1.629   1.992 -0.0001 -0.2833  0.8014
  123MOL    H2936873   4.404   1.723   1.853 -1.8116  1.0265  1.3151
  123MOL    H3036874   4.439   1.561   1.946 -0.6386 -0.3214 -1.2344
  123MOL    H3136875   4.495   1.719   2.005 -0.1190  2.1102 -1.2974
  123MOL    C3236876   4.061   2.054   2.068 -0.4756  0.1796  0.2531
  123MOL    C3336877   3.967   2.169   2.110 -0.1386  0.2556  0.6365
  123MOL    C3436878   3.906   2.146   2.253 -0.0008 -0.2248 -0.7009
  123MOL    O3536879   3.937   2.225   2.342  0.4973  0.6070 -0.0137
  123MOL    O3636880   3.828   2.038   2.262 -0.2935 -0.1497 -0.4995
  123MOL    C3736881   3.808   1.986   2.391 -0.4964  0.1588 -0.1771
  123MOL    C3836882   3.911   1.877   2.423  0.4548 -0.4447  0.0744
  123MOL    H3936883   4.085   2.064   1.962 -0.0178  1.7274  0.4955
  123MOL    H4036884   3.990   1.971   2.069 -1.9836  1.4011 -1.6679
  123MOL    H4136885   4.034   2.255   2.120  1.3728 -1.1502  3.0761
  123MOL    H4236886   3.786   2.050   2.477  0.0976  1.0274 -0.6719
  123MOL    H4336887   3.710   1.946   2.363  0.2610 -1.5118 -0.5171
  123MOL    H4436888   3.882   1.822   2.513  0.9230  0.2013  0.6214
  123MOL    H4536889   4.006   1.927   2.439 -0.8682  1.7388  1.2954
  123MOL    H4636890   3.920   1.804   2.343  1.9933 -2.9906  2.4499
  123MOL    C4736891   3.857   2.212   2.014 -0.3852  0.1511 -0.8805
  123MOL    C4836892   3.898   2.246   1.870 -0.7843 -0.1763 -0.6718
  123MOL    C4936893   3.995   2.364   1.867  0.1311  0.7935  0.8788
  123MOL    O5036894   4.110   2.346   1.827 -0.0704 -0.4579 -0.4884
  123MOL    O5136895   3.945   2.476   1.924 -0.0937 -0.7702  0.7782
  123MOL    C5236896   4.030   2.566   1.995 -0.6367  0.1986 -0.3233
  123MOL    C5336897   4.034   2.523   2.146 -0.5346 -0.1650  0.4782
  123MOL    H5436898   3.776   2.139   2.023 -0.7191  0.8355  2.3098
  123MOL    H5536899   3.811   2.305   2.049  2.6104  1.4492 -0.2326
  123MOL    H5636900   3.955   2.162   1.829 -2.1822 -0.7000 -1.5894
  123MOL    H5736901   4.125   2.577   1.942  0.0490 -1.0825  0.6191
  123MOL    H5836902   3.988   2.666   1.985 -1.3245 -0.2999 -2.6937
  123MOL    H5936903   4.076   2.593   2.217  0.0670  2.2588 -2.1895
  123MOL    H6036904   4.107   2.443   2.155  1.3322  1.3604 -0.8303
  123MOL    H6136905   3.934   2.487   2.175 -0.2041 -2.1970 -0.7795
  123MOL    C6236906   3.771   2.266   1.780 -0.5572  0.0207  0.3171
  123MOL    C6336907   3.792   2.226   1.629 -0.6573 -0.3512  0.5955
  123MOL    C6436908   3.870   2.327   1.552 -0.9494  0.9440 -0.0694
  123MOL    O6536909   3.875   2.440   1.591 -0.3192  0.0683  0.0088
  123MOL    O6636910   3.939   2.276   1.452  0.3175 -0.3522  0.5296
  123MOL    C6736911   4.015   2.360   1.373 -0.1593  0.0082  0.1488
  123MOL    C6836912   3.977   2.319   1.220  0.1307 -0.0203 -0.0702
  123MOL    H6936913   3.691   2.198   1.809 -0.5174  0.2401  0.9511
  123MOL    H7036914   3.736   2.369   1.793  2.1164  1.0967 -0.6164
  123MOL    H7136915   3.858   2.140   1.626  0.5368  0.5430  1.0943
  123MOL    H7236916   3.989   2.464   1.395 -0.3029  0.0603 -0.2535
  123MOL    H7336917   4.122   2.346   1.387 -0.1188 -0.1586 -0.3104
  123MOL    H7436918   4.019   2.386   1.145  0.8497  0.9701  1.2121
  123MOL    H7536919   3.869   2.302   1.213  0.3967 -1.6247 -0.6562
  123MOL    H7636920   4.015   2.218   1.205  0.6010  0.2955 -1.0068
  123MOL    C7736921   3.655   2.180   1.567 -0.9316  1.1256  0.3757
  123MOL    C7836922   3.603   2.038   1.598  0.4233  0.8920  0.3624
  123MOL    C7936923   3.716   1.936   1.597 -0.6609  0.1419 -0.1632
  123MOL    O8036924   3.753   1.881   1.702 -0.0970 -0.1956  0.3410
  123MOL    O8136925   3.759   1.896   1.469  0.3382 -0.3412  0.3330
  123MOL    C8236926   3.868   1.806   1.448  0.1210 -0.0713 -0.7013
  123MOL    C8336927   3.954   1.844   1.325 -0.0770 -0.0993 -0.7097
  123MOL    H8436928   3.583   2.261   1.580 -3.4497 -1.0010  0.0996
  123MOL    H8536929   3.668   2.194   1.460 -1.2570 -0.5876  0.1018
  123MOL    H8636930   3.577   2.036   1.704 -1.1351 -0.1393 -0.0149
  123MOL    H8736931   3.921   1.815   1.543 -0.4394 -0.4005 -0.3530
  123MOL    H8836932   3.824   1.708   1.429 -0.0711  0.1976 -1.6865
  123MOL    H8936933   3.897   1.852   1.232 -2.1304 -3.0007  0.2009
  123MOL    H9036934   4.031   1.768   1.309  0.7221  0.4340  0.5466
  123MOL    H9136935   3.994   1.941   1.353 -1.1143  0.5808 -1.5355
  123MOL    C9236936   3.491   1.988   1.507  1.0090  0.4710  0.7968
  123MOL    C9336937   3.358   2.069   1.499 -0.1146 -0.6309  0.3327
  123MOL    C9436938   3.289   2.069   1.636  0.5704  0.1664  0.5028
  123MOL    O9536939   3.239   2.173   1.677  0.8237  0.3393 -0.3227
  123MOL    O9636940   3.305   1.960   1.694 -0.6642 -0.0109 -0.1731
  123MOL    C9736941   3.240   1.944   1.818 -0.1797  0.0207  0.8076
  123MOL    C9836942   3.257   1.806   1.867 -0.3808 -0.0264 -0.4974
  123MOL    H9936943   3.542   1.988   1.411  2.6460  2.0647  1.6408
  123MOL   H10036944   3.464   1.886   1.532 -2.8685  1.0655 -0.6192
  123MOL   H10136945   3.380   2.171   1.470 -0.2189 -1.3340 -2.2943
  123MOL   H10236946   3.278   2.018   1.888 -1.8096  2.0316 -0.3764
  123MOL   H10336947   3.133   1.960   1.802  0.3261  0.6042 -2.3706
  123MOL   H10436948   3.207   1.787   1.962 -1.8202 -0.9029 -1.4179
  123MOL   H10536949   3.363   1.801   1.890 -0.1197  0.4272 -1.5776
  123MOL   H10636950   3.227   1.732   1.793  1.5951  1.4768 -2.8640
  123MOL   C10736951   3.253   2.019   1.394  0.5525  0.4526 -0.2079
  123MOL   C10836952   3.188   1.878   1.418  0.0656 -0.3372 -0.1824
  123MOL   C10936953   3.179   1.798   1.283  0.5018 -0.0046 -0.0012
  123MOL   O11036954   3.225   1.679   1.276  0.1686  0.3742  0.6292
  123MOL   O11136955   3.118   1.867   1.185  0.4009 -0.0537  0.0158
  123MOL   C11236956   3.082   1.805   1.066  0.3135 -0.2709  0.6467
  123MOL   C11336957   3.017   1.897   0.962 -0.0925  0.4795  0.3791
  123MOL   H11436958   3.176   2.096   1.382 -0.0843 -0.2822 -0.8955
  123MOL   H11536959   3.305   2.009   1.299  0.4223 -0.0054 -0.2343
  123MOL   H11636960   3.252   1.828   1.491 -1.0292  0.5452  1.3969
  123MOL   H11736961   3.168   1.767   1.012 -1.6195 -2.2341 -1.0916
  123MOL   H11836962   3.015   1.722   1.089  0.7775 -0.4439  1.3897
  123MOL   H11936963   3.083   1.982   0.946  3.6798 -1.9745  2.0033
  123MOL   H12036964   2.923   1.934   1.004 -0.5766  0.8871 -1.0345
  123MOL   H12136965   3.004   1.848   0.865  0.0663  1.4985 -0.1622
  123MOL   C12236966   3.047   1.881   1.482 -0.4906 -0.5160  1.0260
  123MOL   C12336967   2.992   1.739   1.516 -0.4679 -0.1626 -0.4445
  123MOL   C12436968   2.883   1.687   1.431 -0.5831  0.2984  0.1506
  123MOL   O12536969   2.822   1.765   1.362  0.4817 -0.2085  0.0402
  123MOL   O12636970   2.868   1.555   1.440  0.5412  0.0872 -0.0190
  123MOL   C12736971   2.770   1.489   1.361  0.3106 -0.0488 -0.6577
  123MOL   C12836972   2.843   1.439   1.238  0.5121  0.3456 -0.0818
  123MOL   H12936973   3.048   1.929   1.580 -2.0909  1.9160 -0.0833
  123MOL   H13036974   2.986   1.953   1.427  0.9458 -0.9522 -1.2114
  123MOL   H13136975   3.074   1.667   1.515  0.5627  0.9840  0.2161
  123MOL   H13236976   2.729   1.401   1.411  1.0644 -0.8407 -1.4152
  123MOL   H13336977   2.690   1.554   1.325 -0.0373  0.5685  1.2030
  123MOL   H13436978   2.936   1.388   1.261  0.0021  0.1708  1.6622
  123MOL   H13536979   2.856   1.526   1.173 -0.5462 -0.3227 -1.2132
  123MOL   H13636980   2.780   1.362   1.194  0.4726  1.7468 -2.6052
  123MOL   C13736981   2.934   1.737   1.668  0.1199 -0.2616 -0.6056
  123MOL   C13836982   2.799   1.811   1.696 -0.6619 -0.0644 -0.0975
  123MOL   C13936983   2.803   1.958   1.669 -0.3801 -0.0663  0.0960
  123MOL   O14036984   2.729   2.009   1.589  0.1367 -0.3854 -0.2703
  123MOL   O14136985   2.891   2.033   1.755 -0.0194  0.0174 -0.1917
  123MOL   C14236986   2.915   2.168   1.730  0.7670 -0.4936 -0.6431
  123MOL   C14336987   2.834   2.265   1.811  0.3923 -0.3093  0.3172
  123MOL   H14436988   2.928   1.630   1.687  0.8529  0.2961  3.0254
  123MOL   H14536989   3.013   1.771   1.735  0.8540 -0.2595 -1.4616
  123MOL   H14636990   2.722   1.779   1.626 -0.9797 -0.5069  0.4449
  123MOL   H14736991   3.018   2.187   1.759  0.6695  0.6758 -1.0252
  123MOL   H14836992   2.908   2.190   1.624 -0.3944  0.8360 -0.3105
  123MOL   H14936993   2.835   2.235   1.916 -3.1893  1.9159  1.0797
  123MOL   H15036994   2.731   2.251   1.779  0.6310 -0.4274 -0.4022
  123MOL   H15136995   2.856   2.372   1.799  0.7691 -0.4121  0.0695
  123MOL   C15236996   2.747   1.780   1.835 -0.0160  0.2432 -0.4668
  123MOL   C15336997   2.602   1.806   1.878  0.3202  0.9170 -0.1261
  123MOL   C15436998   2.505   1.736   1.785 -0.1949 -0.2636  0.5776
  123MOL   O15536999   2.438   1.792   1.700 -0.3788 -0.0796  0.0827
  123MOL   O15637000   2.505   1.608   1.817 -0.1883  0.5782 -0.2155
  123MOL   C15737001   2.429   1.518   1.740 -0.4920  0.0337  0.1992
  123MOL   C15837002   2.394   1.407   1.834 -0.6157  0.2046 -0.5267
  123MOL   H15937003   2.773   1.678   1.861  0.1704  0.4901  0.3477
  123MOL   H16037004   2.806   1.843   1.903  1.5444 -1.5597 -0.1009
  123MOL   H16137005   2.599   1.760   1.977 -2.2190  0.9956 -0.1203
  123MOL   H16237006   2.340   1.560   1.694 -0.0257  1.3511  0.4851
  123MOL   H16337007   2.490   1.487   1.655  0.5726 -0.6702  1.1950
  123MOL   H16437008   2.340   1.341   1.765 -1.3036  1.3965 -1.1354
  123MOL   H16537009   2.320   1.429   1.910  0.4738  0.7165  0.3910
  123MOL   H16637010   2.486   1.363   1.873 -1.8333 -0.4299  1.6468
  123MOL   C16737011   2.568   1.956   1.899  0.2690 -0.2847  0.0920
  123MOL   C16837012   2.466   1.997   2.009 -0.2312  0.3342 -0.7106
  123MOL   C16937013   2.394   2.127   1.988  0.5907  0.7212  0.3603
  123MOL   O17037014   2.270   2.131   1.995 -0.2285 -0.1869  0.6219
  123MOL   O17137015   2.475   2.228   1.969 -0.6399  0.3870  0.1868
  123MOL   C17237016   2.429   2.359   1.981 -0.2288  0.1171 -0.7481
  123MOL   C17337017   2.401   2.408   2.126 -0.1853  0.3273  0.4767
  123MOL   H17437018   2.657   2.015   1.923  0.4668 -0.0479 -1.1812
  123MOL   H17537019   2.523   2.005   1.813  1.0416  0.1519 -0.0636
  123MOL   H17637020   2.386   1.922   2.001 -0.1998  0.3672 -1.3659
  123MOL   H17737021   2.507   2.425   1.943  1.9245 -1.8430  0.1826
  123MOL   H17837022   2.339   2.375   1.922  0.2139  0.0764 -1.4483
  123MOL   H17937023   2.347   2.502   2.114  0.9123  0.8511 -0.4251
  123MOL   H18037024   2.495   2.440   2.170  0.2592  2.4984 -1.9130
  123MOL   H18137025   2.342   2.343   2.190 -0.8647  1.6809  1.2200
  123MOL   C18237026   2.539   1.989   2.143  0.2020 -0.2014 -0.4806
  123MOL   C18337027   2.458   2.041   2.264 -0.0451 -0.2401  0.2793
  123MOL   C18437028   2.557   2.070   2.377  0.1665 -0.7428  0.0501
  123MOL   O18537029   2.589   1.980   2.458 -0.1393  0.2332  0.0170
  123MOL   O18637030   2.611   2.194   2.373  0.0123 -0.1529  0.4808
  123MOL   C18737031   2.705   2.228   2.465 -0.1532 -0.3010  0.6675
  123MOL   C18837032   2.763   2.345   2.391 -1.1654  0.2736 -0.0592
  123MOL   H18937033   2.566   1.885   2.159 -2.1358 -0.3869  2.5406
  123MOL   H19037034   2.631   2.046   2.134  0.5892 -0.8655 -0.7900
  123MOL   H19137035   2.415   2.139   2.244  2.0898  0.0779 -3.1235
  123MOL   H19237036   2.650   2.259   2.554 -1.3919  1.0527 -0.5703
  123MOL   H19337037   2.767   2.145   2.499  1.6598  0.8127  0.1428
  123MOL   H19437038   2.679   2.414   2.381 -2.3661 -1.1351  0.0047
  123MOL   H19537039   2.802   2.313   2.295 -1.3816 -0.0537 -0.0391
  123MOL   H19637040   2.839   2.397   2.449  0.8696 -2.0092 -0.6189
  123MOL   C19737041   2.344   1.938   2.296  0.2870 -0.3162 -0.4558
  123MOL   C19837042   2.238   1.978   2.396  0.6299 -0.2187 -0.3180
  123MOL   C19937043   2.198   1.862   2.483  0.5474 -0.5519 -0.3544
  123MOL   O20037044   2.214   1.866   2.601  0.1997  0.1430  0.0584
  123MOL   O20137045   2.137   1.768   2.421 -0.1499 -0.1979  0.5641
  123MOL   C20237046   2.076   1.662   2.495  0.8832  0.4034  0.2667
  123MOL   C20337047   2.183   1.558   2.541  0.4886  0.2122  0.0075
  123MOL   H20437048   2.305   1.892   2.205 -0.3445  0.5107 -0.6136
  123MOL   H20537049   2.405   1.862   2.343  1.7022  1.3899  0.5479
  123MOL   H20637050   2.285   2.053   2.459  0.2347  1.1210 -1.5628
  123MOL   H20737051   2.018   1.687   2.584  0.9310  0.3481  0.3131
  123MOL   H20837052   2.011   1.614   2.421 -0.9933  2.5960  0.4275
  123MOL   H20937053   2.244   1.596   2.623 -1.2742  0.3045  1.2911
  123MOL   H21037054   2.237   1.523   2.453 -1.8353 -1.4167 -0.8164
  123MOL   H21137055   2.119   1.482   2.585 -0.7721  0.8903 -0.5989
  123MOL   C21237056   2.120   2.064   2.324  0.3732 -0.0032 -0.0921
  123MOL   C21337057   2.019   2.123   2.426 -0.1670  0.1060 -0.0575
  123MOL   C21437058   2.094   2.217   2.524 -0.3874 -0.4832  0.4075
  123MOL   O21537059   2.114   2.334   2.495  0.4681 -0.6606 -0.3536
  123MOL   O21637060   2.140   2.153   2.630 -0.5802  0.0336  0.1692
  123MOL   C21737061   2.221   2.219   2.725  1.1983 -0.1999  0.0370
  123MOL   C21837062   2.372   2.215   2.696 -0.9158  0.0114 -0.2094
  123MOL   H21937063   2.174   2.135   2.261  0.0251 -0.0264 -0.4189
  123MOL   H22037064   2.065   1.999   2.256  0.1068 -1.5970  1.5859
  123MOL   H22137065   1.961   2.189   2.362 -0.2330 -1.0168 -1.1546
  123MOL   H22237066   2.179   2.320   2.718 -1.5723 -1.0115  3.4466
  123MOL   H22337067   2.205   2.175   2.823  1.4510 -0.7550 -0.1678
  123MOL   H22437068   2.386   2.249   2.593  2.3454 -0.4058  0.0612
  123MOL   H22537069   2.404   2.113   2.718 -0.3778  0.0703 -0.7020
  123MOL   H22637070   2.420   2.290   2.759  0.6860 -1.9532  0.9703
  123MOL   C22737071   1.908   2.023   2.491 -0.1226  0.3073  0.4726
  123MOL   C22837072   1.791   2.094   2.559  0.3676  0.2507 -0.5750
  123MOL   C22937073   1.822   2.147   2.700  0.0162 -0.3337  0.6430
  123MOL   O23037074   1.861   2.070   2.787 -0.3357  0.3269  0.0762
  123MOL   O23137075   1.803   2.282   2.710  0.0085  0.0081 -0.2500
  123MOL   C23237076   1.827   2.343   2.832 -0.1762  0.1392  0.1390
  123MOL   C23337077   1.720   2.332   2.940 -0.4975 -0.1108  0.7928
  123MOL   H23437078   1.874   1.968   2.403 -3.3446 -1.5800  2.7802
  123MOL   H23537079   1.950   1.949   2.559  0.2764 -1.1785 -1.3219
  123MOL   H23637080   1.745   2.178   2.507 -0.9241  0.6817  1.2257
  123MOL   H23737081   1.920   2.302   2.871 -0.6333 -0.8005  0.2597
  123MOL   H23837082   1.841   2.450   2.815 -2.5418  0.7207  1.4989
  123MOL   H23937083   1.716   2.230   2.979 -2.8637 -0.0356  0.8199
  123MOL   H24037084   1.619   2.355   2.908 -0.3665 -0.5344  0.0285
  123MOL   H24137085   1.731   2.403   3.022 -2.7363 -0.6901  1.6113
  123MOL   C24237086   1.688   1.979   2.574  0.3272  0.4890  0.2760
  123MOL   C24337087   1.546   2.042   2.605 -0.3215  0.9513  0.0685
  123MOL   C24437088   1.491   1.977   2.734  0.4275  0.6061  0.3579
  123MOL   O24537089   1.491   2.031   2.841  0.1060 -0.2987 -0.5581
  123MOL   O24637090   1.440   1.849   2.717  0.3667 -0.0646 -0.1925
  123MOL   C24737091   1.357   1.795   2.819 -0.1073 -0.2751 -0.1823
  123MOL   C24837092   1.279   1.686   2.755  0.8427  0.1273  0.0366
  123MOL   H24937093   1.667   1.939   2.475 -1.1402  0.8604  0.4340
  123MOL   H25037094   1.722   1.905   2.646 -0.4814  1.6751  1.8948
  123MOL   H25137095   1.563   2.148   2.626  0.8720  1.0133 -1.1726
  123MOL   H25237096   1.417   1.744   2.895  0.0057 -1.3636 -0.9818
  123MOL   H25337097   1.291   1.868   2.867  0.7286  2.2549 -2.7653
  123MOL   H25437098   1.325   1.596   2.714  2.4094 -0.8014  3.6981
  123MOL   H25537099   1.216   1.737   2.682  1.8003 -2.3242 -2.6272
  123MOL   H25637100   1.205   1.645   2.823  0.0490  2.7878  0.8393
  123MOL   C25737101   1.441   2.034   2.493  0.8612 -0.2062  1.2187
  123MOL   C25837102   1.473   2.137   2.385  0.2440 -0.4368 -0.0757
  123MOL   C25937103   1.464   2.285   2.447  0.8620  0.6278 -0.9189
  123MOL   O26037104   1.373   2.319   2.522  0.0569  0.4032 -0.4048
  123MOL   O26137105   1.563   2.363   2.416  0.5926  0.2991  0.3936
  123MOL   C26237106   1.592   2.490   2.480  0.2643  0.5910 -0.9141
  123MOL   C26337107   1.629   2.597   2.383 -0.1216  0.8142  0.6640
  123MOL   H26437108   1.434   1.929   2.462  0.7359  0.0975  0.1994
  123MOL   H26537109   1.345   2.055   2.540  1.4894  1.7125  1.6760
  123MOL   H26637110   1.573   2.127   2.343  0.9422 -0.4432  1.5650
  123MOL   H26737111   1.501   2.520   2.533  0.9478 -0.1589  0.6941
  123MOL   H26837112   1.669   2.490   2.556  0.7489  0.1040 -1.4037
  123MOL   H26937113   1.610   2.700   2.413 -1.2836  0.8674 -0.2329
  123MOL   H27037114   1.570   2.589   2.292  1.3083  2.1511 -0.4079
  123MOL   H27137115   1.736   2.603   2.360 -0.3910  1.2704 -0.5276
  123MOL   C27237116   1.373   2.121   2.264 -0.3496  0.6613  0.4725
  123MOL   C27337117   1.416   2.179   2.125 -0.0823  0.0386 -0.3533
  123MOL   C27437118   1.413   2.334   2.117 -0.1876  0.2934 -0.4988
  123MOL   O27537119   1.515   2.407   2.126  0.3673 -0.4074  0.0301
  123MOL   O27637120   1.294   2.384   2.104 -0.0327  0.2627 -0.1277
  123MOL   C27737121   1.273   2.520   2.137  0.6545 -0.2401  0.1876
  123MOL   C27837122   1.195   2.525   2.264 -0.0915 -0.4242  0.6505
  123MOL   H27937123   1.340   2.018   2.248  2.3006  0.0458 -1.4176
  123MOL   H28037124   1.285   2.172   2.302 -1.4397  0.3910 -1.6549
  123MOL   H28137125   1.524   2.166   2.114  0.3231  1.2876  1.8585
  123MOL   H28237126   1.357   2.587   2.153 -0.1980  0.7147  0.7095
  123MOL   H28337127   1.208   2.567   2.063 -0.6287 -0.0675  1.4067
  123MOL   H28437128   1.258   2.481   2.342  0.3129  0.6612  0.9416
  123MOL   H28537129   1.104   2.469   2.242 -0.2101 -0.2352  0.6616
  123MOL   H28637130   1.161   2.623   2.294  0.4002 -0.3355  0.9223
  123MOL   C28737131   1.359   2.113   1.995  0.9811  0.1675 -0.3607
  123MOL   C28837132   1.456   2.120   1.874  0.5087  0.3117  0.0626
  123MOL   C28937133   1.443   2.251   1.788 -0.1738  0.0748  0.2000
  123MOL   O29037134   1.543   2.308   1.750  0.1091 -0.1119 -0.0648
  123MOL   O29137135   1.318   2.282   1.757  0.4682 -0.7812  0.1424
  123MOL   C29237136   1.290   2.398   1.682  0.3474 -0.2720 -0.3656
  123MOL   C29337137   1.151   2.387   1.627 -0.4704  0.6001  0.3618
  123MOL   H29437138   1.339   2.008   2.014 -0.7707  0.9419  2.5237
  123MOL   H29537139   1.263   2.160   1.975  1.7909  1.4640 -1.2666
  123MOL   H29637140   1.560   2.097   1.900  0.8283  1.1094 -0.4991
  123MOL   H29737141   1.283   2.492   1.737  1.0821 -0.5973  0.2898
  123MOL   H29837142   1.356   2.412   1.596 -0.4353  2.2567 -0.5966
  123MOL   H29937143   1.127   2.459   1.549  0.4097  1.8139  1.1836
  123MOL   H30037144   1.086   2.413   1.711 -2.0691 -0.3351 -0.5696
  123MOL   H30137145   1.116   2.288   1.601  0.2867  0.2762  0.5609
  123MOL   H30237146   1.438   2.034   1.810  2.3875 -0.2294  0.2096
  124MOL     C137147   3.301   2.889   4.670  0.0915 -0.0310  0.7441
  124MOL     C237148   3.437   2.832   4.630  0.0971 -0.3725 -0.6329
  124MOL     C337149   3.437   2.688   4.586 -0.0296 -0.0546 -0.3027
  124MOL     O437150   3.334   2.623   4.585 -0.6176  0.0636  0.0360
  124MOL     O537151   3.557   2.635   4.554 -0.1236 -0.5887 -0.1442
  124MOL     C637152   3.558   2.489   4.558  0.6682 -0.2931 -1.0894
  124MOL     C737153   3.700   2.432   4.555 -0.1729 -0.2977  0.0094
  124MOL     H837154   3.297   2.997   4.682  0.6789 -0.0417  1.0542
  124MOL     H937155   3.261   2.838   4.758  1.4487 -1.5521  0.5078
  124MOL    H1037156   3.460   2.889   4.540  0.4319 -0.1435 -0.4048
  124MOL    H1137157   3.503   2.456   4.646  0.8413  3.4064  0.5112
  124MOL    H1237158   3.514   2.460   4.463 -0.5401 -1.5001 -0.1787
  124MOL    H1337159   3.755   2.477   4.638  1.7583 -0.4362 -1.1750
  124MOL    H1437160   3.755   2.464   4.466  2.7698 -0.2249  1.7982
  124MOL    H1537161   3.707   2.324   4.567 -0.5956 -0.1188  2.1095
  124MOL    H1637162   3.225   2.870   4.595  1.2883 -4.7699  0.5819
  124MOL    C1737163   3.538   2.872   4.734 -0.3158  0.5207  0.7256
  124MOL    C1837164   3.508   2.862   4.883 -0.4211 -0.7095 -0.3759
  124MOL    C1937165   3.618   2.934   4.959 -0.1769  0.0773  0.5232
  124MOL    O2037166   3.593   3.034   5.029 -0.5321  0.0328  0.6059
  124MOL    O2137167   3.734   2.876   4.947 -0.2832  0.2907 -0.6670
  124MOL    C2237168   3.832   2.909   5.047  0.0607 -0.5248 -0.0425
  124MOL    C2337169   3.816   2.813   5.160  0.1252 -0.6348 -0.4150
  124MOL    H2437170   3.629   2.817   4.712 -0.1444  0.2179  2.1473
  124MOL    H2537171   3.554   2.979   4.721  0.0271  0.4147  0.2407
  124MOL    H2637172   3.420   2.925   4.893 -0.7797 -1.2108 -0.3102
  124MOL    H2737173   3.933   2.891   5.010 -0.5675 -3.1738 -0.6080
  124MOL    H2837174   3.825   3.011   5.084  0.8476 -0.3806 -0.2749
  124MOL    H2937175   3.717   2.829   5.205  0.1576  1.3614 -0.9690
  124MOL    H3037176   3.904   2.821   5.224  0.5173 -0.1108 -1.0178
  124MOL    H3137177   3.826   2.713   5.119  2.2567 -0.5569 -0.1462
  124MOL    C3237178   3.461   2.716   4.926 -0.4866  0.4053 -0.5259
  124MOL    C3337179   3.451   2.673   5.076  0.3878 -0.3967 -0.1120
  124MOL    C3437180   3.416   2.526   5.086 -0.1423 -0.1558 -0.1751
  124MOL    O3537181   3.454   2.462   5.183 -0.4912 -0.3301 -0.5918
  124MOL    O3637182   3.343   2.478   4.983 -0.0861 -0.2771 -0.1722
  124MOL    C3737183   3.294   2.347   4.983 -0.2928 -0.6346  0.2385
  124MOL    C3837184   3.141   2.338   4.963 -0.3959  0.0555  0.1147
  124MOL    H3937185   3.369   2.688   4.876 -1.2481  3.1690 -0.7204
  124MOL    H4037186   3.531   2.650   4.874  0.9748  1.1789  0.4035
  124MOL    H4137187   3.556   2.682   5.104  1.0116  0.6639 -2.6545
  124MOL    H4237188   3.335   2.280   4.907  1.9180 -0.4381  1.2177
  124MOL    H4337189   3.316   2.290   5.073  0.6905 -1.3714 -0.4516
  124MOL    H4437190   3.118   2.233   4.979  2.7959 -0.9499 -1.4806
  124MOL    H4537191   3.094   2.351   4.866  2.0136  1.2136 -0.9352
  124MOL    H4637192   3.089   2.396   5.039  0.0182 -0.3751  0.7324
  124MOL    C4737193   3.363   2.763   5.160 -0.0798  0.5514 -0.1503
  124MOL    C4837194   3.216   2.750   5.149  0.3983  0.1424  0.0353
  124MOL    C4937195   3.153   2.812   5.026 -0.7342  0.5028  0.2820
  124MOL    O5037196   3.174   2.930   4.999  0.2968  0.4859 -0.3019
  124MOL    O5137197   3.073   2.732   4.965  0.0522  0.3335  0.0680
  124MOL    C5237198   2.997   2.765   4.852 -0.2834  0.7538 -0.1167
  124MOL    C5337199   2.873   2.680   4.841 -0.2533  0.0550 -0.4732
  124MOL    H5437200   3.405   2.755   5.260  2.4227 -0.6258 -1.2266
  124MOL    H5537201   3.396   2.865   5.135 -1.9818  0.9717 -1.0054
  124MOL    H5637202   3.187   2.645   5.151  0.1158  0.2356  0.8410
  124MOL    H5737203   2.991   2.873   4.838 -0.3688  0.9366  1.2420
  124MOL    H5837204   3.065   2.734   4.772 -1.2545  1.4277 -1.2151
  124MOL    H5937205   2.832   2.686   4.741 -0.8232  1.7690 -0.1460
  124MOL    H6037206   2.798   2.707   4.915 -0.1062  0.9072 -0.6290
  124MOL    H6137207   2.899   2.578   4.869  2.4102  1.4843  2.7425
  124MOL    C6237208   3.140   2.816   5.270 -0.4584 -0.2505  0.9275
  124MOL    C6337209   3.136   2.725   5.394  0.0636 -0.3992 -0.4462
  124MOL    C6437210   3.076   2.583   5.372 -0.2718 -0.2789 -0.0788
  124MOL    O6537211   2.961   2.561   5.331 -0.6304 -0.5355 -0.0026
  124MOL    O6637212   3.163   2.485   5.393 -0.0326  0.0628 -0.1295
  124MOL    C6737213   3.121   2.350   5.360  0.4279 -0.1420  0.0611
  124MOL    C6837214   3.221   2.253   5.419  0.1154  0.3498  0.0334
  124MOL    H6937215   3.192   2.906   5.302  0.7005 -0.8045  0.6299
  124MOL    H7037216   3.037   2.839   5.243  0.2525  0.7870 -0.9939
  124MOL    H7137217   3.235   2.708   5.436 -0.1124 -2.1216 -0.6673
  124MOL    H7237218   3.022   2.311   5.384  0.2452 -0.7584 -1.6273
  124MOL    H7337219   3.128   2.339   5.252 -2.1411 -1.0018 -0.0498
  124MOL    H7437220   3.225   2.276   5.526 -2.4140 -1.6488  0.6153
  124MOL    H7537221   3.320   2.252   5.373  0.4435  1.3642  0.6833
  124MOL    H7637222   3.192   2.148   5.409 -1.5848  1.0279 -2.5405
  124MOL    C7737223   3.061   2.798   5.505  0.2134  0.1008 -0.0647
  124MOL    C7837224   3.088   2.740   5.647 -0.8975  0.4614 -0.3566
  124MOL    C7937225   2.960   2.731   5.728  0.3739 -0.1900  0.6662
  124MOL    O8037226   2.915   2.622   5.760  0.3191 -0.2094  0.3299
  124MOL    O8137227   2.900   2.850   5.765 -0.7120  0.6243  0.6553
  124MOL    C8237228   2.767   2.848   5.817 -0.6767 -0.4682  0.4219
  124MOL    C8337229   2.674   2.932   5.725 -0.0621  0.2976 -0.2642
  124MOL    H8437230   3.094   2.902   5.507 -1.4633  0.6491 -0.2793
  124MOL    H8537231   2.955   2.804   5.480  0.6033  0.2128 -1.7221
  124MOL    H8637232   3.120   2.639   5.620  0.2882  0.2500  1.7075
  124MOL    H8737233   2.720   2.750   5.828  1.2670 -1.4112  0.4352
  124MOL    H8837234   2.771   2.878   5.922 -0.3337  1.3542 -0.0973
  124MOL    H8937235   2.660   2.891   5.625  0.1173  0.0682 -0.1939
  124MOL    H9037236   2.710   3.035   5.711  0.5077  0.3915  1.6962
  124MOL    H9137237   2.579   2.949   5.774 -0.2003  0.9712 -0.7618
  124MOL    C9237238   3.209   2.796   5.721  0.5483 -0.3909 -0.2426
  124MOL    C9337239   3.247   2.725   5.859 -0.3282 -0.2997 -0.1570
  124MOL    C9437240   3.191   2.801   5.984 -0.7107 -0.0099 -0.6082
  124MOL    O9537241   3.161   2.920   5.975 -0.0916 -0.3475  0.3583
  124MOL    O9637242   3.176   2.721   6.085  0.8909  0.0728 -0.5322
  124MOL    C9737243   3.098   2.759   6.199 -1.0415 -0.1372 -0.0630
  124MOL    C9837244   2.961   2.708   6.192  0.6908  0.3767 -0.3985
  124MOL    H9937245   3.301   2.780   5.665 -0.0682 -0.8784 -1.1159
  124MOL   H10037246   3.199   2.903   5.740 -0.5530 -0.7765  1.4928
  124MOL   H10137247   3.205   2.624   5.856 -1.0889 -0.0038  0.5402
  124MOL   H10237248   3.154   2.722   6.284  0.5874  0.0461 -1.0351
  124MOL   H10337249   3.098   2.867   6.214  0.8240  0.1355 -1.8045
  124MOL   H10437250   2.902   2.753   6.113 -0.9729 -2.2667 -0.7359
  124MOL   H10537251   2.911   2.731   6.286  1.1648 -0.7436  0.1384
  124MOL   H10637252   2.954   2.600   6.180  2.6826  0.0582  1.0896
  124MOL   C10737253   3.399   2.698   5.877 -0.0895  0.7205 -0.3480
  124MOL   C10837254   3.503   2.806   5.902  0.3465 -0.1906 -0.0722
  124MOL   C10937255   3.501   2.932   5.815 -0.1829  0.0617  0.0345
  124MOL   O11037256   3.559   2.933   5.706 -0.8535  0.0169  0.2748
  124MOL   O11137257   3.427   3.029   5.864 -0.1874 -0.4485  0.5971
  124MOL   C11237258   3.390   3.148   5.793 -0.0071  0.0918 -0.0112
  124MOL   C11337259   3.317   3.233   5.894 -0.2804  0.2718 -0.2343
  124MOL   H11437260   3.411   2.637   5.966  0.5430  1.7340  0.2643
  124MOL   H11537261   3.444   2.627   5.807  0.6637  1.1305 -0.2875
  124MOL   H11637262   3.477   2.832   6.004 -0.2352  0.8783 -0.4753
  124MOL   H11737263   3.481   3.187   5.748  1.6344 -1.9332  1.4855
  124MOL   H11837264   3.318   3.123   5.714 -0.1113  0.7551 -0.1325
  124MOL   H11937265   3.232   3.168   5.912  0.2221 -1.1773 -2.8503
  124MOL   H12037266   3.284   3.328   5.850 -0.6447 -0.2962 -1.2019
  124MOL   H12137267   3.383   3.249   5.979  2.6886 -1.3104 -2.1864
  124MOL   C12237268   3.640   2.742   5.909 -0.0798  0.1638  0.0331
  124MOL   C12337269   3.703   2.769   6.046  0.1781 -0.4478  1.1332
  124MOL   C12437270   3.723   2.921   6.067  0.4983 -0.0756  0.0029
  124MOL   O12537271   3.687   2.971   6.170  0.2132 -0.4630 -0.0834
  124MOL   O12637272   3.787   2.991   5.970  0.5011  0.4846  0.0618
  124MOL   C12737273   3.833   3.123   5.993  0.0879  0.8919  0.2337
  124MOL   C12837274   3.745   3.221   5.921 -0.8457 -0.4386  0.3637
  124MOL   H12937275   3.628   2.634   5.908  0.7987  0.0626 -0.4161
  124MOL   H13037276   3.708   2.762   5.825  1.4604 -3.9078  0.2069
  124MOL   H13137277   3.628   2.741   6.120 -0.3315  0.8306  1.1080
  124MOL   H13237278   3.831   3.133   6.102 -0.0163 -2.0284  0.5550
  124MOL   H13337279   3.937   3.125   5.960 -0.0854  1.0140 -0.3182
  124MOL   H13437280   3.726   3.190   5.818  0.8165  0.6654 -0.2935
  124MOL   H13537281   3.798   3.316   5.911 -0.4203 -0.5373  1.6348
  124MOL   H13637282   3.646   3.227   5.966 -0.2731  0.0352  1.5659
  124MOL   C13737283   3.842   2.693   6.069  0.4006 -0.4585  0.4597
  124MOL   C13837284   3.916   2.736   6.200  0.1793 -0.4630 -0.0736
  124MOL   C13937285   4.058   2.669   6.189  0.3637 -0.9215 -0.5935
  124MOL   O14037286   4.092   2.575   6.261  0.0949 -0.1764  0.0618
  124MOL   O14137287   4.129   2.721   6.094  0.1120 -0.5130  0.1197
  124MOL   C14237288   4.259   2.673   6.080 -0.0845 -0.8220  0.3307
  124MOL   C14337289   4.305   2.751   5.961 -0.9619  0.1113 -0.0999
  124MOL   H14437290   3.811   2.589   6.079 -1.4780 -0.0971 -1.3614
  124MOL   H14537291   3.908   2.692   5.982  0.4030 -0.1804  0.4585
  124MOL   H14637292   3.941   2.842   6.194  1.3239 -0.7965 -1.4913
  124MOL   H14737293   4.322   2.681   6.168 -0.1778 -1.8792  0.5035
  124MOL   H14837294   4.267   2.573   6.035  0.4093 -0.5969 -0.0882
  124MOL   H14937295   4.258   2.735   5.864  1.5686 -0.7421 -1.2178
  124MOL   H15037296   4.412   2.746   5.943 -1.2315  0.1718 -1.8606
  124MOL   H15137297   4.283   2.857   5.974  2.2633  0.7550  0.4789
  124MOL   C15237298   3.840   2.708   6.331  0.4224 -0.9284  0.7150
  124MOL   C15337299   3.857   2.807   6.452  0.3452  0.2931 -0.1035
  124MOL   C15437300   3.998   2.846   6.491 -0.7119 -0.1381  0.4221
  124MOL   O15537301   4.063   2.787   6.581  0.1702 -0.8818 -0.2340
  124MOL   O15637302   4.052   2.938   6.412 -0.0028 -0.0465  0.4035
  124MOL   C15737303   4.174   3.002   6.439  0.7554  0.4107 -0.5922
  124MOL   C15837304   4.213   3.083   6.316 -0.1993  0.2396  0.3302
  124MOL   H15937305   3.733   2.700   6.310  0.1026  2.2591  0.8872
  124MOL   H16037306   3.867   2.608   6.367 -0.8460 -1.6890 -0.3769
  124MOL   H16137307   3.813   2.901   6.418 -0.6295  0.1006  0.5934
  124MOL   H16237308   4.166   3.059   6.532  0.2815 -0.3913 -0.1355
  124MOL   H16337309   4.242   2.919   6.458 -2.1522 -1.6242  1.5062
  124MOL   H16437310   4.195   3.020   6.229  0.1357 -2.5641  2.2037
  124MOL   H16537311   4.320   3.103   6.323 -0.5615  1.6428  2.1662
  124MOL   H16637312   4.160   3.178   6.308  1.1785  0.9049 -1.1232
  124MOL   C16737313   3.778   2.763   6.579  0.2809  0.2097 -0.9675
  124MOL   C16837314   3.636   2.816   6.571  0.8020  0.1923 -0.3027
  124MOL   C16937315   3.626   2.967   6.610 -0.4310  0.7417 -0.0490
  124MOL   O17037316   3.611   3.005   6.721  0.2913 -0.3061  0.2321
  124MOL   O17137317   3.629   3.046   6.497 -0.3938  0.0430 -0.2381
  124MOL   C17237318   3.624   3.181   6.511 -0.1932  0.3988  0.2515
  124MOL   C17337319   3.751   3.235   6.445 -0.3456  0.1101 -0.1899
  124MOL   H17437320   3.772   2.655   6.592 -0.2566  0.2609 -0.7778
  124MOL   H17537321   3.824   2.800   6.670 -2.4079 -0.3572  0.6735
  124MOL   H17637322   3.603   2.832   6.468 -1.0761 -0.5830  0.1583
  124MOL   H17737323   3.535   3.220   6.463 -1.5463 -1.9221  0.7626
  124MOL   H17837324   3.628   3.222   6.612 -2.0252  2.4145 -0.4871
  124MOL   H17937325   3.761   3.199   6.343  2.7126 -0.0992  0.1150
  124MOL   H18037326   3.833   3.195   6.504 -0.7486 -1.9983 -1.0076
  124MOL   H18137327   3.758   3.343   6.458 -1.3032  0.2237 -0.6043
  124MOL   C18237328   3.517   2.731   6.621 -0.0422  0.0471 -0.0267
  124MOL   C18337329   3.512   2.590   6.564  0.4354 -0.3451  0.3155
  124MOL   C18437330   3.525   2.565   6.415  0.0153 -0.5033  0.4095
  124MOL   O18537331   3.470   2.646   6.336 -0.2052  0.4959  0.3529
  124MOL   O18637332   3.598   2.455   6.378  0.4128 -0.2381  0.1739
  124MOL   C18737333   3.615   2.426   6.239  0.4221 -0.0004 -0.4321
  124MOL   C18837334   3.729   2.325   6.226 -0.3894 -0.2113 -0.1071
  124MOL   H18937335   3.544   2.725   6.727  2.2362 -0.1890 -0.5995
  124MOL   H19037336   3.423   2.785   6.608  0.7519  1.5561  0.3604
  124MOL   H19137337   3.589   2.535   6.620  0.2694 -0.5550  0.3379
  124MOL   H19237338   3.514   2.400   6.208  0.2524 -0.7711  0.7039
  124MOL   H19337339   3.642   2.515   6.183 -0.8880  1.2287  0.8374
  124MOL   H19437340   3.716   2.228   6.274  2.0406 -0.1440  0.7750
  124MOL   H19537341   3.820   2.369   6.268  0.6614 -0.4954 -1.9913
  124MOL   H19637342   3.761   2.328   6.121 -0.6475 -2.0208 -0.2558
  124MOL   C19737343   3.375   2.520   6.600  0.1408  0.2050 -0.4598
  124MOL   C19837344   3.337   2.531   6.751  0.1966 -0.2488 -0.0477
  124MOL   C19937345   3.432   2.452   6.847  0.1611  0.3835 -0.1203
  124MOL   O20037346   3.465   2.491   6.957 -1.0084 -0.0716 -0.3084
  124MOL   O20137347   3.484   2.348   6.789  0.2307 -0.3294  0.1553
  124MOL   C20237348   3.592   2.276   6.835 -0.3597 -0.2911 -0.5104
  124MOL   C20337349   3.640   2.180   6.730 -0.0474  0.2680 -0.7969
  124MOL   H20437350   3.300   2.564   6.535 -0.0199 -0.8223 -0.9711
  124MOL   H20537351   3.394   2.417   6.569  0.0960  0.2306 -0.5730
  124MOL   H20637352   3.321   2.633   6.788 -0.2826  0.7099 -2.8137
  124MOL   H20737353   3.673   2.346   6.856 -1.1230  0.6762 -0.7556
  124MOL   H20837354   3.564   2.227   6.928 -0.5077 -0.4514 -0.6385
  124MOL   H20937355   3.566   2.101   6.717  2.7383 -2.0664 -3.2795
  124MOL   H21037356   3.728   2.124   6.764  0.0474 -0.3522 -2.0331
  124MOL   H21137357   3.671   2.236   6.642 -2.6766  1.1422 -1.2018
  124MOL   C21237358   3.194   2.472   6.780  0.2927  0.0884 -0.2917
  124MOL   C21337359   3.076   2.516   6.686 -0.3929  0.1041  0.2029
  124MOL   C21437360   3.063   2.668   6.678 -0.0056 -0.9469  0.5560
  124MOL   O21537361   3.055   2.725   6.570  0.3799 -0.2540 -0.1054
  124MOL   O21637362   3.042   2.730   6.794  0.4061  0.8345 -0.1419
  124MOL   C21737363   3.029   2.868   6.792 -0.1231 -0.7426 -0.9341
  124MOL   C21837364   3.167   2.926   6.774  0.1924 -0.2526 -0.2692
  124MOL   H21937365   3.193   2.365   6.761 -2.6191 -0.1489  0.9631
  124MOL   H22037366   3.171   2.488   6.885  3.0684  1.9519  0.0972
  124MOL   H22137367   3.092   2.486   6.583  0.3983  1.5890 -0.1137
  124MOL   H22237368   2.973   2.889   6.701  0.1134  0.4622 -0.8014
  124MOL   H22337369   2.988   2.899   6.888  1.3193 -3.3574  0.6041
  124MOL   H22437370   3.219   2.897   6.683  1.3421 -1.3881  0.7092
  124MOL   H22537371   3.228   2.912   6.864 -1.4121  1.0839  1.0498
  124MOL   H22637372   3.161   3.035   6.769  0.7662 -0.2382 -0.6560
  124MOL   C22737373   2.950   2.440   6.728 -0.6387 -0.3136  0.0194
  124MOL   C22837374   2.921   2.316   6.639 -0.2849 -0.0684 -0.2070
  124MOL   C22937375   2.908   2.338   6.496 -0.5270 -0.7632 -0.3833
  124MOL   O23037376   2.802   2.349   6.442 -0.3002 -0.1497  0.5168
  124MOL   O23137377   3.025   2.308   6.429 -0.4361  1.0482  0.8368
  124MOL   C23237378   3.036   2.334   6.292 -0.3608 -0.0458  0.1010
  124MOL   C23337379   3.183   2.370   6.276  0.1633 -0.5293  0.7534
  124MOL   H23437380   2.951   2.408   6.832  2.0640  2.8256  1.0207
  124MOL   H23537381   2.866   2.509   6.722 -0.5470 -0.0035  1.9227
  124MOL   H23637382   3.011   2.256   6.650 -2.5251 -3.6160 -0.3622
  124MOL   H23737383   2.986   2.255   6.238 -2.4338  2.0443 -1.1265
  124MOL   H23837384   2.966   2.416   6.274 -1.6291 -1.2444 -0.4450
  124MOL   H23937385   3.242   2.279   6.280  2.0684  0.6697  0.2420
  124MOL   H24037386   3.213   2.447   6.346 -1.1190 -0.7308  1.5556
  124MOL   H24137387   3.199   2.418   6.180 -1.9637  0.2777  0.7626
  124MOL   C24237388   2.796   2.240   6.688  0.2566  0.6400 -0.0832
  124MOL   C24337389   2.808   2.168   6.825 -0.0107  0.3651 -0.2682
  124MOL   C24437390   2.902   2.044   6.823 -0.1556 -0.1668 -0.0782
  124MOL   O24537391   3.022   2.055   6.867  0.2978  0.2191  0.0023
  124MOL   O24637392   2.840   1.931   6.775  0.6010 -0.0264 -0.3334
  124MOL   C24737393   2.899   1.804   6.793 -0.6542 -0.8226  0.4455
  124MOL   C24837394   2.842   1.737   6.918 -0.0045 -0.4310  0.4631
  124MOL   H24937395   2.714   2.312   6.685  1.0568  1.5367 -0.3673
  124MOL   H25037396   2.790   2.163   6.611  0.6200  2.1169 -1.6066
  124MOL   H25137397   2.843   2.237   6.903 -2.2400  0.1920  0.9187
  124MOL   H25237398   2.859   1.742   6.713  0.2362 -0.7165 -0.0797
  124MOL   H25337399   3.008   1.805   6.795 -0.6200  2.1750  0.1350
  124MOL   H25437400   2.866   1.783   7.013  1.5514  0.7392 -0.4783
  124MOL   H25537401   2.890   1.639   6.919  1.6213  0.3665  3.4447
  124MOL   H25637402   2.733   1.735   6.922 -0.0853  0.4745 -1.0640
  124MOL   C25737403   2.671   2.119   6.890 -0.2757  0.0572  0.4231
  124MOL   C25837404   2.584   2.233   6.951 -0.3484  0.2466 -0.3783
  124MOL   C25937405   2.627   2.264   7.098 -0.4056 -0.0997 -0.3682
  124MOL   O26037406   2.688   2.371   7.126  0.1280  0.1976 -0.1381
  124MOL   O26137407   2.599   2.158   7.183 -0.4586 -0.3091 -0.1863
  124MOL   C26237408   2.627   2.185   7.316  0.4641 -0.2830  0.9415
  124MOL   C26337409   2.493   2.249   7.364  0.0669  0.1772  0.1429
  124MOL   H26437410   2.614   2.081   6.805  0.9523  1.4140 -1.0436
  124MOL   H26537411   2.676   2.030   6.952 -2.8601  0.0633  0.7054
  124MOL   H26637412   2.612   2.318   6.888 -1.1627  0.2480 -0.7355
  124MOL   H26737413   2.650   2.092   7.367 -1.0207 -0.0528  2.0468
  124MOL   H26837414   2.723   2.233   7.334 -0.3287  0.7270  2.5671
  124MOL   H26937415   2.482   2.345   7.314 -0.6208  1.1300  2.0497
  124MOL   H27037416   2.515   2.274   7.468  1.3197 -0.2123 -0.0191
  124MOL   H27137417   2.404   2.189   7.347  0.2937 -0.1619  0.1564
  124MOL   C27237418   2.434   2.214   6.921 -0.1867 -0.2529  0.5081
  124MOL   C27337419   2.329   2.309   6.978  0.5209  0.2337 -0.0974
  124MOL   C27437420   2.186   2.279   6.930 -1.0536 -0.1010  0.3523
  124MOL   O27537421   2.094   2.234   7.003  0.1089  0.0957 -0.4970
  124MOL   O27637422   2.176   2.318   6.806  0.2334  0.0250  0.6120
  124MOL   C27737423   2.054   2.315   6.740  0.3139 -0.7130  0.1595
  124MOL   C27837424   2.101   2.320   6.592  0.5626 -0.9656 -0.5748
  124MOL   H27937425   2.423   2.202   6.813 -1.5123 -1.6997  0.7892
  124MOL   H28037426   2.412   2.113   6.955  0.6483 -0.4588  0.4320
  124MOL   H28137427   2.322   2.289   7.085 -1.2649  2.5196  0.2740
  124MOL   H28237428   1.996   2.226   6.764 -1.1793 -0.5271 -2.5774
  124MOL   H28337429   1.996   2.406   6.754 -1.0578 -0.9817 -3.4165
  124MOL   H28437430   2.150   2.227   6.562 -0.2353 -0.8568 -2.2543
  124MOL   H28537431   2.165   2.404   6.565 -0.5559 -0.3967 -1.5034
  124MOL   H28637432   2.018   2.339   6.524  0.3826  0.2181 -0.0253
  124MOL   C28737433   2.369   2.453   6.964 -0.5013  0.2068 -0.1665
  124MOL   C28837434   2.277   2.554   7.034 -0.3358  0.0288 -0.7330
  124MOL   C28937435   2.207   2.655   6.936 -0.3485  0.3311 -0.4961
  124MOL   O29037436   2.159   2.619   6.826  0.1714  0.3309 -0.4310
  124MOL   O29137437   2.187   2.777   6.986 -0.4797  0.3228  0.4520
  124MOL   C29237438   2.120   2.873   6.908  0.9508  0.2300 -0.3165
  124MOL   C29337439   1.985   2.913   6.969 -0.8296  0.3591  0.3923
  124MOL   H29437440   2.465   2.473   7.012 -2.0547  1.3833  2.6026
  124MOL   H29537441   2.365   2.485   6.860  0.2927 -1.6086 -0.7715
  124MOL   H29637442   2.191   2.491   7.059 -0.1608 -0.1481 -0.5798
  124MOL   H29737443   2.172   2.969   6.910 -0.1260  0.8483 -1.1440
  124MOL   H29837444   2.117   2.854   6.800 -0.6110 -1.4094 -0.0008
  124MOL   H29937445   1.914   2.831   6.956 -0.7128  0.1489  1.0787
  124MOL   H30037446   1.954   2.988   6.896 -3.4867 -0.0544  1.0563
  124MOL   H30137447   1.993   2.946   7.072 -1.1749 -1.1496  0.9120
  124MOL   H30237448   2.315   2.587   7.130  0.1061 -1.1036 -0.5134
  125MOL     C137449   5.175   6.732   6.571  0.6037  0.4575 -0.0663
  125MOL     C237450   5.239   6.642   6.461  0.6551  0.0288 -0.9779
  125MOL     C337451   5.349   6.554   6.522 -0.0581  0.8323  0.3141
  125MOL     O437452   5.346   6.523   6.641  0.2668  0.0466  0.1862
  125MOL     O537453   5.442   6.518   6.439  0.5443  0.0715  0.5020
  125MOL     C637454   5.560   6.450   6.488  1.4050  0.2165 -0.0026
  125MOL     C737455   5.675   6.553   6.496 -0.3684  0.3724  0.2974
  125MOL     H837456   5.238   6.819   6.583  1.7662 -0.2910 -0.6410
  125MOL     H937457   5.163   6.683   6.668 -1.1278  0.7967 -0.0950
  125MOL    H1037458   5.167   6.568   6.426 -2.0987  1.6053  1.1041
  125MOL    H1137459   5.544   6.416   6.590 -1.2211  0.5801 -0.2649
  125MOL    H1237460   5.594   6.364   6.430  0.9498  0.9310 -1.3528
  125MOL    H1337461   5.645   6.642   6.550  0.4343  1.2104 -0.6305
  125MOL    H1437462   5.700   6.567   6.391 -2.9476 -0.8952 -0.5440
  125MOL    H1537463   5.765   6.509   6.539 -1.7811 -1.8893  1.0963
  125MOL    H1637464   5.077   6.758   6.532  0.4925  0.3826  0.1620
  125MOL    C1737465   5.285   6.734   6.346 -0.3943 -0.1240  1.1216
  125MOL    C1837466   5.186   6.820   6.263  0.4809  0.4054  0.0042
  125MOL    C1937467   5.062   6.743   6.203  0.1319 -0.2898 -0.1934
  125MOL    O2037468   4.945   6.760   6.237  0.2239  0.1106  0.1690
  125MOL    O2137469   5.101   6.662   6.097 -0.3952 -0.0451 -0.1769
  125MOL    C2237470   5.003   6.592   6.018  0.1230  0.0280 -0.4768
  125MOL    C2337471   5.045   6.588   5.870  0.1746 -0.2214  0.5769
  125MOL    H2437472   5.355   6.803   6.392  1.0640 -2.1582  2.0610
  125MOL    H2537473   5.349   6.677   6.278  0.2809  1.2715  0.5771
  125MOL    H2637474   5.151   6.897   6.332 -2.4280 -0.2399 -0.6994
  125MOL    H2737475   4.988   6.493   6.062 -0.6344  0.2836 -0.1603
  125MOL    H2837476   4.907   6.642   6.029 -0.7448 -1.8319  0.7517
  125MOL    H2937477   5.052   6.692   5.840 -0.2712 -0.4082 -0.1906
  125MOL    H3037478   4.977   6.529   5.808  0.2357 -0.5989  0.8714
  125MOL    H3137479   5.147   6.550   5.859 -0.0700 -0.8696  0.4992
  125MOL    C3237480   5.269   6.892   6.152 -0.4075  0.6134  0.0066
  125MOL    C3337481   5.191   6.992   6.062 -0.9626  0.5201 -0.5571
  125MOL    C3437482   5.259   7.005   5.919 -0.4871 -0.0617 -0.5722
  125MOL    O3537483   5.293   7.109   5.860 -0.1004 -0.1816  0.1439
  125MOL    O3637484   5.272   6.884   5.857  0.7212  0.6203 -0.3184
  125MOL    C3737485   5.338   6.870   5.730  0.3630 -0.1856  0.4138
  125MOL    C3837486   5.247   6.887   5.610  0.5319  0.2953 -0.1914
  125MOL    H3937487   5.351   6.930   6.213 -1.7991  2.1688  0.9518
  125MOL    H4037488   5.308   6.813   6.089 -0.4054  0.7354 -0.1449
  125MOL    H4137489   5.088   6.959   6.055 -0.9911  0.4181  0.2799
  125MOL    H4237490   5.409   6.953   5.730 -0.7202  0.8062 -2.1611
  125MOL    H4337491   5.404   6.784   5.720 -0.6061 -0.7874 -1.0125
  125MOL    H4437492   5.202   6.986   5.599 -1.3779 -0.4991  0.2820
  125MOL    H4537493   5.164   6.817   5.620  1.6006 -0.6309  2.3843
  125MOL    H4637494   5.294   6.862   5.515 -0.8386  0.0615 -0.8205
  125MOL    C4737495   5.182   7.135   6.122 -0.0927  0.1286  0.2482
  125MOL    C4837496   5.067   7.217   6.077  0.0140 -0.1420 -0.3255
  125MOL    C4937497   5.076   7.372   6.102  0.8533 -0.4103  0.4340
  125MOL    O5037498   5.101   7.451   6.012 -0.2333  0.6389 -0.7682
  125MOL    O5137499   5.047   7.404   6.226 -0.1142  0.3632 -0.1370
  125MOL    C5237500   5.041   7.542   6.264 -0.6439 -0.3111 -1.3441
  125MOL    C5337501   5.010   7.568   6.417  0.0401 -0.1721 -0.0957
  125MOL    H5437502   5.159   7.123   6.228  0.1418  0.7982  0.3758
  125MOL    H5537503   5.275   7.188   6.141 -1.3837  1.7821  2.1463
  125MOL    H5637504   5.058   7.198   5.970  1.5775  0.9810 -0.6689
  125MOL    H5737505   5.141   7.583   6.253 -0.3739 -0.7637 -0.6322
  125MOL    H5837506   4.973   7.587   6.191 -2.3361 -0.3735  0.1530
  125MOL    H5937507   5.071   7.512   6.487  0.0273  0.5925  0.5386
  125MOL    H6037508   4.910   7.537   6.449  0.1179 -0.1873  0.1296
  125MOL    H6137509   5.029   7.674   6.437 -2.1670 -0.1267  2.0386
  125MOL    C6237510   4.925   7.169   6.110 -0.1945 -0.5363  0.0560
  125MOL    C6337511   4.850   7.084   6.004 -0.2007 -0.1151 -0.3941
  125MOL    C6437512   4.836   7.157   5.871 -0.3235  0.2598  0.7427
  125MOL    O6537513   4.874   7.107   5.768  0.0422 -0.2990 -0.6205
  125MOL    O6637514   4.782   7.279   5.881 -0.3707  0.0852 -0.3298
  125MOL    C6737515   4.750   7.365   5.768  0.2708 -0.2463 -0.1797
  125MOL    C6837516   4.826   7.500   5.781  0.1120  0.3507  0.4654
  125MOL    H6937517   4.929   7.119   6.207  3.2030 -2.6970 -1.0960
  125MOL    H7037518   4.865   7.258   6.125  0.6527  0.3783 -1.8056
  125MOL    H7137519   4.910   6.999   5.974  0.5908  0.4667 -0.4710
  125MOL    H7237520   4.789   7.318   5.678 -0.1888  2.3231 -1.7602
  125MOL    H7337521   4.642   7.369   5.753  0.4843  1.4122 -1.4014
  125MOL    H7437522   4.814   7.552   5.686  2.3225 -0.2889 -0.1843
  125MOL    H7537523   4.933   7.479   5.782 -0.1215 -0.8789 -0.4496
  125MOL    H7637524   4.806   7.559   5.870 -2.6705  1.9462 -1.1483
  125MOL    C7737525   4.713   7.027   6.048  0.1039 -0.7019  0.4068
  125MOL    C7837526   4.662   6.901   5.972 -0.4592 -0.3120  0.4369
  125MOL    C7937527   4.623   6.925   5.824  0.1926 -0.4171 -0.3958
  125MOL    O8037528   4.523   6.989   5.795  0.3705 -0.1057 -0.2280
  125MOL    O8137529   4.706   6.879   5.733 -0.3931  0.0508  0.1436
  125MOL    C8237530   4.660   6.862   5.600  0.0312  0.2773 -0.2271
  125MOL    C8337531   4.726   6.968   5.513  0.5510  0.8092 -0.0615
  125MOL    H8437532   4.710   7.010   6.156  1.9765  3.3698  1.1841
  125MOL    H8537533   4.639   7.106   6.037 -1.4262 -2.4308 -2.7082
  125MOL    H8637534   4.749   6.837   5.962 -0.8341 -0.6958 -0.4774
  125MOL    H8737535   4.704   6.770   5.561 -0.2749 -0.7400  1.7997
  125MOL    H8837536   4.553   6.852   5.588 -0.0452 -1.9706  1.9105
  125MOL    H8937537   4.834   6.969   5.521  0.6289  1.5452 -1.1477
  125MOL    H9037538   4.687   7.064   5.547  0.1568  1.5189 -2.4111
  125MOL    H9137539   4.692   6.952   5.410 -0.2713 -0.9037  0.4563
  125MOL    C9237540   4.544   6.831   6.050 -0.2279 -0.1726  0.1567
  125MOL    C9337541   4.510   6.685   5.996  0.5622 -0.4406 -0.5366
  125MOL    C9437542   4.424   6.673   5.858 -0.5290 -0.1035 -0.0916
  125MOL    O9537543   4.486   6.663   5.754 -0.4024 -0.9853  0.2760
  125MOL    O9637544   4.285   6.683   5.869 -0.2383 -0.0541  0.1970
  125MOL    C9737545   4.199   6.701   5.756 -0.7220 -0.6019  0.0139
  125MOL    C9837546   4.081   6.610   5.776  0.2129 -0.4318 -0.1067
  125MOL    H9937547   4.583   6.821   6.152  1.4229 -0.7528 -0.5099
  125MOL   H10037548   4.461   6.901   6.049  0.3536  0.5119 -2.2897
  125MOL   H10137549   4.610   6.647   5.976  2.2838  3.0733  1.0633
  125MOL   H10237550   4.171   6.806   5.750  0.3068 -0.3663 -1.0583
  125MOL   H10337551   4.267   6.676   5.674  0.6237  0.3490  0.8146
  125MOL   H10437552   4.020   6.635   5.863  0.9237 -1.1002  0.5861
  125MOL   H10537553   4.101   6.504   5.786 -1.0495 -0.6770 -0.1141
  125MOL   H10637554   4.017   6.622   5.689  0.6182  0.5700 -0.2748
  125MOL   C10737555   4.451   6.601   6.115 -0.1240 -0.2563 -0.0504
  125MOL   C10837556   4.524   6.477   6.151 -0.1731  0.4481  0.0256
  125MOL   C10937557   4.529   6.371   6.036 -0.8621 -0.1735  0.3493
  125MOL   O11037558   4.638   6.346   5.989  0.4488  0.6102 -0.2728
  125MOL   O11137559   4.415   6.329   5.999 -0.3066  0.1024  0.1822
  125MOL   C11237560   4.390   6.231   5.896 -0.0683  0.4928 -0.7508
  125MOL   C11337561   4.356   6.096   5.960 -1.3493 -0.1538  0.3605
  125MOL   H11437562   4.437   6.667   6.201 -1.3334 -1.0987  0.4034
  125MOL   H11537563   4.352   6.569   6.085 -0.7193  2.2285 -0.8983
  125MOL   H11637564   4.628   6.509   6.159 -0.1807 -0.0337  2.3295
  125MOL   H11737565   4.298   6.268   5.852  0.5773 -0.6021 -3.0984
  125MOL   H11837566   4.467   6.227   5.819  1.4742  0.2880  0.7821
  125MOL   H11937567   4.267   6.104   6.021 -2.1083  0.4739 -0.8039
  125MOL   H12037568   4.440   6.060   6.019  0.4980  0.7328 -1.6323
  125MOL   H12137569   4.338   6.021   5.883 -0.2526  0.6103 -0.6651
  125MOL   C12237570   4.456   6.415   6.281 -0.7344  0.2460  0.2868
  125MOL   C12337571   4.537   6.322   6.365 -0.6778  0.3664  0.3922
  125MOL   C12437572   4.677   6.379   6.401 -0.3675  0.5603 -0.6266
  125MOL   O12537573   4.785   6.320   6.370 -0.0789  0.4546 -0.2761
  125MOL   O12637574   4.663   6.495   6.462  0.4782 -0.3244  0.2797
  125MOL   C12737575   4.781   6.568   6.494 -0.1835  0.4502  0.3430
  125MOL   C12837576   4.750   6.708   6.542 -0.1993 -0.4787  0.5330
  125MOL   H12937577   4.429   6.498   6.346  0.7424  0.7667  0.2519
  125MOL   H13037578   4.357   6.379   6.257 -0.5964  0.4447 -0.5910
  125MOL   H13137579   4.484   6.317   6.460 -2.1680 -0.7573 -0.4838
  125MOL   H13237580   4.832   6.523   6.579  0.3828  2.9272  1.3462
  125MOL   H13337581   4.855   6.576   6.414  1.2556 -0.0181  1.6082
  125MOL   H13437582   4.827   6.784   6.535  1.2464 -2.2563 -5.1546
  125MOL   H13537583   4.712   6.709   6.645  0.6528  0.7193  0.8500
  125MOL   H13637584   4.670   6.742   6.476  1.2192  0.7331 -0.5972
  125MOL   C13737585   4.528   6.179   6.303  0.6406 -0.4031 -0.0288
  125MOL   C13837586   4.580   6.066   6.396 -0.0396  0.6650  0.0996
  125MOL   C13937587   4.608   5.941   6.320  0.3127 -0.0810  0.0722
  125MOL   O14037588   4.699   5.867   6.344  0.0906 -0.1847  0.3854
  125MOL   O14137589   4.514   5.908   6.234 -0.2943 -0.4528  0.1122
  125MOL   C14237590   4.503   5.775   6.186 -0.3483 -0.0855  0.1706
  125MOL   C14337591   4.418   5.771   6.065 -0.5665 -0.1020 -0.1790
  125MOL   H14437592   4.425   6.155   6.276  0.6176  2.1789 -2.4522
  125MOL   H14537593   4.586   6.183   6.211  0.6346 -0.3203 -0.0289
  125MOL   H14637594   4.672   6.103   6.443  0.1560 -0.2107  0.4212
  125MOL   H14737595   4.604   5.742   6.160  0.0840  1.2822  0.0563
  125MOL   H14837596   4.463   5.716   6.269 -3.9413  0.1191 -1.3460
  125MOL   H14937597   4.320   5.810   6.091  0.3312  0.9979  1.5970
  125MOL   H15037598   4.405   5.673   6.019 -1.5764  0.9890 -2.3035
  125MOL   H15137599   4.458   5.830   5.982 -0.1881 -0.4896 -0.2787
  125MOL   C15237600   4.468   6.036   6.499  0.5186 -0.3087  0.6787
  125MOL   C15337601   4.499   5.933   6.605 -0.7405  0.1436  0.5662
  125MOL   C15437602   4.364   5.909   6.677  0.5099  0.8223  0.4820
  125MOL   O15537603   4.310   5.800   6.674  0.3857 -0.2490 -0.8775
  125MOL   O15637604   4.325   6.011   6.753  0.1369 -0.0544 -0.6125
  125MOL   C15737605   4.201   6.018   6.823 -0.2799 -0.0081 -0.2613
  125MOL   C15837606   4.083   6.038   6.736 -0.0715 -0.8267  0.2126
  125MOL   H15937607   4.447   6.132   6.547 -1.2773 -0.5105  0.3066
  125MOL   H16037608   4.381   6.001   6.445 -1.1898  2.3771  1.5850
  125MOL   H16137609   4.532   5.843   6.553 -0.1189  1.0805 -0.6770
  125MOL   H16237610   4.189   5.923   6.875 -3.6755 -0.1487 -1.2062
  125MOL   H16337611   4.204   6.090   6.905 -0.2447 -0.6516  0.3061
  125MOL   H16437612   3.991   6.057   6.790 -0.5311  0.1927 -0.9187
  125MOL   H16537613   4.059   5.947   6.681 -0.9492 -1.3811  1.4887
  125MOL   H16637614   4.101   6.129   6.679 -0.0671 -1.8496 -1.4780
  125MOL   C16737615   4.615   5.970   6.694 -0.3663  0.1583 -0.0019
  125MOL   C16837616   4.666   5.882   6.814  0.5846  0.1038  0.2993
  125MOL   C16937617   4.568   5.881   6.926  0.6055 -0.4308 -0.7740
  125MOL   O17037618   4.491   5.785   6.944 -0.1752  0.2151  0.1493
  125MOL   O17137619   4.559   5.994   7.003  0.2062  0.5144  0.5704
  125MOL   C17237620   4.452   6.001   7.098  0.0566 -0.1970 -0.2750
  125MOL   C17337621   4.494   5.920   7.229 -0.4543  0.0778 -0.5388
  125MOL   H17437622   4.702   5.992   6.632  0.9074 -1.5067  1.1549
  125MOL   H17537623   4.583   6.062   6.742  1.9644 -0.2391  2.4550
  125MOL   H17637624   4.674   5.782   6.774 -0.0718 -0.3258  1.2026
  125MOL   H17737625   4.437   6.108   7.111 -1.7119  0.0963 -4.0963
  125MOL   H17837626   4.353   5.974   7.061 -0.8630  1.6873  0.7613
  125MOL   H17937627   4.518   5.813   7.226 -1.1456 -0.0644 -1.2042
  125MOL   H18037628   4.414   5.940   7.300  0.7500  1.0517  0.5379
  125MOL   H18137629   4.581   5.979   7.256 -0.8579  1.1625 -1.5687
  125MOL   C18237630   4.810   5.924   6.852 -0.1899 -0.4771 -0.0891
  125MOL   C18337631   4.873   5.844   6.966  0.7540  0.2674  0.1898
  125MOL   C18437632   4.976   5.938   7.017 -0.5114 -0.3264  1.1291
  125MOL   O18537633   5.094   5.929   6.987 -0.0397 -0.3765 -0.3100
  125MOL   O18637634   4.923   6.031   7.104 -0.6610  0.3431 -0.1158
  125MOL   C18737635   4.999   6.132   7.160 -0.4713 -0.5771 -0.3143
  125MOL   C18837636   4.941   6.272   7.135 -0.7588 -0.1769 -0.6090
  125MOL   H18937637   4.858   5.909   6.756 -0.5315  1.9275 -0.6685
  125MOL   H19037638   4.814   6.031   6.872  2.7315 -1.0135  2.6297
  125MOL   H19137639   4.791   5.827   7.035 -1.1100 -0.4477 -2.1237
  125MOL   H19237640   4.997   6.118   7.268 -0.5383  2.6097  0.1480
  125MOL   H19337641   5.103   6.144   7.132 -0.2264 -1.7039  0.1046
  125MOL   H19437642   4.919   6.299   7.031 -2.1297 -0.2917 -0.3627
  125MOL   H19537643   5.007   6.345   7.181  0.5774 -1.1380 -0.9355
  125MOL   H19637644   4.848   6.281   7.190 -0.8018 -0.2048 -0.6776
  125MOL   C19737645   4.941   5.714   6.919  0.5297 -0.2397 -0.6506
  125MOL   C19837646   4.999   5.628   7.037 -0.0752 -0.5457  0.2366
  125MOL   C19937647   5.098   5.532   6.973  0.3752  0.0602  0.4361
  125MOL   O20037648   5.214   5.547   7.007 -0.0382 -0.2122  0.7460
  125MOL   O20137649   5.037   5.437   6.894  0.1643 -0.3334  0.1175
  125MOL   C20237650   5.114   5.331   6.848  0.1619  0.7455  0.2581
  125MOL   C20337651   5.162   5.345   6.705  0.5424  0.0112  0.2012
  125MOL   H20437652   4.873   5.662   6.852  0.6619 -1.2606  0.0024
  125MOL   H20537653   5.025   5.738   6.853  1.2240  0.5587  0.5167
  125MOL   H20637654   5.052   5.695   7.105  0.5065 -0.5968 -0.1601
  125MOL   H20737655   5.199   5.308   6.912  0.0344  0.9183  0.4903
  125MOL   H20837656   5.055   5.241   6.865  1.7183 -0.4437 -0.4598
  125MOL   H20937657   5.081   5.371   6.637 -1.0451 -3.3665  0.6855
  125MOL   H21037658   5.193   5.248   6.666  1.4192 -0.0111  0.9365
  125MOL   H21137659   5.238   5.424   6.699  0.6283 -0.1437 -0.7696
  125MOL   C21237660   4.899   5.556   7.122  0.3972  0.6918  0.1667
  125MOL   C21337661   4.948   5.493   7.258 -0.7349  0.0807 -0.9578
  125MOL   C21437662   4.812   5.441   7.320 -0.5822 -0.3574 -0.1412
  125MOL   O21537663   4.702   5.461   7.264 -0.5739  0.6177  0.3823
  125MOL   O21637664   4.829   5.387   7.440  0.9047  0.0061  0.2440
  125MOL   C21737665   4.716   5.336   7.504 -0.6581  0.4713  0.0708
  125MOL   C21837666   4.763   5.279   7.640  0.3947 -0.0337 -0.1584
  125MOL   H21937667   4.823   5.629   7.148 -1.0049 -0.4732 -0.6022
  125MOL   H22037668   4.858   5.475   7.062  0.7964 -0.6379  1.6424
  125MOL   H22137669   5.008   5.402   7.246 -0.4220  0.0450  0.7757
  125MOL   H22237670   4.647   5.419   7.520 -0.6898  0.0477  2.1804
  125MOL   H22337671   4.670   5.251   7.453  0.7295  0.3261 -0.9655
  125MOL   H22437672   4.845   5.209   7.624 -0.5755 -1.3232  0.4170
  125MOL   H22537673   4.674   5.227   7.675  1.0942 -1.1858 -0.0490
  125MOL   H22637674   4.793   5.351   7.715  0.5709  1.1591 -1.3593
  125MOL   C22737675   5.026   5.589   7.350  0.5968  0.5305 -0.7584
  125MOL   C22837676   5.174   5.546   7.379 -0.2338 -0.7142 -0.0922
  125MOL   C22937677   5.170   5.421   7.470  0.1417  0.1599 -0.1285
  125MOL   O23037678   5.191   5.308   7.426  0.3627  0.0767  0.0745
  125MOL   O23137679   5.152   5.461   7.596  0.1060 -0.4294 -0.0679
  125MOL   C23237680   5.142   5.369   7.704 -0.5114  0.2413 -0.6840
  125MOL   C23337681   5.272   5.377   7.780  0.2493 -0.2309 -0.1344
  125MOL   H23437682   5.013   5.692   7.316  2.1340  1.1847  0.5702
  125MOL   H23537683   4.981   5.584   7.450  2.6361 -1.2920  0.0948
  125MOL   H23637684   5.222   5.510   7.288  0.2773  0.3843 -0.2580
  125MOL   H23737685   5.062   5.406   7.767 -0.3031  1.9508 -1.4094
  125MOL   H23837686   5.106   5.272   7.671 -0.5806  0.6164 -1.7225
  125MOL   H23937687   5.270   5.470   7.836  0.8497 -1.0769  1.3459
  125MOL   H24037688   5.357   5.367   7.714  1.4120 -0.1723  1.3316
  125MOL   H24137689   5.265   5.302   7.860 -1.0400 -0.1557 -0.1621
  125MOL   C24237690   5.257   5.673   7.420 -0.5631  1.0343  0.0028
  125MOL   C24337691   5.308   5.761   7.298  0.3213  0.1122 -0.1307
  125MOL   C24437692   5.449   5.734   7.260 -0.7034  0.1588 -0.2052
  125MOL   O24537693   5.543   5.801   7.290 -0.3399  0.2986 -0.3182
  125MOL   O24637694   5.451   5.627   7.191 -0.2484  0.7232 -0.0146
  125MOL   C24737695   5.575   5.567   7.129 -0.0040  0.1001 -0.3545
  125MOL   C24837696   5.546   5.440   7.036  0.5068 -0.4988 -0.4087
  125MOL   H24937697   5.195   5.731   7.489 -3.2729  0.1623 -1.6005
  125MOL   H25037698   5.341   5.646   7.484 -1.1069 -0.9835 -0.1000
  125MOL   H25137699   5.253   5.741   7.206  1.2938  3.0734 -1.4435
  125MOL   H25237700   5.621   5.644   7.067 -0.7454  0.2387 -0.7302
  125MOL   H25337701   5.645   5.556   7.212 -0.8015 -0.1380  0.2911
  125MOL   H25437702   5.465   5.451   6.964 -0.8679  0.2650  1.2127
  125MOL   H25537703   5.536   5.349   7.096  1.5136 -0.5309 -0.2839
  125MOL   H25637704   5.637   5.416   6.982 -0.3243 -3.4721 -0.6179
  125MOL   C25737705   5.274   5.914   7.310  1.1182 -0.2513 -0.2845
  125MOL   C25837706   5.352   6.002   7.416  0.1280 -0.1868  0.1659
  125MOL   C25937707   5.356   5.953   7.558 -0.3465  0.3016  0.5435
  125MOL   O26037708   5.458   5.911   7.611  0.0126  0.3377  0.6038
  125MOL   O26137709   5.237   5.981   7.621  0.5651  0.0686  0.5087
  125MOL   C26237710   5.228   5.935   7.758 -0.0689 -0.5194  0.1033
  125MOL   C26337711   5.205   5.779   7.769  0.5136  0.5073  0.2958
  125MOL   H26437712   5.277   5.953   7.208 -1.7122 -1.0465 -0.7189
  125MOL   H26537713   5.173   5.916   7.351  1.5363 -1.7847  0.9024
  125MOL   H26637714   5.457   5.996   7.386 -0.3180 -1.2545 -1.2195
  125MOL   H26737715   5.309   5.965   7.824 -0.3085  1.8331 -0.6164
  125MOL   H26837716   5.139   5.983   7.799  2.0920  1.3834  2.7810
  125MOL   H26937717   5.132   5.735   7.701 -1.7119  0.7098  2.5060
  125MOL   H27037718   5.185   5.744   7.870 -1.1355  1.2393  0.2429
  125MOL   H27137719   5.305   5.737   7.755  0.0021 -1.6319  2.7621
  125MOL   C27237720   5.311   6.156   7.407  0.0835 -0.2028  0.0915
  125MOL   C27337721   5.378   6.266   7.493 -0.3296 -0.2926  0.3556
  125MOL   C27437722   5.296   6.395   7.488  0.4404  0.3727  0.3116
  125MOL   O27537723   5.239   6.424   7.589  0.0247 -0.0207  0.2867
  125MOL   O27637724   5.305   6.465   7.380  0.2469  0.3007  0.3420
  125MOL   C27737725   5.237   6.587   7.369 -0.1315  0.2406  0.0271
  125MOL   C27837726   5.345   6.695   7.366 -0.0350 -0.6148 -1.5999
  125MOL   H27937727   5.330   6.180   7.303  0.0375  1.8821  0.5536
  125MOL   H28037728   5.202   6.161   7.409  0.1400  0.8503  1.0761
  125MOL   H28137729   5.387   6.248   7.600  2.2267 -1.5566 -0.0271
  125MOL   H28237730   5.188   6.602   7.273 -1.1492  0.8183  0.6332
  125MOL   H28337731   5.180   6.621   7.455  2.3603 -1.2602  2.3447
  125MOL   H28437732   5.425   6.668   7.297  0.4387  0.4994 -1.4929
  125MOL   H28537733   5.389   6.711   7.464  1.8895  2.1357 -2.8494
  125MOL   H28637734   5.291   6.785   7.338 -2.6075 -1.2579  1.0426
  125MOL   C28737735   5.531   6.284   7.463 -0.6096 -0.2320  0.1205
  125MOL   C28837736   5.586   6.391   7.566  0.7337  0.7847  0.4053
  125MOL   C28937737   5.732   6.404   7.575  0.9300  0.0734 -0.7359
  125MOL   O29037738   5.810   6.309   7.575  0.5629 -0.0086  0.0222
  125MOL   O29137739   5.777   6.530   7.595 -0.1734 -0.0267 -0.3348
  125MOL   C29237740   5.912   6.548   7.624  0.1079 -0.1017  0.6680
  125MOL   C29337741   5.953   6.688   7.586 -0.3371 -0.3926  0.2568
  125MOL   H29437742   5.584   6.190   7.476 -2.3840 -1.2629  0.0994
  125MOL   H29537743   5.552   6.328   7.366  0.8112  1.6624  1.2346
  125MOL   H29637744   5.531   6.482   7.545  0.5727  0.8066  0.9171
  125MOL   H29737745   5.927   6.523   7.729 -0.3330 -4.0343 -0.1300
  125MOL   H29837746   5.974   6.473   7.575  0.7641 -0.9656  2.7463
  125MOL   H29937747   6.047   6.710   7.636 -1.7698  0.1935  2.7863
  125MOL   H30037748   5.878   6.763   7.612 -0.8592 -0.5930 -0.6384
  125MOL   H30137749   5.959   6.713   7.480  1.1915 -2.1574 -0.1083
  125MOL   H30237750   5.552   6.361   7.665  0.4692 -1.2141 -0.2616
  126MOL     C137751   3.064   0.485   1.454  0.0429  0.7151  0.1400
  126MOL     C237752   3.134   0.384   1.353 -0.4766  0.3071 -0.4506
  126MOL     C337753   3.040   0.272   1.311 -0.1342 -0.3717  0.1775
  126MOL     O437754   3.040   0.237   1.197 -0.1843  0.4320  0.0573
  126MOL     O537755   2.981   0.217   1.418 -1.0533 -0.1414  0.7522
  126MOL     C637756   2.904   0.099   1.399  0.2764 -0.3920  0.0022
  126MOL     C737757   2.978   7.887   1.448  0.3191 -0.8355 -0.1200
  126MOL     H837758   3.052   0.447   1.556 -1.3613  3.2864  1.0039
  126MOL     H937759   2.964   0.505   1.415 -0.4875 -1.2563  0.4033
  126MOL    H1037760   3.155   0.419   1.252 -1.3230 -1.2789 -1.1934
  126MOL    H1137761   2.809   0.110   1.451  0.7523  1.1649  0.5588
  126MOL    H1237762   2.877   0.083   1.294  0.1182 -2.8192  0.3869
  126MOL    H1337763   2.956   7.888   1.555 -0.8769 -0.5035 -0.3548
  126MOL    H1437764   3.084   7.892   1.423  0.5921 -1.4324  0.9257
  126MOL    H1537765   2.935   7.797   1.404  0.6486 -1.0427 -0.0185
  126MOL    H1637766   3.122   0.578   1.456  0.0925  0.6781  0.4382
  126MOL    C1737767   3.270   0.320   1.401  0.1328 -0.7308 -0.0067
  126MOL    C1837768   3.376   0.296   1.287  0.4440  0.1916  0.5753
  126MOL    C1937769   3.463   0.181   1.324  0.1490  0.1819 -0.6195
  126MOL    O2037770   3.483   0.150   1.444 -0.2552  0.3578 -0.1823
  126MOL    O2137771   3.522   0.128   1.222  0.8483  0.3852  0.6681
  126MOL    C2237772   3.597   0.012   1.232  0.0307  0.4892 -0.3391
  126MOL    C2337773   3.535   7.785   1.198 -0.0267 -0.0134 -0.4161
  126MOL    H2437774   3.317   0.373   1.483 -0.9996  3.2614 -1.8099
  126MOL    H2537775   3.232   0.230   1.449 -1.2262  0.1403  0.5821
  126MOL    H2637776   3.331   0.270   1.191  1.5695 -1.3505  0.4535
  126MOL    H2737777   3.685   0.019   1.167 -0.4462 -0.6727 -1.1292
  126MOL    H2837778   3.638   0.000   1.332  1.1565  0.9112 -0.7382
  126MOL    H2937779   3.445   7.778   1.259  0.6894  4.0956  1.2393
  126MOL    H3037780   3.611   7.711   1.224  0.1934  0.6829  0.9443
  126MOL    H3137781   3.513   7.781   1.091 -0.6060  3.4704 -0.4695
  126MOL    C3237782   3.464   0.431   1.279  0.0983 -0.3773 -0.2154
  126MOL    C3337783   3.580   0.440   1.175  0.0791 -0.6775 -0.1810
  126MOL    C3437784   3.719   0.431   1.242 -0.3338  0.4748 -0.1883
  126MOL    O3537785   3.809   0.513   1.213  0.8777  0.2031  0.4302
  126MOL    O3637786   3.736   0.313   1.318 -0.0312 -0.4184  0.1268
  126MOL    C3737787   3.853   0.294   1.387  0.0244  0.1011  0.0818
  126MOL    C3837788   3.885   0.146   1.397 -0.2403 -0.3796 -0.1915
  126MOL    H3937789   3.389   0.507   1.261  2.0798  1.7656  0.3882
  126MOL    H4037790   3.499   0.458   1.378  1.5207 -0.6337 -0.6418
  126MOL    H4137791   3.573   0.360   1.102  0.5649 -1.0399  0.1623
  126MOL    H4237792   3.931   0.346   1.331 -0.2048 -0.1095 -0.4378
  126MOL    H4337793   3.853   0.334   1.488  1.0182 -2.3284  1.1061
  126MOL    H4437794   3.804   0.091   1.446 -2.1555  2.5220  0.0630
  126MOL    H4537795   3.975   0.111   1.447 -1.1957 -0.2373  1.7120
  126MOL    H4637796   3.899   0.107   1.296 -0.2392 -0.4959 -0.1463
  126MOL    C4737797   3.566   0.569   1.097 -0.2700 -0.0625 -0.2754
  126MOL    C4837798   3.446   0.575   1.001  0.5151  0.1860  0.2024
  126MOL    C4937799   3.481   0.498   0.872  0.2100 -0.1043  0.3029
  126MOL    O5037800   3.437   0.379   0.858  0.1736  0.1532 -0.3628
  126MOL    O5137801   3.554   0.566   0.773 -0.4175  0.0469  0.3257
  126MOL    C5237802   3.606   0.487   0.668  1.1090 -0.0105 -0.3905
  126MOL    C5337803   3.736   0.548   0.616 -0.2830  0.1825  0.2360
  126MOL    H5437804   3.563   0.658   1.160  0.1255  0.2733 -0.7334
  126MOL    H5537805   3.650   0.592   1.031 -0.0034  0.6766  0.3146
  126MOL    H5637806   3.363   0.526   1.052 -0.5295  2.5856  0.8894
  126MOL    H5737807   3.620   0.381   0.689 -3.1888 -0.4607  0.6156
  126MOL    H5837808   3.543   0.492   0.580  0.6253 -1.9874 -0.1679
  126MOL    H5937809   3.752   0.519   0.513 -1.8569  1.6701 -0.4680
  126MOL    H6037810   3.811   0.506   0.683  0.4848 -1.5292 -1.6611
  126MOL    H6137811   3.746   0.656   0.609  1.1710 -0.0536 -1.6544
  126MOL    C6237812   3.396   0.721   0.968 -0.0679 -0.0253 -0.2894
  126MOL    C6337813   3.283   0.772   1.061  1.1569 -0.0887  0.2481
  126MOL    C6437814   3.157   0.679   1.058 -0.4268  0.6938 -0.6538
  126MOL    O6537815   3.074   0.683   1.144  0.4312  0.0987 -0.6792
  126MOL    O6637816   3.150   0.606   0.945 -0.4036 -0.0819 -0.5465
  126MOL    C6737817   3.064   0.496   0.934  0.0042 -0.2414 -0.3750
  126MOL    C6837818   3.082   0.440   0.795  0.6976 -0.2893  1.0598
  126MOL    H6937819   3.481   0.787   0.981  0.0401 -0.3442  0.6723
  126MOL    H7037820   3.364   0.729   0.864  2.1666 -0.5528 -1.0356
  126MOL    H7137821   3.323   0.770   1.163 -0.1516  0.8029  0.7952
  126MOL    H7237822   3.078   0.417   1.007  0.4180  0.8896  0.8009
  126MOL    H7337823   2.961   0.525   0.950  0.5587  1.1853  0.7688
  126MOL    H7437824   3.066   0.505   0.709  0.0729 -0.5645  0.9669
  126MOL    H7537825   3.026   0.348   0.778  0.0774  0.5982 -2.0283
  126MOL    H7637826   3.186   0.411   0.783  0.7658  0.2530  0.3103
  126MOL    C7737827   3.243   0.916   1.033 -0.3195 -0.1988  0.3661
  126MOL    C7837828   3.161   0.984   1.145  0.0262 -1.1267  0.6466
  126MOL    C7937829   3.113   1.126   1.096  0.2007 -0.2187  0.0193
  126MOL    O8037830   2.993   1.159   1.073 -0.4721  0.0867 -0.0612
  126MOL    O8137831   3.218   1.211   1.109 -0.0975 -0.6007  0.2186
  126MOL    C8237832   3.201   1.355   1.109  0.3851 -0.6296  0.8073
  126MOL    C8337833   3.318   1.434   1.047 -0.0812 -1.0364  0.5005
  126MOL    H8437834   3.335   0.969   1.008 -0.5532 -0.0567 -0.1949
  126MOL    H8537835   3.189   0.914   0.938 -0.3175 -0.2452  0.3663
  126MOL    H8637836   3.066   0.931   1.158  0.2391 -1.6980 -0.0994
  126MOL    H8737837   3.107   1.372   1.059  1.3005  0.7548 -0.4875
  126MOL    H8837838   3.192   1.384   1.214  0.1612 -0.1028  0.6435
  126MOL    H8937839   3.410   1.391   1.087  1.5679  0.5603 -1.4956
  126MOL    H9037840   3.309   1.539   1.071 -2.3775 -0.1447 -3.7638
  126MOL    H9137841   3.318   1.424   0.938 -0.4372 -2.9676  0.6483
  126MOL    C9237842   3.223   0.996   1.288  0.2684  0.0425  0.6373
  126MOL    C9337843   3.126   1.035   1.399  0.1228 -0.4677  0.6683
  126MOL    C9437844   3.213   1.086   1.517  0.1603 -0.5659 -0.2799
  126MOL    O9537845   3.271   1.000   1.590  0.6911  0.2723 -0.6211
  126MOL    O9637846   3.218   1.222   1.516 -0.4754  0.0670  0.1724
  126MOL    C9737847   3.296   1.294   1.608  1.4698 -0.1068  0.0475
  126MOL    C9837848   3.231   1.433   1.642 -0.1720  0.3942 -0.9761
  126MOL    H9937849   3.266   0.901   1.318  2.9435  1.0462  0.1271
  126MOL   H10037850   3.299   1.074   1.290  0.2379  0.0498  1.9893
  126MOL   H10137851   3.065   1.119   1.366 -1.5171 -1.3033  1.5153
  126MOL   H10237852   3.317   1.248   1.705 -1.2542  0.7485  1.0833
  126MOL   H10337853   3.389   1.311   1.553  2.0646 -0.4352  0.9376
  126MOL   H10437854   3.282   1.505   1.706 -0.6836  2.2140 -2.5388
  126MOL   H10537855   3.139   1.413   1.697  1.1650  1.1608  1.6155
  126MOL   H10637856   3.215   1.493   1.552  1.1608  0.8735 -0.9085
  126MOL   C10737857   3.023   0.917   1.450 -0.7003  0.6516  0.5135
  126MOL   C10837858   2.877   0.959   1.494 -0.2189 -0.4956 -0.3391
  126MOL   C10937859   2.805   1.013   1.377 -0.1848 -0.2607 -0.6861
  126MOL   O11037860   2.763   1.127   1.371  0.5946  0.3678 -0.0416
  126MOL   O11137861   2.780   0.915   1.286 -0.4188 -0.3312  0.0118
  126MOL   C11237862   2.708   0.948   1.169  0.3093  0.3158  0.1811
  126MOL   C11337863   2.558   0.937   1.196 -0.7228 -0.4349  0.1195
  126MOL   H11437864   3.020   0.841   1.372 -1.7675  0.0770  1.0950
  126MOL   H11537865   3.070   0.851   1.522 -2.4860  0.3726  1.4433
  126MOL   H11637866   2.813   0.874   1.516  0.4963 -1.6545 -2.6458
  126MOL   H11737867   2.727   1.050   1.135 -0.2951 -0.0754 -1.3835
  126MOL   H11837868   2.752   0.890   1.088 -1.8746  1.4211 -1.8696
  126MOL   H11937869   2.523   1.004   1.274  3.0840  0.6277  1.0430
  126MOL   H12037870   2.529   0.836   1.221  0.1970 -0.8467 -0.4379
  126MOL   H12137871   2.509   0.962   1.102  2.7790  1.3442 -1.3424
  126MOL   C12237872   2.879   1.053   1.620 -0.6191 -0.3389  0.3596
  126MOL   C12337873   2.741   1.094   1.672  0.2165 -0.3618 -0.3752
  126MOL   C12437874   2.733   1.237   1.733  0.2517  0.0727  0.1486
  126MOL   O12537875   2.665   1.318   1.680 -0.1691  0.4182  0.1309
  126MOL   O12637876   2.808   1.255   1.846  0.3540  0.3846  0.0188
  126MOL   C12737877   2.810   1.394   1.883 -0.2122 -0.1557 -0.5139
  126MOL   C12837878   2.890   1.411   2.014  0.4804  0.2832  0.0642
  126MOL   H12937879   2.932   0.996   1.697 -2.4462 -1.0861  1.0818
  126MOL   H13037880   2.936   1.145   1.604 -0.5269  0.0973  3.0419
  126MOL   H13137881   2.672   1.097   1.587 -0.4699  1.7854  0.2168
  126MOL   H13237882   2.855   1.460   1.810 -1.0573  0.4421 -0.5107
  126MOL   H13337883   2.707   1.432   1.885 -0.3121 -0.4528  0.1893
  126MOL   H13437884   2.863   1.329   2.081 -1.9185 -0.7301 -2.0711
  126MOL   H13537885   2.867   1.502   2.069  0.4274  0.2333  0.1243
  126MOL   H13637886   2.997   1.413   1.989  0.1599  0.3159 -1.3487
  126MOL   C13737887   2.690   0.978   1.766  0.7163 -0.1568  0.4436
  126MOL   C13837888   2.540   0.931   1.756  0.1684  0.2963 -0.0238
  126MOL   C13937889   2.525   0.861   1.621  0.2272  0.8466  0.0959
  126MOL   O14037890   2.443   0.904   1.541  0.1367  0.0945  0.5467
  126MOL   O14137891   2.607   0.752   1.599 -0.1432  0.1050  0.2527
  126MOL   C14237892   2.591   0.660   1.494 -0.0571  0.1546 -0.0592
  126MOL   C14337893   2.701   0.554   1.491 -0.4954 -0.0063 -0.2087
  126MOL   H14437894   2.749   0.889   1.743  0.6836 -0.2816  0.8437
  126MOL   H14537895   2.721   1.007   1.866  0.4805  1.4849  0.0619
  126MOL   H14637896   2.527   0.846   1.822 -0.8820  0.0407 -0.5340
  126MOL   H14737897   2.492   0.618   1.514  1.1132 -1.2122  3.3333
  126MOL   H14837898   2.591   0.708   1.397  2.0420  0.6008  0.1506
  126MOL   H14937899   2.700   0.494   1.582  1.4335 -0.1595 -0.2866
  126MOL   H15037900   2.795   0.606   1.477 -0.6368  0.2693 -0.1365
  126MOL   H15137901   2.683   0.485   1.408 -0.2256  0.1915 -0.4310
  126MOL   C15237902   2.439   1.040   1.795 -0.2098 -0.5370 -0.1325
  126MOL   C15337903   2.312   0.992   1.845  0.5652 -0.6601  0.4910
  126MOL   C15437904   2.189   1.013   1.760  0.5702 -0.3432  0.3066
  126MOL   O15537905   2.120   0.917   1.716  0.5327  0.1401 -0.0242
  126MOL   O15637906   2.162   1.144   1.726 -0.2746  0.5714  0.4968
  126MOL   C15737907   2.051   1.164   1.651  0.5015  0.3508  0.5760
  126MOL   C15837908   2.019   1.315   1.642 -0.2301  0.0655  0.1459
  126MOL   H15937909   2.489   1.109   1.863 -0.4488 -1.3739  0.8952
  126MOL   H16037910   2.423   1.103   1.707 -0.5178  0.2322  0.4669
  126MOL   H16137911   2.312   0.884   1.859 -1.9279 -0.6332  0.9448
  126MOL   H16237912   2.071   1.134   1.548 -1.4510 -1.4073  0.6885
  126MOL   H16337913   1.969   1.109   1.696  2.0692 -1.4631  1.2774
  126MOL   H16437914   2.090   1.377   1.588 -0.2142 -1.2516 -1.3685
  126MOL   H16537915   2.021   1.361   1.741 -1.8567 -0.9870  0.6819
  126MOL   H16637916   1.923   1.320   1.591  1.1410 -1.5637 -2.7009
  126MOL   C16737917   2.280   1.056   1.980  0.4475 -0.0975 -0.1623
  126MOL   C16837918   2.367   1.017   2.104 -0.8424  0.2546  0.6864
  126MOL   C16937919   2.418   0.871   2.082  0.3583 -0.2448 -0.1077
  126MOL   O17037920   2.540   0.848   2.075  0.6297  0.3794  0.4122
  126MOL   O17137921   2.320   0.779   2.073  0.0161 -0.6964  0.1356
  126MOL   C17237922   2.350   0.646   2.031  0.2813 -0.2506  0.2495
  126MOL   C17337923   2.260   0.605   1.910  0.2438  0.0690  0.1667
  126MOL   H17437924   2.283   1.165   1.973  0.2409 -0.1314 -0.7800
  126MOL   H17537925   2.179   1.026   2.007  0.3903  1.2850  1.2455
  126MOL   H17637926   2.447   1.091   2.103 -0.8392  0.2668  1.6578
  126MOL   H17737927   2.457   0.633   2.011  0.0413  1.0409 -2.0686
  126MOL   H17837928   2.329   0.582   2.116 -0.4455 -2.1993 -1.3541
  126MOL   H17937929   2.154   0.594   1.932  0.4404  0.9816  1.5999
  126MOL   H18037930   2.296   0.511   1.868  1.1259  1.0748 -1.4089
  126MOL   H18137931   2.271   0.679   1.830  0.1804 -1.0122 -0.8615
  126MOL   C18237932   2.292   1.030   2.237 -0.4872 -0.1983  0.3816
  126MOL   C18337933   2.246   1.179   2.269  1.1089  0.8212  0.3870
  126MOL   C18437934   2.366   1.268   2.304  0.0052 -0.7885 -0.3113
  126MOL   O18537935   2.391   1.302   2.419 -0.2552  0.2834 -0.1710
  126MOL   O18637936   2.430   1.313   2.190 -0.5027  0.3416 -0.3719
  126MOL   C18737937   2.552   1.388   2.188 -0.2946 -0.2583 -0.1913
  126MOL   C18837938   2.520   1.541   2.195  0.3476  0.4337  0.5642
  126MOL   H18937939   2.205   0.964   2.239 -1.1021  0.6226  1.4867
  126MOL   H19037940   2.365   1.008   2.315 -0.9927 -1.2289  0.5678
  126MOL   H19137941   2.210   1.213   2.172 -0.8483  1.3143  1.2613
  126MOL   H19237942   2.625   1.364   2.265  0.1200  0.0274 -0.4935
  126MOL   H19337943   2.607   1.384   2.094 -1.4633  0.3332 -0.9200
  126MOL   H19437944   2.486   1.576   2.292 -0.3134  0.9217  0.1579
  126MOL   H19537945   2.435   1.561   2.130 -0.8341 -1.0048  1.6200
  126MOL   H19637946   2.606   1.594   2.153  0.5103 -0.0235  0.3149
  126MOL   C19737947   2.121   1.184   2.373  0.0055 -0.2566  0.0821
  126MOL   C19837948   2.021   1.296   2.351 -0.1764  0.3903  0.4586
  126MOL   C19937949   1.923   1.308   2.467 -0.1664 -0.2771  0.6638
  126MOL   O20037950   1.930   1.232   2.565 -0.0338  0.4794  0.0522
  126MOL   O20137951   1.834   1.408   2.460 -0.3964 -0.3472  0.1453
  126MOL   C20237952   1.751   1.443   2.574  0.3232  0.3633 -0.3151
  126MOL   C20337953   1.722   1.591   2.577 -0.1062 -0.0028  0.1419
  126MOL   H20437954   2.081   1.084   2.387 -1.3836  0.4619  1.3449
  126MOL   H20537955   2.159   1.198   2.474  0.3026  1.1552 -0.2115
  126MOL   H20637956   2.081   1.387   2.354  1.5499 -0.7385  1.0290
  126MOL   H20737957   1.666   1.375   2.575  1.5964 -1.2816 -0.9241
  126MOL   H20837958   1.825   1.429   2.653 -2.0780 -1.6771  1.6483
  126MOL   H20937959   1.645   1.617   2.505  0.3455  0.4606 -0.1735
  126MOL   H21037960   1.811   1.652   2.563  0.1420 -0.2974  0.4315
  126MOL   H21137961   1.680   1.625   2.672  1.1353  0.1790  0.6403
  126MOL   C21237962   1.948   1.265   2.217 -0.0552 -0.2858  0.1254
  126MOL   C21337963   1.901   1.385   2.136 -0.2503  0.3479  0.0734
  126MOL   C21437964   1.801   1.337   2.026 -0.4243 -0.1390  0.2365
  126MOL   O21537965   1.834   1.353   1.905  0.0409  0.4558 -0.1157
  126MOL   O21637966   1.674   1.288   2.068 -0.0839  0.0393 -0.0918
  126MOL   C21737967   1.576   1.256   1.978  0.2036 -0.3795  0.7809
  126MOL   C21837968   1.453   1.201   2.053 -0.5341 -0.1089  0.4051
  126MOL   H21937969   2.011   1.206   2.150 -1.4011  1.1791 -2.4824
  126MOL   H22037970   1.868   1.194   2.238  1.8051 -2.7068 -0.6680
  126MOL   H22137971   1.844   1.451   2.201  0.8706  2.5389 -1.0824
  126MOL   H22237972   1.548   1.339   1.913 -2.2323 -1.7838 -0.0728
  126MOL   H22337973   1.609   1.183   1.903 -3.6291 -0.2776 -1.1684
  126MOL   H22437974   1.369   1.197   1.984  2.2984 -0.0930 -3.1736
  126MOL   H22537975   1.430   1.259   2.142  0.2134 -0.6120  0.9305
  126MOL   H22637976   1.480   1.102   2.091  1.4578  0.4227  0.3760
  126MOL   C22737977   2.012   1.476   2.076  0.4308  0.5074  0.3232
  126MOL   C22837978   1.960   1.607   2.010  0.0056  0.6295  0.3635
  126MOL   C22937979   2.062   1.684   1.921 -0.2632  0.3158 -0.3530
  126MOL   O23037980   2.182   1.653   1.927  0.0873  0.1982  0.3763
  126MOL   O23137981   2.002   1.774   1.842  0.0994  0.3949 -0.5530
  126MOL   C23237982   2.078   1.855   1.760  0.2786 -0.2745  0.4235
  126MOL   C23337983   2.071   1.803   1.618 -0.1792 -0.1846 -0.2043
  126MOL   H23437984   2.100   1.489   2.139 -0.1539  1.2744  1.0047
  126MOL   H23537985   2.048   1.417   1.992  0.2554  0.2428  0.4343
  126MOL   H23637986   1.874   1.585   1.947  0.2969 -1.4380  0.6440
  126MOL   H23737987   2.031   1.953   1.772  1.6453  0.6868 -1.7532
  126MOL   H23837988   2.183   1.862   1.790  0.8569 -1.5584 -1.1892
  126MOL   H23937989   2.134   1.859   1.550  1.9601 -1.0239  1.0275
  126MOL   H24037990   1.971   1.791   1.577 -0.1653 -1.9583  0.2214
  126MOL   H24137991   2.105   1.699   1.613 -3.6102 -1.2842 -2.7072
  126MOL   C24237992   1.906   1.719   2.106  0.7558 -0.2984 -0.3525
  126MOL   C24337993   1.769   1.790   2.075  0.6507 -0.1701 -0.7061
  126MOL   C24437994   1.779   1.943   2.089 -0.4475 -0.1918 -0.6903
  126MOL   O24537995   1.729   2.001   2.183 -0.1271 -0.1401 -0.0563
  126MOL   O24637996   1.850   2.000   1.989  0.6711  0.0092  0.4509
  126MOL   C24737997   1.851   2.139   1.994 -0.5872  0.0624 -0.1175
  126MOL   C24837998   1.903   2.195   1.861  0.1829  0.0785 -0.5581
  126MOL   H24937999   1.894   1.662   2.199 -1.1344  2.2599  1.0120
  126MOL   H25038000   1.978   1.797   2.130 -0.3676  0.3516  0.9472
  126MOL   H25138001   1.759   1.775   1.967 -1.0175 -1.6348 -0.3538
  126MOL   H25238002   1.752   2.185   2.000 -0.1209  0.8922  1.4173
  126MOL   H25338003   1.927   2.174   2.064 -0.4185 -1.4684  0.4646
  126MOL   H25438004   1.988   2.134   1.830 -0.1258 -0.8689  0.4014
  126MOL   H25538005   1.926   2.301   1.855  1.4999 -0.1285  0.4311
  126MOL   H25638006   1.827   2.177   1.785  2.2387  0.2418 -2.6965
  126MOL   C25738007   1.661   1.719   2.158  0.3902  0.0051  0.6930
  126MOL   C25838008   1.514   1.737   2.103 -0.2739  0.1836 -0.7928
  126MOL   C25938009   1.397   1.705   2.201 -0.6084  0.1902  0.5234
  126MOL   O26038010   1.301   1.779   2.222 -0.3133 -0.0447  0.4538
  126MOL   O26138011   1.430   1.589   2.271 -0.2352  0.6178  0.3569
  126MOL   C26238012   1.347   1.547   2.378  0.1144 -0.2024 -0.4605
  126MOL   C26338013   1.371   1.397   2.413  0.1044 -0.7146 -0.3386
  126MOL   H26438014   1.680   1.612   2.166  0.6006 -0.0065  0.0794
  126MOL   H26538015   1.656   1.751   2.262 -0.8077 -1.2743  1.0426
  126MOL   H26638016   1.511   1.842   2.071  1.8729 -0.0489 -1.9016
  126MOL   H26738017   1.351   1.610   2.466  0.2318 -2.7246  1.4034
  126MOL   H26838018   1.244   1.573   2.350 -0.9333 -2.7379  0.8412
  126MOL   H26938019   1.282   1.372   2.470 -1.2229  1.6564 -1.3062
  126MOL   H27038020   1.453   1.381   2.484 -2.3201 -1.2763  2.4392
  126MOL   H27138021   1.386   1.325   2.333  0.6820  1.4949 -2.2445
  126MOL   C27238022   1.506   1.651   1.975 -0.4284  0.3295 -0.0323
  126MOL   C27338023   1.441   1.716   1.853  1.1755 -0.1013 -0.3180
  126MOL   C27438024   1.287   1.718   1.853 -0.5998 -0.0367 -0.9544
  126MOL   O27538025   1.223   1.815   1.809 -0.0694 -0.2983 -0.5922
  126MOL   O27638026   1.232   1.599   1.890  0.3895  0.4306 -0.3231
  126MOL   C27738027   1.093   1.578   1.904 -0.1713  0.7524  0.1355
  126MOL   C27838028   1.080   1.439   1.977 -0.5902  0.2199 -0.0473
  126MOL   H27938029   1.600   1.604   1.947 -0.8281 -0.7237  0.3944
  126MOL   H28038030   1.446   1.563   2.000 -1.7463  1.7985  2.1954
  126MOL   H28138031   1.468   1.821   1.861  0.4569 -0.0243  1.1782
  126MOL   H28238032   1.053   1.665   1.957 -1.2089  0.6851 -0.5117
  126MOL   H28338033   1.041   1.574   1.808 -0.3371 -1.3732  0.2811
  126MOL   H28438034   0.994   1.444   2.044 -0.7909 -0.1290 -0.2778
  126MOL   H28538035   1.165   1.421   2.042 -0.9468 -0.6279  0.1960
  126MOL   H28638036   1.068   1.346   1.922 -1.1182  0.0686  0.3183
  126MOL   C28738037   1.496   1.670   1.713  0.8257 -0.6663 -0.0022
  126MOL   C28838038   1.647   1.709   1.696 -0.0686  0.5488  0.2793
  126MOL   C28938039   1.667   1.856   1.663  1.0486  0.0295 -0.7983
  126MOL   O29038040   1.665   1.937   1.755  0.4196 -0.0687  0.4068
  126MOL   O29138041   1.672   1.879   1.534 -0.3320 -0.2405 -0.4184
  126MOL   C29238042   1.651   2.008   1.483  0.0566 -0.3807 -0.1503
  126MOL   C29338043   1.779   2.094   1.477 -0.7981  0.1059 -0.3792
  126MOL   H29438044   1.486   1.563   1.697 -2.2437 -0.1995 -1.5186
  126MOL   H29538045   1.432   1.719   1.641  0.6598 -0.1857  0.4655
  126MOL   H29638046   1.701   1.679   1.785 -1.3418  1.3800  1.3500
  126MOL   H29738047   1.642   1.989   1.376  0.9438  0.4737 -0.3896
  126MOL   H29838048   1.583   2.067   1.544  1.1240  0.5622  0.1561
  126MOL   H29938049   1.854   2.048   1.413  0.5482 -0.6211  1.6708
  126MOL   H30038050   1.821   2.118   1.575 -0.6016 -0.2610 -0.3765
  126MOL   H30138051   1.760   2.186   1.420 -1.6790 -0.1497 -0.5027
  126MOL   H30238052   1.691   1.655   1.612 -1.0312  0.7795 -0.3794
  127MOL     C138053   6.882   7.445   7.561 -0.0671 -0.7060 -0.1608
  127MOL     C238054   6.930   7.591   7.546  0.3620  0.1641  0.0727
  127MOL     C338055   7.012   7.605   7.418  0.2479 -1.0200 -0.3032
  127MOL     O438056   7.132   7.636   7.419  0.4037 -0.3063  0.3561
  127MOL     O538057   6.948   7.574   7.310 -0.1503 -0.1476  0.2904
  127MOL     C638058   7.016   7.566   7.177  0.0857  0.2804  0.0400
  127MOL     C738059   7.020   7.418   7.128 -0.0384 -0.4564  0.2006
  127MOL     H838060   6.791   7.437   7.621 -0.0570 -3.5361 -0.4605
  127MOL     H938061   6.955   7.390   7.619  1.0732  2.7039  1.7999
  127MOL    H1038062   6.848   7.656   7.515  0.1985  0.6900  1.5902
  127MOL    H1138063   6.955   7.629   7.112 -1.8100  0.0945  1.5957
  127MOL    H1238064   7.117   7.607   7.187  0.4176 -0.7665  1.2166
  127MOL    H1338065   7.090   7.374   7.200  1.2615 -0.1684 -0.8691
  127MOL    H1438066   7.055   7.410   7.025  0.8200 -0.5677  0.4912
  127MOL    H1538067   6.927   7.363   7.119  0.5619 -1.0151 -3.3252
  127MOL    H1638068   6.861   7.404   7.462 -0.1910 -0.2229 -0.3384
  127MOL    C1738069   6.983   7.662   7.667 -0.0212  0.0378  0.1231
  127MOL    C1838070   6.885   7.685   7.785 -0.4330  0.2310 -0.0987
  127MOL    C1938071   6.824   7.827   7.785 -0.1318 -0.8007  0.4058
  127MOL    O2038072   6.819   7.894   7.890 -0.3784  0.4472  0.0491
  127MOL    O2138073   6.769   7.859   7.662 -0.1241  0.3687  0.0376
  127MOL    C2238074   6.666   0.051   7.646  0.3766  0.5744  0.1451
  127MOL    C2338075   6.567   7.899   7.550  0.2451  0.3817 -0.3258
  127MOL    H2438076   7.073   7.612   7.704  2.0336  1.7785 -2.3102
  127MOL    H2538077   7.024   7.757   7.632 -1.4814  0.8075  0.4556
  127MOL    H2638078   6.791   7.635   7.759 -1.3418  1.1674  1.3386
  127MOL    H2738079   6.623   0.087   7.739  0.2233 -1.9258  1.0701
  127MOL    H2838080   6.710   0.136   7.594 -1.3852  0.5991 -1.3553
  127MOL    H2938081   6.473   0.046   7.548 -0.2632 -0.3510  2.2434
  127MOL    H3038082   6.540   7.799   7.581  2.5524  0.6757  2.8812
  127MOL    H3138083   6.618   7.888   7.454  0.5521  1.7886 -0.3351
  127MOL    C3238084   6.935   7.635   0.015 -0.7949  0.0290  0.1517
  127MOL    C3338085   7.071   7.678   0.065  0.2088 -0.7363  0.2613
  127MOL    C3438086   7.163   7.558   0.086  0.8769  0.6817  0.0513
  127MOL    O3538087   7.265   7.552   0.013 -0.0177  0.6158 -0.1264
  127MOL    O3638088   7.129   7.468   0.189 -0.0859 -0.0183  0.1663
  127MOL    C3738089   7.209   7.350   0.202  0.0184  0.6206  0.0704
  127MOL    C3838090   7.184   7.257   0.326 -0.4694 -0.7446 -0.3078
  127MOL    H3938091   6.859   7.663   0.088 -1.0536 -0.2802  0.0037
  127MOL    H4038092   6.937   7.526   0.014  0.8965  0.0032  2.0449
  127MOL    H4138093   7.122   7.746   7.905  1.3976  1.7381  3.5090
  127MOL    H4238094   7.196   7.294   0.110 -0.7744 -0.2354  0.6940
  127MOL    H4338095   7.316   7.359   0.187 -0.2665  1.3091 -1.7388
  127MOL    H4438096   7.224   7.295   0.419 -0.0510 -0.0692 -0.7612
  127MOL    H4538097   7.236   7.162   0.315  0.2103 -0.2408 -1.5873
  127MOL    H4638098   7.079   7.241   0.350 -0.8678  2.5402  0.2979
  127MOL    C4738099   7.042   7.763   0.192 -0.3718 -0.4180  0.6689
  127MOL    C4838100   7.166   7.816   0.256 -0.1173  0.0516  0.1012
  127MOL    C4938101   7.132   7.858   0.401  0.5011 -0.0752  1.2375
  127MOL    O5038102   7.162   7.785   0.499  0.2592 -0.2273 -0.0884
  127MOL    O5138103   7.071   0.065   0.402  0.3902 -0.0593 -0.3495
  127MOL    C5238104   7.035   0.122   0.527 -1.2031  0.2001 -0.0700
  127MOL    C5338105   7.107   0.257   0.546 -0.2182 -0.6681  0.6766
  127MOL    H5438106   6.994   7.854   0.157  1.6118  0.7112  0.8390
  127MOL    H5538107   6.971   7.703   0.250  0.5978 -1.5674  0.6799
  127MOL    H5638108   7.241   7.738   0.265  0.1566  0.3790  0.6975
  127MOL    H5738109   6.931   0.153   0.528 -0.3888  3.2955 -3.2864
  127MOL    H5838110   7.053   0.069   0.621  1.7804  0.8461 -0.2204
  127MOL    H5938111   7.063   0.336   0.485  0.1994 -1.1233 -0.2333
  127MOL    H6038112   7.211   0.234   0.520 -0.6509 -0.7241 -1.0967
  127MOL    H6138113   7.096   0.287   0.650 -2.9328 -0.4815  0.3701
  127MOL    C6238114   7.247   0.012   0.172  0.7508  0.5243  0.3948
  127MOL    C6338115   7.404   0.001   0.168 -0.4279  0.8156 -1.0053
  127MOL    C6438116   7.466   0.086   0.283  0.2523  0.0252  0.2383
  127MOL    O6538117   7.452   0.059   0.403  0.0652  0.7949  0.2760
  127MOL    O6638118   7.515   0.207   0.246 -0.7282  0.3303  0.0791
  127MOL    C6738119   7.564   0.296   0.351  0.3906  0.0736 -0.3184
  127MOL    C6838120   7.626   0.412   0.266  0.0479  0.8048  0.4018
  127MOL    H6938121   7.218   0.006   0.067  1.8365  0.1211  0.1085
  127MOL    H7038122   7.219   0.113   0.202  0.1868  0.7355 -0.7892
  127MOL    H7138123   7.433   7.805   0.183 -1.9193 -0.0295 -3.6443
  127MOL    H7238124   7.475   0.331   0.404  1.9748  2.1519  1.0309
  127MOL    H7338125   7.627   0.253   0.428  2.0007  0.8257 -1.1946
  127MOL    H7438126   7.716   0.375   0.217  0.4712 -0.7867  2.2942
  127MOL    H7538127   7.667   0.491   0.330  0.2337  1.8783 -1.0001
  127MOL    H7638128   7.554   0.465   0.205  0.5167  1.2767  0.2522
  127MOL    C7738129   7.460   0.034   0.027  0.3443  0.1229 -0.1722
  127MOL    C7838130   7.617   0.011   0.002 -0.2662  0.1068  0.1097
  127MOL    C7938131   7.673   0.085   7.781 -0.4328 -0.3511 -1.0317
  127MOL    O8038132   7.640   0.042   7.671 -0.1491  0.4436 -0.5811
  127MOL    O8138133   7.734   0.205   7.807 -0.4386  0.5116  0.3090
  127MOL    C8238134   7.798   0.272   7.695  0.3044 -0.1724  0.2294
  127MOL    C8338135   7.857   0.407   7.721 -0.0105  0.1734 -0.3085
  127MOL    H8438136   7.395   7.882   7.872  0.5109  0.5575 -0.7584
  127MOL    H8538137   7.434   0.137   0.001  2.7041  0.9462  0.6143
  127MOL    H8638138   7.664   0.052   0.092 -1.0863 -0.6636  0.9023
  127MOL    H8738139   7.875   0.201   7.663  0.3138  1.0655 -2.6053
  127MOL    H8838140   7.741   0.280   7.603  1.6840 -1.7755 -0.7870
  127MOL    H8938141   7.908   0.444   7.632 -0.5828 -1.4476 -1.3243
  127MOL    H9038142   0.031   0.394   7.792  0.5363 -0.0435 -0.9820
  127MOL    H9138143   7.780   0.473   7.762  1.7348  2.2033 -0.2097
  127MOL    C9238144   7.648   7.763   7.907 -0.3065 -0.1856  0.5190
  127MOL    C9338145   7.777   7.709   0.071  0.3321  0.6194 -0.2445
  127MOL    C9438146   7.896   7.797   0.038 -0.0314 -0.3046 -0.3960
  127MOL    O9538147   0.030   7.808   7.833  0.0959 -0.1357 -0.2225
  127MOL    O9638148   0.034   7.861   0.144  0.1834 -0.1808 -0.1105
  127MOL    C9738149   0.140   0.044   0.146 -0.3165  0.4380  0.2325
  127MOL    C9838150   0.077   0.183   0.158  0.3400  0.5803 -0.7145
  127MOL    H9938151   7.569   7.716   0.057 -1.2760  1.9675  0.9876
  127MOL   H10038152   7.638   7.715   7.810 -1.0997  0.0865  0.4607
  127MOL   H10138153   7.768   7.699   0.180  0.1855 -4.1915 -0.6002
  127MOL   H10238154   0.217   0.032   0.223 -0.4310 -1.7549  0.0477
  127MOL   H10338155   0.190   0.023   0.051  0.8012 -1.7738  1.2560
  127MOL   H10438156   0.011   0.218   0.078  1.2436  0.4720 -1.5229
  127MOL   H10538157   0.154   0.260   0.164 -0.1300  1.0298 -0.4240
  127MOL   H10638158   0.024   0.174   0.252 -0.6595  0.0543 -1.3263
  127MOL   C10738159   7.800   7.561   0.034  0.3974  0.0621 -0.0614
  127MOL   C10838160   7.688   7.460   0.054  0.4135  0.2680 -0.5600
  127MOL   C10938161   7.644   7.446   0.200 -0.4309  0.2762 -0.4822
  127MOL   O11038162   7.686   7.360   0.273  0.2685 -0.7196  0.1203
  127MOL   O11138163   7.548   7.534   0.236  0.2369  0.6811 -0.4663
  127MOL   C11238164   7.477   7.522   0.360 -0.2481 -0.4528  1.1383
  127MOL   C11338165   7.545   7.593   0.475 -0.0893  0.6402 -0.1196
  127MOL   H11438166   7.827   7.563   7.837  1.4905 -0.5957  0.1919
  127MOL   H11538167   7.897   7.525   0.069  0.0364 -0.5632  0.3073
  127MOL   H11638168   7.604   7.495   7.902  0.7451 -0.3933 -1.4266
  127MOL   H11738169   7.376   7.555   0.337  0.3768  0.6863 -0.0175
  127MOL   H11838170   7.474   7.416   0.385  1.6891 -1.1042 -1.2733
  127MOL   H11938171   7.570   7.695   0.448  2.6579 -0.1617 -0.7220
  127MOL   H12038172   7.632   7.529   0.492  1.0702  1.3718 -3.0364
  127MOL   H12138173   7.491   7.598   0.570 -1.0088  0.7627 -0.6397
  127MOL   C12238174   7.740   7.327   7.899  0.0439 -0.1262  0.0125
  127MOL   C12338175   7.639   7.197   7.897  0.5168 -0.1938 -0.1959
  127MOL   C12438176   7.708   7.069   7.863 -0.0114 -0.6298  0.2665
  127MOL   O12538177   7.719   6.983   0.039  0.6435  0.2866  0.1825
  127MOL   O12638178   7.757   7.075   7.737 -0.8393  0.2630 -0.3378
  127MOL   C12738179   7.830   6.966   7.677  0.4104 -0.4211  0.0734
  127MOL   C12838180   7.742   6.902   7.565  0.0218  0.8024 -1.0843
  127MOL   H12938181   7.789   7.337   7.803  1.0049 -0.5908  0.4502
  127MOL   H13038182   7.820   7.293   0.057 -0.3898  0.1611  0.6925
  127MOL   H13138183   7.602   7.187   0.091  1.7867  1.5879  0.4693
  127MOL   H13238184   0.002   7.025   7.633  1.7432 -1.8464  0.5516
  127MOL   H13338185   7.875   6.904   7.755 -1.2841 -1.2586  0.4100
  127MOL   H13438186   7.663   6.972   7.538 -0.4348  0.2081 -1.2988
  127MOL   H13538187   7.689   6.823   7.619  0.8143 -0.0100 -1.4820
  127MOL   H13638188   7.807   6.876   7.481  1.2132 -0.1461  0.0881
  127MOL   C13738189   7.515   7.233   7.816  0.2973 -0.2910 -0.1728
  127MOL   C13838190   7.417   7.124   7.772  0.3074  0.3321  0.3531
  127MOL   C13938191   7.315   7.179   7.676  0.3801  0.1711  0.0376
  127MOL   O14038192   7.192   7.154   7.692  0.1852  0.4323 -0.5677
  127MOL   O14138193   7.368   7.253   7.570  0.1774 -0.3446  0.2051
  127MOL   C14238194   7.267   7.294   7.474  0.1932 -0.5700  0.0305
  127MOL   C14338195   7.331   7.364   7.357 -0.0204  0.2329 -0.3977
  127MOL   H14438196   7.460   7.316   7.861 -1.2304 -0.4873 -1.6245
  127MOL   H14538197   7.549   7.289   7.728  4.7803 -1.6610  0.5673
  127MOL   H14638198   7.473   7.054   7.710 -0.2164 -0.4128  0.7132
  127MOL   H14738199   7.216   7.201   7.446 -1.1334  0.3847 -0.7875
  127MOL   H14838200   7.188   7.361   7.508 -0.6047 -1.4880  0.0111
  127MOL   H14938201   7.272   7.455   7.341  0.4676  1.0443  2.1597
  127MOL   H15038202   7.317   7.289   7.280  0.9484  1.2976 -1.6247
  127MOL   H15138203   7.438   7.385   7.362 -0.1481  0.4829  1.7862
  127MOL   C15238204   7.354   7.061   7.897 -0.1979 -0.6987  0.3478
  127MOL   C15338205   7.303   6.916   7.878  0.4446  0.8896 -0.2276
  127MOL   C15438206   7.215   6.871   0.090 -0.2670  0.2555 -0.0557
  127MOL   O15538207   7.241   6.918   0.202  0.3501 -0.4183  0.2295
  127MOL   O15638208   7.119   6.776   0.057 -0.3887 -0.2197 -0.2313
  127MOL   C15738209   7.088   6.679   0.161  0.1082  0.4737  0.1289
  127MOL   C15838210   7.192   6.564   0.163 -0.0257 -0.2032  0.6433
  127MOL   H15938211   7.419   7.063   0.077  0.6808  2.0933 -0.3136
  127MOL   H16038212   7.274   7.123   0.030 -0.5736 -0.7444 -0.3033
  127MOL   H16138213   7.245   6.900   7.786 -0.4445 -0.0673  0.4883
  127MOL   H16238214   7.094   6.718   0.263 -1.3300 -0.4777  0.5880
  127MOL   H16338215   6.982   6.654   0.158 -0.1656  1.2547  2.4243
  127MOL   H16438216   7.157   6.482   0.226  1.9576 -1.1848  0.5045
  127MOL   H16538217   7.297   6.587   0.181  0.5366 -1.5304 -0.9211
  127MOL   H16638218   7.204   6.521   0.064 -1.8541  0.2308  0.2101
  127MOL   C16738219   7.420   6.819   7.849 -0.0240  0.1807 -0.3185
  127MOL   C16838220   7.385   6.691   7.771 -0.4205 -0.1656 -0.3350
  127MOL   C16938221   7.478   6.580   7.813 -0.1575  0.0679 -0.4701
  127MOL   O17038222   7.435   6.491   7.893  0.4217 -0.3926  0.1478
  127MOL   O17138223   7.602   6.585   7.761 -0.4235 -0.5853 -0.1704
  127MOL   C17238224   7.694   6.478   7.783  0.3250 -0.5566  0.0838
  127MOL   C17338225   7.823   6.530   7.851 -0.5825 -0.4349  0.3991
  127MOL   H17438226   7.492   6.872   7.787 -0.5372 -0.2970 -1.3364
  127MOL   H17538227   7.473   6.793   0.032  1.7395 -0.9123 -1.6258
  127MOL   H17638228   7.284   6.666   7.802  0.4205 -1.9783  0.9934
  127MOL   H17738229   7.642   6.410   7.850  2.1101 -1.0012  1.0363
  127MOL   H17838230   7.701   6.432   7.685  0.7110 -1.6478  0.6194
  127MOL   H17938231   7.804   6.583   0.036 -0.6573 -0.5272  0.4350
  127MOL   H18038232   7.869   6.601   7.782 -2.1532  1.6746  1.4672
  127MOL   H18138233   7.894   6.449   7.867 -0.6979 -0.5622  0.2584
  127MOL   C18238234   7.391   6.715   7.617 -0.5815  0.1418  0.2230
  127MOL   C18338235   7.379   6.597   7.521  0.3220 -1.2382  0.4622
  127MOL   C18438236   7.377   6.639   7.369 -0.0553  0.5469 -0.1153
  127MOL   O18538237   7.345   6.747   7.329  0.1961 -0.2907 -0.2532
  127MOL   O18638238   7.414   6.530   7.285  0.0789 -0.6095 -0.1727
  127MOL   C18738239   7.414   6.552   7.143 -0.3321 -0.0272 -0.3773
  127MOL   C18838240   7.408   6.416   7.082 -0.0751 -0.2722  0.0374
  127MOL   H18938241   7.306   6.782   7.605  0.6214  2.0524  2.0736
  127MOL   H19038242   7.487   6.755   7.586 -0.4240 -0.5130 -0.1464
  127MOL   H19138243   7.472   6.542   7.534 -0.0032 -1.6597  1.0401
  127MOL   H19238244   7.327   6.607   7.108 -0.2019  0.4434  0.0297
  127MOL   H19338245   7.502   6.611   7.116  0.5208  0.0290  2.3589
  127MOL   H19438246   7.393   6.430   6.975 -0.0805  2.0352  0.3207
  127MOL   H19538247   7.317   6.365   7.113  0.5749 -1.7321 -0.4290
  127MOL   H19638248   7.489   6.347   7.105  0.0895 -0.6734 -1.6563
  127MOL   C19738249   7.250   6.510   7.547  0.4252 -0.1993 -0.1884
  127MOL   C19838250   7.261   6.378   7.621 -0.0072  0.0204  0.1208
  127MOL   C19938251   7.371   6.290   7.563 -0.6278 -0.1673  0.4500
  127MOL   O20038252   7.473   6.258   7.615 -0.3800 -0.1785 -0.2109
  127MOL   O20138253   7.338   6.240   7.450  0.1837  0.7722 -0.3714
  127MOL   C20238254   7.431   6.154   7.373  0.4524 -0.1831 -0.0264
  127MOL   C20338255   7.402   6.005   7.402 -0.4223  0.3923  0.2114
  127MOL   H20438256   7.177   6.569   7.603  0.3022 -0.4329 -0.1044
  127MOL   H20538257   7.197   6.490   7.454  2.3204  0.6354 -1.4907
  127MOL   H20638258   7.302   6.392   7.721 -1.6282  1.6802  0.5673
  127MOL   H20738259   7.422   6.179   7.267 -1.0441  0.9169  0.3430
  127MOL   H20838260   7.534   6.178   7.402  0.5273  1.0304 -1.2517
  127MOL   H20938261   7.387   5.980   7.507 -2.2931  0.0596 -0.1076
  127MOL   H21038262   7.473   5.934   7.361 -1.2852 -0.0612 -0.5013
  127MOL   H21138263   7.307   5.979   7.355 -0.1657 -0.6729  0.2775
  127MOL   C21238264   7.127   6.299   7.627 -0.0051 -0.4903  0.2026
  127MOL   C21338265   7.062   6.297   7.766 -0.6363  0.3665  0.1747
  127MOL   C21438266   7.117   6.188   7.858  0.4684  0.0550  0.4405
  127MOL   O21538267   7.115   6.203   0.074 -0.2303  0.4960  0.5846
  127MOL   O21638268   7.168   6.072   7.787 -0.1336 -0.8907  0.2396
  127MOL   C21738269   7.209   5.968   7.868  0.5582  0.0708  0.0831
  127MOL   C21838270   7.102   5.855   7.874 -0.0534 -0.2147  0.4183
  127MOL   H21938271   7.053   6.349   7.565  1.5493  2.2261  0.4319
  127MOL   H22038272   7.121   6.202   7.578 -1.5605  0.3502 -1.3259
  127MOL   H22138273   7.080   6.399   7.802 -1.3310  0.7612 -0.5936
  127MOL   H22238274   7.303   5.935   7.823  0.1993  0.1838 -0.7735
  127MOL   H22338275   7.231   5.994   0.063 -0.0201 -1.5052  0.6244
  127MOL   H22438276   7.151   5.769   0.011  1.0813 -0.2933 -0.8861
  127MOL   H22538277   7.066   5.823   7.776 -2.8823  1.7533  0.7467
  127MOL   H22638278   7.023   5.895   0.029 -0.9265  1.3541 -1.5921
  127MOL   C22738279   6.903   6.284   7.756 -0.0394  0.1891 -0.2130
  127MOL   C22838280   6.821   6.409   7.694 -0.1586  0.5344 -0.8643
  127MOL   C22938281   6.827   6.533   7.786 -0.3902  0.5273  0.1185
  127MOL   O23038282   6.841   6.528   0.000  0.2731 -0.1279  0.0671
  127MOL   O23138283   6.814   6.647   7.712 -0.3167 -0.4080 -0.4530
  127MOL   C23238284   6.802   6.769   7.787  0.3059 -0.0438 -0.2728
  127MOL   C23338285   6.797   6.892   7.695 -0.1634  0.1316  0.3052
  127MOL   H23438286   6.896   6.196   7.692  1.4044 -0.2156  0.1489
  127MOL   H23538287   6.866   6.244   7.850 -0.9670 -0.5762 -0.9055
  127MOL   H23638288   6.865   6.431   7.597  0.8951  0.3563 -0.4417
  127MOL   H23738289   6.708   6.767   7.842  0.3710 -1.9616 -0.2247
  127MOL   H23838290   6.888   6.782   7.853  0.0032 -0.4642  0.2018
  127MOL   H23938291   6.816   6.984   7.750  0.1997  1.0277 -1.3075
  127MOL   H24038292   6.703   6.904   7.641  0.7584  0.4101 -1.2540
  127MOL   H24138293   6.880   6.888   7.625 -0.5612  1.0804 -0.2240
  127MOL   C24238294   6.676   6.378   7.656 -0.3031  0.8399  0.6636
  127MOL   C24338295   6.620   6.468   7.541  0.5284  0.5707 -0.3132
  127MOL   C24438296   6.463   6.474   7.544 -0.6740  0.9012 -0.3868
  127MOL   O24538297   6.412   6.580   7.588  0.0422  0.2537 -0.1610
  127MOL   O24638298   6.399   6.357   7.522 -0.2656  0.5528  0.0905
  127MOL   C24738299   6.254   6.367   7.536 -0.1315  0.6606 -0.5798
  127MOL   C24838300   6.198   6.226   7.518  0.1416  0.5229 -0.5317
  127MOL   H24938301   6.677   6.276   7.619 -1.6397  1.1376 -0.1915
  127MOL   H25038302   6.611   6.382   7.743 -2.6085 -1.3949 -0.9212
  127MOL   H25138303   6.639   6.575   7.554 -3.4323  1.0941  2.0198
  127MOL   H25238304   6.230   6.416   7.631  0.6469  1.8241 -0.9668
  127MOL   H25338305   6.219   6.438   7.460  2.5547  0.5221 -2.0048
  127MOL   H25438306   6.251   6.155   7.581 -1.5724 -1.2249 -1.0066
  127MOL   H25538307   6.183   6.191   7.416  0.2679  1.2404 -0.8006
  127MOL   H25638308   6.099   6.233   7.563  0.8765 -1.9818  1.5815
  127MOL   C25738309   6.681   6.438   7.403  0.5152  0.2616  0.8099
  127MOL   C25838310   6.697   6.559   7.305  0.7321 -0.5831 -0.2191
  127MOL   C25938311   6.819   6.649   7.342 -0.3308  0.0335  0.4729
  127MOL   O26038312   6.907   6.610   7.421  0.6852 -0.9290 -0.4357
  127MOL   O26138313   6.832   6.769   7.278 -0.1104  0.0371 -0.4485
  127MOL   C26238314   6.935   6.857   7.311  0.1953 -0.4051  0.3398
  127MOL   C26338315   6.899   6.999   7.289 -0.4799 -0.6823  0.1197
  127MOL   H26438316   6.782   6.401   7.415  0.5149  0.7283  2.4019
  127MOL   H26538317   6.623   6.358   7.356 -1.4265  0.8552  2.1144
  127MOL   H26638318   6.723   6.504   7.215 -0.1649 -0.9151 -0.2801
  127MOL   H26738319   6.955   6.845   7.418  0.3338  3.3156  0.7797
  127MOL   H26838320   7.024   6.836   7.252  1.1423 -1.2145  1.9961
  127MOL   H26938321   6.878   7.011   7.182  1.7564 -1.0942 -0.3979
  127MOL   H27038322   6.981   7.070   7.300 -2.2412  1.4583 -0.4079
  127MOL   H27138323   6.812   7.023   7.349  1.4209  2.1090  1.8504
  127MOL   C27238324   6.569   6.645   7.284  0.0716 -0.0389 -0.3584
  127MOL   C27338325   6.570   6.709   7.139 -0.0304  0.1682  0.5625
  127MOL   C27438326   6.496   6.844   7.145 -0.3640  0.0722 -0.0362
  127MOL   O27538327   6.551   6.950   7.135 -0.0814 -0.0712  0.6643
  127MOL   O27638328   6.363   6.823   7.162  0.3167  0.1218  0.0798
  127MOL   C27738329   6.270   6.934   7.170 -0.5096 -0.0020 -0.0813
  127MOL   C27838330   6.257   6.984   7.313 -0.4130 -0.4746  0.9226
  127MOL   H27938331   6.486   6.574   7.286 -1.8436  2.1456  0.0749
  127MOL   H28038332   6.554   6.728   7.353 -0.3734  1.2211 -1.9475
  127MOL   H28138333   6.666   6.740   7.099 -1.0113 -0.2551 -2.2873
  127MOL   H28238334   6.290   7.018   7.105 -0.0584 -0.7617 -0.9277
  127MOL   H28338335   6.176   6.891   7.133 -0.5255  0.0816 -0.1379
  127MOL   H28438336   6.213   6.905   7.374 -1.0369 -2.1674 -1.6709
  127MOL   H28538337   6.199   7.077   7.307 -1.3274 -1.1881 -2.1190
  127MOL   H28638338   6.354   7.012   7.353  0.2287 -1.1667 -0.1609
  127MOL   C28738339   6.512   6.615   7.032 -0.3612  0.2479 -0.0867
  127MOL   C28838340   6.529   6.660   6.887 -0.2338 -0.2385 -0.6597
  127MOL   C28938341   6.540   6.557   6.779 -0.0340 -0.8509 -0.6461
  127MOL   O29038342   6.524   6.439   6.793  0.4651 -0.1688 -0.8306
  127MOL   O29138343   6.572   6.615   6.660  0.4478 -0.2307 -0.0259
  127MOL   C29238344   6.590   6.527   6.552  0.3053  0.0776  0.2946
  127MOL   C29338345   6.743   6.502   6.545  0.7696  0.5615  0.0736
  127MOL   H29438346   6.559   6.519   7.049 -2.7296 -0.9979 -0.3484
  127MOL   H29538347   6.408   6.593   7.058  0.1348 -0.8281  1.0090
  127MOL   H29638348   6.452   6.731   6.858 -0.1401  0.6052  1.0687
  127MOL   H29738349   6.528   6.438   6.548  0.9553 -0.3482 -0.4702
  127MOL   H29838350   6.570   6.575   6.456  1.3811  0.3572  0.2017
  127MOL   H29938351   6.769   6.448   6.636  0.0757  2.2081  1.2714
  127MOL   H30038352   6.792   6.599   6.535 -1.4443  1.5420 -1.8683
  127MOL   H30138353   6.768   6.432   6.466 -4.0292 -1.0618 -0.1554
  127MOL   H30238354   6.617   6.719   6.864  0.2835 -0.6186  0.3084
  128MOL     C138355   2.756   1.074   2.230 -0.1388  0.4140  0.3085
  128MOL     C238356   2.805   1.038   2.370 -0.3917 -0.0841 -0.5598
  128MOL     C338357   2.809   0.886   2.377 -0.1310  0.5205 -1.1229
  128MOL     O438358   2.714   0.820   2.418 -0.3662 -0.0107 -0.1026
  128MOL     O538359   2.930   0.842   2.335  0.0893 -0.4443  0.0503
  128MOL     C638360   2.967   0.709   2.301  0.6891  0.3967  0.4036
  128MOL     C738361   2.998   0.638   2.431 -0.6655 -0.2991  0.3256
  128MOL     H838362   2.751   1.182   2.225 -0.2225  0.4792  1.6041
  128MOL     H938363   2.654   1.038   2.217 -0.3447  1.9948 -2.7209
  128MOL    H1038364   2.907   1.075   2.383 -0.6209 -0.1355  1.5507
  128MOL    H1138365   2.878   0.663   2.257  1.1064 -0.9001  0.9136
  128MOL    H1238366   3.045   0.713   2.225 -1.0773  0.8255 -1.4494
  128MOL    H1338367   2.922   0.649   2.508 -1.3407 -2.7503  0.0717
  128MOL    H1438368   3.090   0.683   2.466 -0.3702 -2.3443  2.2827
  128MOL    H1538369   3.004   0.530   2.417  0.3496  0.0036 -1.7615
  128MOL    H1638370   2.825   1.051   2.149  1.5461  3.0476  0.9610
  128MOL    C1738371   2.717   1.102   2.476 -0.5700 -0.1076 -0.1593
  128MOL    C1838372   2.766   1.084   2.622 -0.3519 -0.0331  0.0811
  128MOL    C1938373   2.648   1.046   2.711  0.4555  0.4172 -0.1497
  128MOL    O2038374   2.624   1.119   2.809  0.1168 -0.1825  0.1777
  128MOL    O2138375   2.579   0.943   2.671  0.1282 -0.2410 -0.0153
  128MOL    C2238376   2.447   0.924   2.722 -0.2634 -0.0198  0.7616
  128MOL    C2338377   2.347   0.951   2.605 -0.1086  0.0659 -0.3376
  128MOL    H2438378   2.697   1.207   2.456  0.9984  0.3526  0.6113
  128MOL    H2538379   2.618   1.061   2.456 -0.7731  0.6882 -0.7893
  128MOL    H2638380   2.837   1.003   2.637  0.9429  1.2668  1.1358
  128MOL    H2738381   2.435   0.820   2.754 -3.8773  0.0189 -0.2426
  128MOL    H2838382   2.427   0.985   2.811  1.0508  0.9755  0.3872
  128MOL    H2938383   2.382   0.911   2.510 -1.0427  1.8795 -1.4699
  128MOL    H3038384   2.348   1.059   2.590  1.3242 -0.0376 -1.1545
  128MOL    H3138385   2.241   0.930   2.616 -0.1423  0.5254  0.1955
  128MOL    C3238386   2.837   1.212   2.668 -0.9718  0.3118 -0.7899
  128MOL    C3338387   2.978   1.240   2.600  0.7902  0.5491 -0.4295
  128MOL    C3438388   3.085   1.127   2.630  0.0581  0.0554  0.7262
  128MOL    O3538389   3.106   1.079   2.741  0.3612  0.7156 -0.1464
  128MOL    O3638390   3.139   1.081   2.521 -0.0238  0.3470  0.4740
  128MOL    C3738391   3.222   0.964   2.532  0.2186  0.4147  0.0022
  128MOL    C3838392   3.273   0.938   2.399  0.3262 -0.6884 -0.3842
  128MOL    H3938393   2.765   1.294   2.661  0.6884  1.8183 -0.4730
  128MOL    H4038394   2.852   1.205   2.776 -2.0806 -1.2422 -0.7105
  128MOL    H4138395   2.960   1.231   2.493  0.7090  1.5345 -0.5018
  128MOL    H4238396   3.302   1.000   2.598 -0.1207 -0.6621  1.0248
  128MOL    H4338397   3.180   0.875   2.577  0.0826  0.8411  0.7403
  128MOL    H4438398   3.354   0.865   2.404  0.0453 -0.8164  4.2214
  128MOL    H4538399   3.319   1.030   2.364 -1.6994  0.3048 -0.4959
  128MOL    H4638400   3.191   0.901   2.339 -1.9245  0.6414  1.7815
  128MOL    C4738401   3.028   1.380   2.638 -0.2259  0.2930  0.4982
  128MOL    C4838402   3.026   1.487   2.525  0.4758  0.3552 -0.3149
  128MOL    C4938403   2.881   1.504   2.472 -0.1107  0.2273  0.0459
  128MOL    O5038404   2.847   1.471   2.366  0.4254  0.5847  0.4180
  128MOL    O5138405   2.813   1.552   2.571  0.6356 -0.8060 -0.4196
  128MOL    C5238406   2.678   1.600   2.561  0.0575 -0.4368  0.0104
  128MOL    C5338407   2.617   1.627   2.698  0.7097 -0.4326 -0.5988
  128MOL    H5438408   2.969   1.414   2.724  1.4239 -1.5984  2.4517
  128MOL    H5538409   3.129   1.385   2.677  0.7680 -2.3036 -1.6178
  128MOL    H5638410   3.042   1.582   2.576 -0.9885 -0.4319  1.6983
  128MOL    H5738411   2.681   1.690   2.501 -0.2426  1.3575  2.6226
  128MOL    H5838412   2.624   1.520   2.510  1.7220 -1.6576  0.1195
  128MOL    H5938413   2.600   1.529   2.743  4.0054 -1.0718 -0.6308
  128MOL    H6038414   2.520   1.677   2.700  0.5841 -0.6305 -1.4551
  128MOL    H6138415   2.693   1.669   2.764 -0.3356 -0.7035  0.7966
  128MOL    C6238416   3.128   1.468   2.409 -0.3050 -0.3629 -0.1329
  128MOL    C6338417   3.194   1.596   2.335 -0.1479  1.3585 -1.0273
  128MOL    C6438418   3.100   1.668   2.244  0.4239 -0.3686  0.3740
  128MOL    O6538419   3.085   1.636   2.126 -0.1313  0.0461 -0.1380
  128MOL    O6638420   3.021   1.743   2.324  0.0214  0.2464  0.1919
  128MOL    C6738421   2.913   1.812   2.270 -0.1747 -0.1105  0.2533
  128MOL    C6838422   2.936   1.965   2.268  0.2316  0.5751 -0.4762
  128MOL    H6938423   3.215   1.409   2.435  0.7339  1.7258  1.2859
  128MOL    H7038424   3.075   1.423   2.325 -1.1581 -0.6665  0.5573
  128MOL    H7138425   3.225   1.665   2.414  1.0490 -0.3136 -0.0066
  128MOL    H7238426   2.887   1.773   2.172  1.2402 -1.1864  0.2874
  128MOL    H7338427   2.840   1.792   2.349  0.2368 -0.8239  0.4630
  128MOL    H7438428   2.965   2.006   2.365  0.1229 -2.9689  1.1231
  128MOL    H7538429   2.848   2.020   2.234  0.7889  1.3083 -0.7337
  128MOL    H7638430   3.021   1.990   2.204 -0.4254 -1.6051 -2.2871
  128MOL    C7738431   3.333   1.554   2.262  0.7627 -0.7552 -0.3717
  128MOL    C7838432   3.443   1.507   2.365 -0.1429 -0.7044  0.2029
  128MOL    C7938433   3.520   1.630   2.407  0.4826  0.2378 -0.0632
  128MOL    O8038434   3.602   1.679   2.332  0.3996 -0.1745  0.3338
  128MOL    O8138435   3.484   1.674   2.527  0.4370 -0.0111  0.7345
  128MOL    C8238436   3.517   1.803   2.560 -0.5093  0.7911  0.1008
  128MOL    C8338437   3.445   1.862   2.687 -0.4115  0.4179 -0.0459
  128MOL    H8438438   3.302   1.465   2.207 -1.8326 -0.1746  0.0613
  128MOL    H8538439   3.368   1.632   2.195 -2.1517  1.3132  0.4222
  128MOL    H8638440   3.397   1.483   2.461  1.0873 -0.4695  0.8656
  128MOL    H8738441   3.626   1.793   2.566 -0.7983 -3.0953  0.2579
  128MOL    H8838442   3.484   1.873   2.483 -1.8445 -3.0142 -2.9226
  128MOL    H8938443   3.340   1.869   2.661  0.5779  1.3049 -4.1537
  128MOL    H9038444   3.476   1.966   2.698 -0.7801  0.3383  1.9065
  128MOL    H9138445   3.469   1.821   2.785 -2.3270  1.5971  0.9519
  128MOL    C9238446   3.534   1.399   2.320 -0.2449 -0.1051 -0.0742
  128MOL    C9338447   3.477   1.261   2.350 -0.1803 -0.4294  0.1352
  128MOL    C9438448   3.494   1.226   2.498 -0.5989  0.7333 -0.3876
  128MOL    O9538449   3.582   1.155   2.539  0.1435 -0.2746  0.4223
  128MOL    O9638450   3.403   1.282   2.584 -0.0057  0.1302  0.0512
  128MOL    C9738451   3.407   1.271   2.727 -1.0416  0.2167  0.2737
  128MOL    C9838452   3.468   1.391   2.795  0.1868 -0.4750 -0.7567
  128MOL    H9938453   3.556   1.401   2.213 -0.2582  0.5396 -0.0675
  128MOL   H10038454   3.632   1.405   2.367 -1.0804 -1.1939  1.8804
  128MOL   H10138455   3.369   1.261   2.339 -0.5085 -0.4424  2.9058
  128MOL   H10238456   3.303   1.264   2.761  0.1803  0.0613  4.2660
  128MOL   H10338457   3.461   1.183   2.762  0.6789  1.4193  0.6881
  128MOL   H10438458   3.461   1.387   2.904 -1.0997 -1.6956 -0.8698
  128MOL   H10538459   3.411   1.473   2.749  1.2917  0.3986 -0.5989
  128MOL   H10638460   3.574   1.408   2.777  0.1057  1.3990  0.3366
  128MOL   C10738461   3.535   1.161   2.247  0.1817 -0.0041  0.3471
  128MOL   C10838462   3.475   1.165   2.099 -0.9205  0.5400 -0.6255
  128MOL   C10938463   3.328   1.177   2.076  0.6779  0.0572  0.1900
  128MOL   O11038464   3.276   1.258   1.997  0.6549 -0.7420  0.7099
  128MOL   O11138465   3.260   1.078   2.139 -0.9686  0.2786  1.1302
  128MOL   C11238466   3.120   1.075   2.110 -0.1865  0.8518 -0.4545
  128MOL   C11338467   3.097   0.948   2.022  0.1747  0.3557 -0.0250
  128MOL   H11438468   3.644   1.170   2.238  0.1553 -1.0875 -1.2400
  128MOL   H11538469   3.518   1.057   2.276  0.6722 -0.6237 -1.5135
  128MOL   H11638470   3.520   1.255   2.056  1.1832 -0.3900 -0.4693
  128MOL   H11738471   3.065   1.049   2.201  0.1034 -3.0161 -1.3055
  128MOL   H11838472   3.073   1.161   2.062 -0.6047  0.4188 -0.8294
  128MOL   H11938473   3.175   0.936   1.947  1.1736 -0.2686  1.0925
  128MOL   H12038474   3.013   0.965   1.954  1.1967  0.9346 -1.1772
  128MOL   H12138475   3.083   0.857   2.079  0.2550  2.2648  3.1873
  128MOL   C12238476   3.528   1.058   2.013 -0.6943 -0.0349  0.0935
  128MOL   C12338477   3.525   1.079   1.858 -0.0699  0.1742 -0.2979
  128MOL   C12438478   3.575   0.950   1.791 -0.6297  0.4530 -0.1258
  128MOL   O12538479   3.615   0.856   1.852 -0.3808 -0.3621 -0.0888
  128MOL   O12638480   3.569   0.956   1.662 -0.4913 -0.5371  0.1298
  128MOL   C12738481   3.627   0.856   1.584  0.0911  0.0968 -0.2882
  128MOL   C12838482   3.542   0.825   1.456 -0.1770  0.0445 -0.3428
  128MOL   H12938483   3.630   1.038   2.047 -1.1471 -2.5804  0.0511
  128MOL   H13038484   3.479   0.968   2.050 -0.6272 -0.0665  0.1048
  128MOL   H13138485   3.419   1.087   1.838  0.2216  5.3541 -0.3631
  128MOL   H13238486   3.727   0.889   1.556  0.3181  0.6541  1.1689
  128MOL   H13338487   3.659   0.766   1.638  1.6280  0.7692 -0.0416
  128MOL   H13438488   3.511   0.916   1.405 -0.3387  0.7421  0.9671
  128MOL   H13538489   3.454   0.770   1.491  0.7028 -0.8842  0.4312
  128MOL   H13638490   3.595   0.760   1.387 -2.6460 -2.4432  0.0234
  128MOL   C13738491   3.591   1.203   1.794  0.1341  0.0207 -0.4461
  128MOL   C13838492   3.740   1.229   1.828 -1.0544 -0.0517 -0.3544
  128MOL   C13938493   3.764   1.311   1.959  0.3003 -0.7395  0.4062
  128MOL   O14038494   3.799   1.264   2.064 -0.2249 -0.3228  0.2210
  128MOL   O14138495   3.714   1.430   1.939  0.2845  0.2621  0.1525
  128MOL   C14238496   3.706   1.535   2.038  0.1919  0.0094 -0.1195
  128MOL   C14338497   3.820   1.618   2.003  1.1207  0.5691  0.1486
  128MOL   H14438498   3.578   1.219   1.687  1.7625 -2.5014 -1.0635
  128MOL   H14538499   3.525   1.281   1.832  1.4006  0.9843 -0.1967
  128MOL   H14638500   3.788   1.131   1.831 -0.1524  0.3334 -1.8074
  128MOL   H14738501   3.613   1.583   2.007  1.2804  1.0231 -1.9682
  128MOL   H14838502   3.717   1.507   2.142  0.0593  0.7203  0.0861
  128MOL   H14938503   3.919   1.573   1.997  0.5754 -0.6143 -0.0873
  128MOL   H15038504   3.827   1.702   2.072  1.5642  2.8924 -2.6385
  128MOL   H15138505   3.802   1.661   1.905 -1.6611 -2.0541 -0.5451
  128MOL   C15238506   3.809   1.322   1.720  0.8729  0.9283  0.6779
  128MOL   C15338507   3.848   1.243   1.598  0.6354  0.0953  0.4999
  128MOL   C15438508   3.963   1.144   1.612  0.0663 -0.1019  0.4184
  128MOL   O15538509   3.949   1.026   1.608 -0.6979  0.2442  0.4827
  128MOL   O15638510   4.077   1.203   1.646 -0.4338 -0.5369 -0.0540
  128MOL   C15738511   4.200   1.133   1.655  0.3432 -0.0825  0.1693
  128MOL   C15838512   4.263   1.124   1.518  0.0551 -0.1068 -0.3327
  128MOL   H15938513   3.752   1.414   1.707  1.2005  0.8947 -1.2578
  128MOL   H16038514   3.910   1.345   1.754  0.2452  1.2276  2.3655
  128MOL   H16138515   3.762   1.179   1.580 -0.5356  2.0458 -1.1315
  128MOL   H16238516   4.250   1.195   1.729  0.2033  0.6688 -0.3568
  128MOL   H16338517   4.186   1.036   1.702  1.6159 -0.2915  0.1160
  128MOL   H16438518   4.197   1.065   1.454 -2.1321  0.6344  1.1574
  128MOL   H16538519   4.355   1.066   1.518 -1.4955 -2.6648  1.0546
  128MOL   H16638520   4.267   1.224   1.475 -1.4592  1.3155  2.6347
  128MOL   C16738521   3.871   1.337   1.477  0.4726 -0.2068 -0.3250
  128MOL   C16838522   3.862   1.265   1.335 -0.0086  0.1165 -0.0851
  128MOL   C16938523   3.735   1.193   1.306  0.0948  0.6565  0.5257
  128MOL   O17038524   3.639   1.181   1.380  0.2615  0.0931  0.0535
  128MOL   O17138525   3.740   1.137   1.186  0.2295 -0.2140  0.2771
  128MOL   C17238526   3.633   1.079   1.117 -0.1695  0.5499  0.8404
  128MOL   C17338527   3.647   1.106   0.966 -0.2620 -0.3393  0.3849
  128MOL   H17438528   3.795   1.415   1.486  1.0002  0.0755  2.0047
  128MOL   H17538529   3.968   1.386   1.488  0.1938  0.6388 -1.5553
  128MOL   H17638530   3.839   1.345   1.264 -1.8883  3.0920  3.6401
  128MOL   H17738531   3.621   0.973   1.137 -1.9345  0.6051  0.2029
  128MOL   H17838532   3.540   1.122   1.156 -0.3069 -1.1044  2.4010
  128MOL   H17938533   3.611   1.208   0.956  2.0932  0.6056  1.4715
  128MOL   H18038534   3.586   1.030   0.917  0.9352 -2.5929  2.2855
  128MOL   H18138535   3.747   1.099   0.923  0.2169  0.0439  1.4383
  128MOL   C18238536   3.992   1.185   1.291  0.2124  0.0523 -0.3244
  128MOL   C18338537   4.044   1.229   1.149 -0.0871 -1.1077  0.0898
  128MOL   C18438538   4.123   1.127   1.070  0.3445  0.2768  0.0106
  128MOL   O18538539   4.086   1.104   0.957 -0.2891  0.5144 -0.5000
  128MOL   O18638540   4.236   1.073   1.127  0.6574 -0.0814  0.5813
  128MOL   C18738541   4.295   0.959   1.064  0.4551  0.4840  0.5799
  128MOL   C18838542   4.243   0.836   1.134 -0.4889  0.3476  0.1236
  128MOL   H18938543   4.069   1.206   1.365  0.2138  1.1303 -0.6221
  128MOL   H19038544   3.980   1.077   1.288  0.4219  0.0016  0.4702
  128MOL   H19138545   3.955   1.260   1.093 -0.4003  0.8329  1.6106
  128MOL   H19238546   4.281   0.968   0.956 -0.2529  2.4164  0.8042
  128MOL   H19338547   4.401   0.970   1.084  0.5064 -1.7038  1.7513
  128MOL   H19438548   4.230   0.855   1.240 -2.8064  0.0104 -0.0770
  128MOL   H19538549   4.310   0.753   1.111  1.7426  2.2367 -0.4261
  128MOL   H19638550   4.139   0.817   1.108 -0.0118 -0.9036 -0.8838
  128MOL   C19738551   4.142   1.353   1.168 -0.1747 -0.4887 -0.2309
  128MOL   C19838552   4.174   1.430   1.041  0.0569 -0.2690  0.0635
  128MOL   C19938553   4.313   1.486   1.036 -0.2839  0.2108  0.4943
  128MOL   O20038554   4.387   1.447   0.950 -0.1254  0.1123  0.2377
  128MOL   O20138555   4.333   1.557   1.148  0.3108  0.6075  0.2359
  128MOL   C20238556   4.464   1.604   1.182  0.1870  0.5773  0.1963
  128MOL   C20338557   4.481   1.749   1.149 -0.4184  0.6390 -0.0303
  128MOL   H20438558   4.101   1.421   1.243 -0.0392 -0.3961 -0.2414
  128MOL   H20538559   4.236   1.316   1.206 -0.1869 -2.1674 -1.7521
  128MOL   H20638560   4.168   1.355   0.963  2.7129 -0.4640 -0.0196
  128MOL   H20738561   4.481   1.597   1.290 -1.6442  1.2015  0.5481
  128MOL   H20838562   4.533   1.535   1.134 -2.6070 -1.1202 -1.4955
  128MOL   H20938563   4.578   1.778   1.188 -0.0850  0.8690 -1.0450
  128MOL   H21038564   4.400   1.807   1.194 -0.8510  0.4346 -0.5397
  128MOL   H21138565   4.483   1.746   1.040  1.7863  1.8943 -0.0332
  128MOL   C21238566   4.075   1.557   1.024 -0.1377 -0.1404 -0.4456
  128MOL   C21338567   4.044   1.589   0.878 -0.3673  0.2899 -0.2364
  128MOL   C21438568   4.145   1.672   0.813 -0.4728 -0.3692  0.4326
  128MOL   O21538569   4.158   1.792   0.833  0.0654  0.4896 -0.1393
  128MOL   O21638570   4.234   1.601   0.743 -0.8262 -0.0272  0.2195
  128MOL   C21738571   4.331   1.667   0.669  0.2838  0.2645 -0.2037
  128MOL   C21838572   4.384   1.574   0.560 -0.6658 -0.0940  0.0762
  128MOL   H21938573   3.985   1.528   1.077 -0.5860  1.5251 -0.2727
  128MOL   H22038574   4.110   1.648   1.074 -2.1194 -0.7552  2.1686
  128MOL   H22138575   4.047   1.492   0.829 -1.7378 -1.0699  2.2891
  128MOL   H22238576   4.284   1.749   0.615  1.2737  0.8916 -0.1274
  128MOL   H22338577   4.406   1.709   0.736  0.1465 -1.5078  1.1062
  128MOL   H22438578   4.442   1.490   0.597  0.5541 -0.0819 -1.7217
  128MOL   H22538579   4.445   1.623   0.483 -1.3073 -0.2110 -0.5092
  128MOL   H22638580   4.304   1.532   0.499 -0.7754  2.9189 -2.0052
  128MOL   C22738581   3.903   1.648   0.850  0.8171  0.6198  0.6487
  128MOL   C22838582   3.785   1.553   0.889  0.1288 -0.5165 -0.3248
  128MOL   C22938583   3.763   1.441   0.786  0.2630 -0.6826  0.6678
  128MOL   O23038584   3.778   1.320   0.819  0.1685 -0.7096 -0.8577
  128MOL   O23138585   3.723   1.490   0.662 -0.5177  0.1276  0.0232
  128MOL   C23238586   3.687   1.400   0.564 -0.1689  0.6796  0.5159
  128MOL   C23338587   3.536   1.381   0.580 -0.9374  0.1171  0.4258
  128MOL   H23438588   3.898   1.734   0.917  1.4094 -0.7529  2.4828
  128MOL   H23538589   3.897   1.675   0.745 -2.0100  0.4989  0.7283
  128MOL   H23638590   3.810   1.508   0.985 -0.8923  1.1819  0.7641
  128MOL   H23738591   3.689   1.447   0.465 -1.3773 -0.1355  0.0916
  128MOL   H23838592   3.753   1.313   0.560 -1.0329  0.0514 -0.3797
  128MOL   H23938593   3.480   1.475   0.582  2.1020  1.9572  2.7216
  128MOL   H24038594   3.511   1.348   0.681  0.4537 -0.2237  0.6704
  128MOL   H24138595   3.488   1.317   0.506 -1.7074  1.1264  0.0343
  128MOL   C24238596   3.659   1.636   0.919  0.0648 -0.2189  0.7946
  128MOL   C24338597   3.663   1.711   1.061 -0.3355 -0.8852  0.1240
  128MOL   C24438598   3.658   1.622   1.182  0.3796  0.0183  0.0903
  128MOL   O24538599   3.760   1.596   1.244  0.0282  0.0284  0.2460
  128MOL   O24638600   3.537   1.566   1.204  0.3479  0.1155  0.2106
  128MOL   C24738601   3.521   1.486   1.317 -0.1760  0.8601  0.2136
  128MOL   C24838602   3.496   1.581   1.436  0.0659  0.0805 -0.6218
  128MOL   H24938603   3.652   1.723   0.852  2.7683 -0.1178  0.5893
  128MOL   H25038604   3.577   1.566   0.935  0.0341 -0.2308  0.5946
  128MOL   H25138605   3.758   1.762   1.079 -0.8134 -0.3941  1.2896
  128MOL   H25238606   3.437   1.418   1.307  0.6333 -0.2448  0.8212
  128MOL   H25338607   3.609   1.424   1.336 -1.2154  0.0409  2.4846
  128MOL   H25438608   3.589   1.638   1.446 -1.6257  3.2458 -2.3713
  128MOL   H25538609   3.470   1.516   1.521 -1.0601  0.9691 -0.2824
  128MOL   H25638610   3.411   1.648   1.429 -0.5519 -0.3760  1.9933
  128MOL   C25738611   3.553   1.819   1.071 -0.2550  0.5169 -0.2226
  128MOL   C25838612   3.567   1.946   0.991  0.2329 -0.2198 -0.0767
  128MOL   C25938613   3.713   2.003   0.994 -0.2547 -0.6146  0.4082
  128MOL   O26038614   3.751   2.075   1.081  0.3459  0.1763 -0.0519
  128MOL   O26138615   3.792   1.969   0.885 -0.1642  0.3100 -0.1790
  128MOL   C26238616   3.915   2.033   0.862  0.0475  0.5918 -0.8792
  128MOL   C26338617   3.908   2.182   0.832  0.3671 -0.0690 -0.6935
  128MOL   H26438618   3.459   1.765   1.053 -0.4666  0.7997  0.0232
  128MOL   H26538619   3.548   1.850   1.176 -1.3554 -1.2704  0.2932
  128MOL   H26638620   3.544   1.903   0.893  0.1386  1.4726 -0.8014
  128MOL   H26738621   3.973   2.009   0.951  1.4657  2.8397 -1.1489
  128MOL   H26838622   3.962   1.980   0.779  3.9673 -1.6498  2.5535
  128MOL   H26938623   4.009   2.223   0.821  0.0102  0.9782 -0.1863
  128MOL   H27038624   3.876   2.240   0.918 -0.4989  1.3605 -1.9498
  128MOL   H27138625   3.840   2.212   0.752  0.1835  2.0375  0.2046
  128MOL   C27238626   3.456   2.043   1.033 -0.0103 -0.9617 -0.2496
  128MOL   C27338627   3.408   2.140   0.918  0.3967 -0.3455 -0.2494
  128MOL   C27438628   3.332   2.066   0.806 -0.1275 -1.0817  0.7487
  128MOL   O27538629   3.311   1.944   0.807  0.2009 -0.0627 -0.1495
  128MOL   O27638630   3.275   2.146   0.720  0.3981 -0.3224  0.0440
  128MOL   C27738631   3.209   2.081   0.609 -0.4512  0.2460 -0.0309
  128MOL   C27838632   3.059   2.077   0.613 -0.4349 -0.2557 -0.2568
  128MOL   H27938633   3.360   2.004   1.066 -0.4000  1.2477  1.3138
  128MOL   H28038634   3.485   2.116   1.108  1.7527 -0.3871 -1.4622
  128MOL   H28138635   3.325   2.197   0.958  1.2352  0.8772 -0.2107
  128MOL   H28238636   3.245   2.140   0.524 -0.5422 -0.0797 -0.2975
  128MOL   H28338637   3.243   1.978   0.596 -0.6076 -0.1201  2.1916
  128MOL   H28438638   3.012   2.175   0.628 -1.4711 -0.9881  1.5371
  128MOL   H28538639   3.032   2.008   0.693 -2.6847 -0.3367 -1.0363
  128MOL   H28638640   3.012   2.045   0.521 -0.4865  0.5646 -0.5230
  128MOL   C28738641   3.521   2.237   0.882  0.1249  0.0152  0.3201
  128MOL   C28838642   3.484   2.362   0.798  0.5134 -0.2914  0.7422
  128MOL   C28938643   3.611   2.432   0.754 -0.3374  0.0262 -0.2977
  128MOL   O29038644   3.668   2.411   0.646 -0.0957 -0.0722  0.4468
  128MOL   O29138645   3.657   2.511   0.844 -0.5796  0.0712 -0.5161
  128MOL   C29238646   3.782   2.574   0.823  0.2905 -0.9092 -0.3932
  128MOL   C29338647   3.861   2.580   0.956  0.7045 -0.3046  0.1664
  128MOL   H29438648   3.564   2.264   0.978 -1.1957 -1.3585  1.3230
  128MOL   H29538649   3.585   2.167   0.829 -0.8106 -2.5814  2.5383
  128MOL   H29638650   3.428   2.335   0.708  1.1015 -0.1783  0.3384
  128MOL   H29738651   3.839   2.529   0.741  0.9189 -0.3388 -0.2774
  128MOL   H29838652   3.763   2.676   0.791 -2.0565 -0.2666  2.8277
  128MOL   H29938653   3.959   2.626   0.943  1.1408 -1.6066 -1.4730
  128MOL   H30038654   3.871   2.483   1.005 -1.3255 -0.6497 -0.0770
  128MOL   H30138655   3.809   2.652   1.018  0.6337 -0.3305  0.1367
  128MOL   H30238656   3.416   2.427   0.854  1.0938  0.2414  0.8375
  129MOL     C138657   3.407   0.307   4.509 -0.4068  0.2662 -0.4772
  129MOL     C238658   3.393   0.198   4.410  0.0357  0.5676 -0.5513
  129MOL     C338659   3.513   0.102   4.419  0.0166  0.7266 -0.4896
  129MOL     O438660   3.510   7.887   4.424  0.5493  0.0321  0.3596
  129MOL     O538661   3.625   0.165   4.427 -0.4776  0.5103  0.2379
  129MOL     C638662   3.750   0.098   4.446  1.1187 -0.1242 -0.9053
  129MOL     C738663   3.844   0.139   4.335  1.3115 -0.4275 -0.1173
  129MOL     H838664   3.456   0.390   4.457  0.1734  0.2930  0.1012
  129MOL     H938665   3.479   0.288   4.588 -0.6018  1.8216  0.0927
  129MOL    H1038666   3.303   0.142   4.437  0.9869 -0.5512  0.3337
  129MOL    H1138667   3.800   0.119   4.540 -0.3903  2.3265 -0.6071
  129MOL    H1238668   3.741   7.898   4.446  1.1337 -0.1340 -2.1315
  129MOL    H1338669   3.875   0.243   4.343 -1.6610  0.6210 -1.4975
  129MOL    H1438670   3.806   0.122   4.234  1.3133  0.2758 -0.2408
  129MOL    H1538671   3.941   0.091   4.337  0.6004 -1.8616  0.4466
  129MOL    H1638672   3.312   0.337   4.554 -0.9523 -0.2507 -1.2661
  129MOL    C1738673   3.368   0.248   4.266 -0.1019 -0.7848 -0.2188
  129MOL    C1838674   3.248   0.344   4.237  0.4940  0.2894 -0.3226
  129MOL    C1938675   3.112   0.266   4.247 -0.0882  0.1316 -0.0098
  129MOL    O2038676   3.058   0.218   4.145  0.1579 -0.3457 -0.3052
  129MOL    O2138677   3.072   0.249   4.378 -0.7471 -0.2153  0.4997
  129MOL    C2238678   2.943   0.188   4.400  0.1135  0.0521 -0.2515
  129MOL    C2338679   2.912   0.202   4.544 -0.6659 -0.6944 -0.3798
  129MOL    H2438680   3.454   0.284   4.211  0.1955  0.6863  1.1912
  129MOL    H2538681   3.351   0.153   4.214 -0.8509  0.0024 -1.4469
  129MOL    H2638682   3.249   0.402   4.329  0.1218  1.2397 -0.9124
  129MOL    H2738683   2.866   0.240   4.343 -0.2915 -1.7870 -1.4169
  129MOL    H2838684   2.945   0.089   4.356 -0.4142 -1.1701  2.3991
  129MOL    H2938685   2.866   0.295   4.576 -0.7845 -1.4365  1.6848
  129MOL    H3038686   3.002   0.193   4.606  0.4539 -1.2216 -2.0557
  129MOL    H3138687   2.850   0.114   4.564 -3.0802  1.1249  0.2845
  129MOL    C3238688   3.268   0.434   4.112 -0.4560 -0.2634 -0.0122
  129MOL    C3338689   3.363   0.559   4.135 -0.3238 -0.8439 -0.6740
  129MOL    C3438690   3.317   0.653   4.248 -0.2074  0.4460 -0.1954
  129MOL    O3538691   3.353   0.639   4.366  0.4374  0.2086  0.2387
  129MOL    O3638692   3.241   0.752   4.197  0.1773 -0.7092  0.5442
  129MOL    C3738693   3.192   0.853   4.279 -0.2111 -0.3483  0.0624
  129MOL    C3838694   3.286   0.978   4.265 -0.7503  0.5419 -0.4968
  129MOL    H3938695   3.290   0.376   4.023  0.6926 -0.0036  0.0972
  129MOL    H4038696   3.178   0.491   4.087 -1.0081 -0.8870  0.5180
  129MOL    H4138697   3.443   0.513   4.193  0.4643  0.4688 -0.6958
  129MOL    H4238698   3.088   0.861   4.247  0.0630 -1.8975 -1.3099
  129MOL    H4338699   3.184   0.816   4.382  1.3577  0.8501  0.6405
  129MOL    H4438700   3.247   1.068   4.311  2.7629  1.5265  0.7128
  129MOL    H4538701   3.314   1.000   4.162  0.2329 -0.3442 -0.4303
  129MOL    H4638702   3.372   0.950   4.326 -3.0100 -2.6767  1.4172
  129MOL    C4738703   3.411   0.625   4.001 -0.0061 -0.0097 -0.5131
  129MOL    C4838704   3.497   0.534   3.910 -0.6050  0.0368 -0.3710
  129MOL    C4938705   3.633   0.505   3.975 -0.4520  0.2654 -0.2075
  129MOL    O5038706   3.671   0.389   3.980  0.4596  0.1621 -0.1749
  129MOL    O5138707   3.705   0.619   4.012 -0.2224  1.1513  0.1046
  129MOL    C5238708   3.827   0.600   4.087  0.5065  0.2411  0.2706
  129MOL    C5338709   3.947   0.581   3.997  0.0609 -0.0537  0.4996
  129MOL    H5438710   3.325   0.663   3.947 -0.2032 -0.4606 -0.5181
  129MOL    H5538711   3.478   0.708   4.022  0.2167 -0.1773 -0.5592
  129MOL    H5638712   3.454   0.434   3.900 -0.1244 -0.5180  2.4873
  129MOL    H5738713   3.835   0.672   4.168  1.7099  3.4795 -2.6041
  129MOL    H5838714   3.819   0.503   4.137 -1.3157  0.0117 -0.4247
  129MOL    H5938715   4.035   0.540   4.047  0.7923  0.0652 -0.6783
  129MOL    H6038716   3.978   0.674   3.949 -0.9978 -0.5409 -1.1749
  129MOL    H6138717   3.932   0.507   3.919 -0.0235 -0.9522  1.3724
  129MOL    C6238718   3.514   0.595   3.766  0.3173  0.3675 -0.3303
  129MOL    C6338719   3.499   0.505   3.642 -0.7113  0.6968  0.3896
  129MOL    C6438720   3.552   0.364   3.657 -0.2671  0.2932  0.0983
  129MOL    O6538721   3.471   0.273   3.688 -0.1158  0.2263 -0.0660
  129MOL    O6638722   3.683   0.367   3.624 -0.0356 -0.1495 -0.4891
  129MOL    C6738723   3.762   0.248   3.611 -0.2604  0.0350  0.1078
  129MOL    C6838724   3.839   0.252   3.481  0.2671  0.2314 -0.0798
  129MOL    H6938725   3.445   0.675   3.740 -2.1422 -1.9362 -1.2228
  129MOL    H7038726   3.619   0.625   3.765  0.9928 -1.8948 -0.5098
  129MOL    H7138727   3.392   0.491   3.626 -0.4323  0.4793 -1.3555
  129MOL    H7238728   3.834   0.223   3.688  0.4606 -0.4545 -0.7174
  129MOL    H7338729   3.691   0.166   3.601 -0.9564  0.7729 -1.2903
  129MOL    H7438730   3.880   0.161   3.437 -0.6339 -1.0687  1.7251
  129MOL    H7538731   3.922   0.323   3.486  1.2660 -0.9352  0.2934
  129MOL    H7638732   3.773   0.280   3.399  0.6235  2.8880  0.4952
  129MOL    C7738733   3.552   0.567   3.514  0.1826 -0.1171  0.5787
  129MOL    C7838734   3.479   0.705   3.470  0.2776  0.4699  0.4851
  129MOL    C7938735   3.452   0.700   3.321 -0.6978 -0.9016 -1.0024
  129MOL    O8038736   3.501   0.783   3.244 -0.1596  0.3468 -0.1512
  129MOL    O8138737   3.368   0.602   3.291 -0.2716  0.0231  0.0337
  129MOL    C8238738   3.314   0.596   3.160 -0.1408  0.0038 -0.5505
  129MOL    C8338739   3.329   0.453   3.119  0.5381 -0.4198  0.3618
  129MOL    H8438740   3.657   0.595   3.511  0.3394 -0.6620  1.0439
  129MOL    H8538741   3.550   0.494   3.433  1.1677  0.3157  0.1473
  129MOL    H8638742   3.378   0.707   3.511 -1.0508 -1.6927 -2.4773
  129MOL    H8738743   3.205   0.610   3.158 -0.4222 -2.0646 -0.7738
  129MOL    H8838744   3.367   0.661   3.091 -1.2920 -0.2117 -1.6455
  129MOL    H8938745   3.272   0.447   3.026 -2.1089 -2.5303  2.0153
  129MOL    H9038746   3.298   0.376   3.190  0.8895 -0.3376  0.6075
  129MOL    H9138747   3.431   0.419   3.099 -0.4229 -1.9486 -2.2537
  129MOL    C9238748   3.564   0.829   3.509  0.5765  0.6017 -0.1033
  129MOL    C9338749   3.498   0.967   3.486  0.1194  0.0859  0.2730
  129MOL    C9438750   3.594   1.082   3.470  0.3424  0.9697 -0.0817
  129MOL    O9538751   3.641   1.135   3.572  0.2235 -0.1081  0.0591
  129MOL    O9638752   3.611   1.118   3.347  0.0273  0.3251 -1.1043
  129MOL    C9738753   3.698   1.227   3.321 -0.6633  0.0070 -0.3806
  129MOL    C9838754   3.840   1.186   3.258 -0.0913  0.0533  0.2591
  129MOL    H9938755   3.591   0.829   3.615 -1.6945 -0.1280  0.5036
  129MOL   H10038756   3.658   0.837   3.455 -0.3486  1.9011 -1.5436
  129MOL   H10138757   3.451   0.952   3.389  0.4221 -4.4673  0.7221
  129MOL   H10238758   3.652   1.280   3.237  0.8198  0.0182 -1.1926
  129MOL   H10338759   3.701   1.300   3.402  0.3319 -1.6687  1.1252
  129MOL   H10438760   3.905   1.274   3.255  2.0052 -1.4653 -1.2578
  129MOL   H10538761   3.827   1.144   3.158  0.8946  1.8205 -0.6366
  129MOL   H10638762   3.899   1.112   3.313  2.0092  1.8199  0.4501
  129MOL   C10738763   3.384   0.994   3.589  0.2000 -0.8373 -0.1439
  129MOL   C10838764   3.303   1.128   3.575 -0.0003 -0.2781  0.0113
  129MOL   C10938765   3.309   1.199   3.706  0.5482 -0.0791 -0.1276
  129MOL   O11038766   3.259   1.153   3.807 -0.2411 -0.7536  0.0626
  129MOL   O11138767   3.383   1.316   3.698  0.4177 -0.0586 -0.0091
  129MOL   C11238768   3.415   1.389   3.816 -0.7575 -0.0009 -0.7302
  129MOL   C11338769   3.563   1.431   3.802  0.0499 -0.3511  0.6342
  129MOL   H11438770   3.323   0.904   3.579 -2.1167  0.5713  0.8657
  129MOL   H11538771   3.434   0.991   3.686  1.5626  1.5731 -0.7584
  129MOL   H11638772   3.353   1.198   3.507 -0.9439  0.6206  0.2360
  129MOL   H11738773   3.330   1.457   3.817 -0.6970  0.1461  3.0095
  129MOL   H11838774   3.406   1.323   3.902  0.2319  1.3451  0.4239
  129MOL   H11938775   3.603   1.461   3.899 -1.8472 -2.7945  2.2101
  129MOL   H12038776   3.583   1.506   3.725  0.8630 -1.0403  0.1754
  129MOL   H12138777   3.613   1.347   3.755 -1.4396 -1.1714  0.4807
  129MOL   C12238778   3.163   1.100   3.521 -0.0081 -0.8916 -1.0889
  129MOL   C12338779   3.062   1.211   3.513  0.4498  0.0939  0.2420
  129MOL   C12438780   2.933   1.159   3.461 -0.7064 -0.0551 -0.3186
  129MOL   O12538781   2.841   1.124   3.539 -0.1917 -0.3461  0.8569
  129MOL   O12638782   2.926   1.128   3.327 -0.3010 -0.3533  0.1907
  129MOL   C12738783   2.827   1.048   3.271  0.4469 -0.1943  0.2658
  129MOL   C12838784   2.851   1.035   3.121 -0.1922  0.5131 -0.2087
  129MOL   H12938785   3.182   1.069   3.418  0.6882 -1.2855 -0.8467
  129MOL   H13038786   3.118   1.008   3.558 -3.8618  1.6997  0.9366
  129MOL   H13138787   3.024   1.243   3.610  1.2033 -0.9627  0.8852
  129MOL   H13238788   2.829   0.950   3.317  0.0383 -0.8634 -1.1302
  129MOL   H13338789   2.734   1.100   3.295  0.9741  0.5038  0.8320
  129MOL   H13438790   2.945   0.982   3.106  0.0500  0.2216  2.2551
  129MOL   H13538791   2.848   1.131   3.069 -0.2908  0.2304 -0.7345
  129MOL   H13638792   2.765   0.978   3.084 -0.2791 -0.4012  1.3796
  129MOL   C13738793   3.113   1.343   3.449  0.9051  0.3011 -0.9822
  129MOL   C13838794   3.130   1.369   3.301 -0.4336 -0.3462  0.1446
  129MOL   C13938795   3.255   1.295   3.246  0.2674  0.0537  0.3774
  129MOL   O14038796   3.371   1.338   3.240 -0.1020 -0.3946  0.1826
  129MOL   O14138797   3.220   1.171   3.199 -0.3635  0.4191 -0.3513
  129MOL   C14238798   3.318   1.095   3.129  0.8382  0.3631 -0.7226
  129MOL   C14338799   3.268   0.954   3.109  0.5369  0.3548  0.1601
  129MOL   H14438800   3.050   1.426   3.482  1.7334  0.0999  1.1835
  129MOL   H14538801   3.206   1.370   3.497  1.0056  1.4874 -1.8348
  129MOL   H14638802   3.048   1.337   3.237 -0.7948  0.4601  0.2045
  129MOL   H14738803   3.351   1.143   3.037  1.2430 -2.9355 -2.3733
  129MOL   H14838804   3.407   1.083   3.190  1.0651  0.0806 -1.1084
  129MOL   H14938805   3.349   0.907   3.052 -0.2400 -0.2775 -0.4287
  129MOL   H15038806   3.173   0.965   3.058  0.4516 -2.0372 -0.2604
  129MOL   H15138807   3.249   0.900   3.202 -0.9285  2.4466  1.1075
  129MOL   C15238808   3.152   1.527   3.274 -0.0572  0.0958 -0.4764
  129MOL   C15338809   3.022   1.601   3.223 -0.1297  0.2558  0.3250
  129MOL   C15438810   2.971   1.545   3.092 -0.0293  0.2356  0.1052
  129MOL   O15538811   3.040   1.541   2.988  0.0238  0.4081 -0.4104
  129MOL   O15638812   2.850   1.497   3.104  0.4242 -0.2924 -0.2866
  129MOL   C15738813   2.786   1.444   2.989 -0.7528  0.3049  0.3545
  129MOL   C15838814   2.637   1.445   3.010 -0.4392 -0.1450 -0.1889
  129MOL   H15938815   3.188   1.580   3.362 -0.7876 -1.4615  0.7973
  129MOL   H16038816   3.234   1.535   3.203  0.2300  0.2720 -0.1271
  129MOL   H16138817   2.948   1.588   3.302 -1.6267  0.7248 -0.9986
  129MOL   H16238818   2.815   1.499   2.899  1.4548 -2.1092 -0.4778
  129MOL   H16338819   2.817   1.342   2.967  0.0378  0.6199 -0.0359
  129MOL   H16438820   2.601   1.361   2.951  1.6276 -0.7229 -0.6462
  129MOL   H16538821   2.588   1.527   2.956  0.9285 -0.3807 -1.8372
  129MOL   H16638822   2.589   1.438   3.107  0.0933  2.1798  0.2756
  129MOL   C16738823   3.041   1.755   3.214 -0.0690 -0.0363  0.6487
  129MOL   C16838824   2.907   1.828   3.187 -0.0881 -0.6474 -0.0675
  129MOL   C16938825   2.935   1.967   3.137 -0.3159  0.0329  0.1614
  129MOL   O17038826   2.904   1.988   3.022  0.5544 -0.3463 -0.0201
  129MOL   O17138827   2.982   2.059   3.230 -0.6519  0.0137  0.0724
  129MOL   C17238828   2.996   2.197   3.190 -0.2732  0.5128 -0.7860
  129MOL   C17338829   3.035   2.284   3.306 -0.2150  0.2755 -1.2254
  129MOL   H17438830   3.086   1.793   3.306  1.4784 -1.0034  0.3012
  129MOL   H17538831   3.097   1.782   3.125  0.7392  4.4321  2.3758
  129MOL   H17638832   2.858   1.791   3.097  0.0587  2.3082 -1.4277
  129MOL   H17738833   3.060   2.204   3.102 -0.6001 -1.2119 -1.1696
  129MOL   H17838834   2.897   2.231   3.162 -0.9968  0.4783  1.5617
  129MOL   H17938835   3.132   2.251   3.343 -1.1686 -0.9252  0.2614
  129MOL   H18038836   2.970   2.279   3.393  1.3423  0.1210 -0.0360
  129MOL   H18138837   3.049   2.388   3.275  1.9207  0.1846 -0.6476
  129MOL   C18238838   2.816   1.826   3.316  0.1815  0.1049  0.1089
  129MOL   C18338839   2.679   1.758   3.304  1.0484  0.2168 -0.1946
  129MOL   C18438840   2.596   1.827   3.197 -0.6652 -0.4032  0.0723
  129MOL   O18538841   2.553   1.770   3.089 -0.4188  0.2206  0.6147
  129MOL   O18638842   2.566   1.959   3.226  0.2086  0.1664 -0.2453
  129MOL   C18738843   2.498   2.043   3.134 -0.7786  0.6641  0.0809
  129MOL   C18838844   2.358   2.051   3.175 -0.2511  0.2686  0.2730
  129MOL   H18938845   2.874   1.767   3.389  0.4271 -0.7303 -0.7469
  129MOL   H19038846   2.798   1.927   3.351 -0.0149 -0.2021  0.9233
  129MOL   H19138847   2.689   1.655   3.270  2.7812  0.3793 -0.2272
  129MOL   H19238848   2.549   2.139   3.136 -0.0298  0.2828 -0.5087
  129MOL   H19338849   2.503   2.011   3.030 -2.4944  1.4242 -0.2556
  129MOL   H19438850   2.347   2.106   3.268  0.3633  2.7995 -1.0810
  129MOL   H19538851   2.324   1.948   3.183  1.4721 -0.1992  1.8766
  129MOL   H19638852   2.293   2.097   3.100 -0.0749 -2.1668 -1.4216
  129MOL   C19738853   2.602   1.752   3.437 -0.6003  0.3329  0.2019
  129MOL   C19838854   2.645   1.646   3.539 -0.3923 -0.2274 -0.2249
  129MOL   C19938855   2.663   1.502   3.487  0.2180 -0.8084  0.0755
  129MOL   O20038856   2.769   1.444   3.498  0.0191 -0.3283 -0.7219
  129MOL   O20138857   2.552   1.438   3.443 -0.4170 -0.3672  0.2066
  129MOL   C20238858   2.557   1.307   3.396 -0.2812  0.0414 -0.0166
  129MOL   C20338859   2.529   1.207   3.514 -0.3005  0.0596 -0.3031
  129MOL   H20438860   2.602   1.844   3.496  0.4435  1.4339 -1.4667
  129MOL   H20538861   2.502   1.723   3.404 -0.5961 -1.0180  1.3344
  129MOL   H20638862   2.748   1.672   3.565 -0.3154 -0.0596 -0.6936
  129MOL   H20738863   2.480   1.298   3.319  1.2325  1.8692 -1.7782
  129MOL   H20838864   2.656   1.292   3.353 -0.8667 -0.4662 -1.1985
  129MOL   H20938865   2.532   1.101   3.486 -0.0020 -0.5917  2.0594
  129MOL   H21038866   2.434   1.233   3.562 -0.8462  0.1252 -1.4051
  129MOL   H21138867   2.605   1.201   3.592  0.6043  1.0210 -1.1095
  129MOL   C21238868   2.577   1.658   3.673 -0.0355 -0.1582  0.2787
  129MOL   C21338869   2.422   1.674   3.674  0.0562  0.3797 -0.8146
  129MOL   C21438870   2.370   1.811   3.700 -0.4395  0.1039  0.2827
  129MOL   O21538871   2.409   1.886   3.796  0.5307  0.2279 -0.1732
  129MOL   O21638872   2.272   1.836   3.605 -0.4293 -0.1136 -0.5314
  129MOL   C21738873   2.217   1.968   3.593 -0.1317  0.1438 -0.7932
  129MOL   C21838874   2.113   1.964   3.483 -0.1629  0.4263 -0.5477
  129MOL   H21938875   2.610   1.576   3.737 -1.8973  0.7424  2.4825
  129MOL   H22038876   2.625   1.735   3.734 -0.4320  0.0363  0.3458
  129MOL   H22138877   2.390   1.642   3.575  0.6552 -0.9884 -0.5739
  129MOL   H22238878   2.187   2.000   3.693  0.4970  0.2213 -0.6257
  129MOL   H22338879   2.301   2.029   3.560  0.4486 -0.2855 -0.1385
  129MOL   H22438880   2.117   1.884   3.408 -0.6314 -0.0896 -0.0233
  129MOL   H22538881   2.092   2.064   3.444 -1.5181  0.5125  0.3960
  129MOL   H22638882   2.016   1.945   3.528 -0.1945  0.0368 -0.7758
  129MOL   C22738883   2.362   1.576   3.781  0.3924 -0.5538  0.1035
  129MOL   C22838884   2.214   1.546   3.759  0.7309 -0.6980  0.1291
  129MOL   C22938885   2.154   1.482   3.890 -0.4572 -0.0716 -0.1413
  129MOL   O23038886   2.058   1.537   3.942 -0.4024  0.1590 -0.8262
  129MOL   O23138887   2.225   1.374   3.936 -0.4852  0.6480 -0.0494
  129MOL   C23238888   2.194   1.325   4.067 -0.8375 -0.1120  0.0448
  129MOL   C23338889   2.328   1.333   4.148  0.5715  0.4298 -0.2444
  129MOL   H23438890   2.423   1.488   3.802  0.3630 -0.6160 -0.0665
  129MOL   H23538891   2.373   1.626   3.877  0.9660 -1.1095  0.3292
  129MOL   H23638892   2.155   1.636   3.745  1.3552 -0.3623 -0.3752
  129MOL   H23738893   2.122   1.387   4.119  1.6535  3.4148 -0.5195
  129MOL   H23838894   2.155   1.223   4.058 -0.7005 -0.2152  0.5857
  129MOL   H23938895   2.395   1.281   4.080  1.3049  0.2263  0.6118
  129MOL   H24038896   2.338   1.282   4.244  0.0428  1.9240  0.6347
  129MOL   H24138897   2.370   1.433   4.164 -0.2734  0.6464  0.6992
  129MOL   C24238898   2.181   1.451   3.640  0.2071 -0.0754  1.2518
  129MOL   C24338899   2.063   1.491   3.558 -0.4318 -0.4797 -0.0574
  129MOL   C24438900   1.936   1.479   3.641  0.3571 -0.0557  0.0939
  129MOL   O24538901   1.892   1.585   3.692 -0.0226 -0.3811  0.0568
  129MOL   O24638902   1.900   1.353   3.661 -0.1363  0.0431 -0.1769
  129MOL   C24738903   1.772   1.337   3.729  0.4520  0.2351 -0.2686
  129MOL   C24838904   1.659   1.287   3.645 -0.6432 -0.0739  0.8510
  129MOL   H24938905   2.264   1.443   3.571 -1.2250  1.7458 -0.7264
  129MOL   H25038906   2.180   1.347   3.675 -3.7912 -0.6913 -0.4036
  129MOL   H25138907   2.088   1.596   3.547 -0.2788 -0.6262 -1.1753
  129MOL   H25238908   1.800   1.262   3.803  0.0960 -1.9875 -2.3204
  129MOL   H25338909   1.752   1.429   3.784 -0.0144 -0.1064  0.1342
  129MOL   H25438910   1.693   1.281   3.542 -2.0829  1.3539  0.2629
  129MOL   H25538911   1.568   1.347   3.647 -0.7473 -0.0577 -1.7836
  129MOL   H25638912   1.648   1.182   3.671  0.4914 -0.6282 -0.7842
  129MOL   C25738913   2.068   1.421   3.419  0.1819 -0.1753  0.3535
  129MOL   C25838914   2.005   1.513   3.307  0.9194  0.3685 -0.3627
  129MOL   C25938915   1.857   1.527   3.326 -0.1907  0.1939 -0.2640
  129MOL   O26038916   1.783   1.428   3.316  0.2953 -0.7326  0.1168
  129MOL   O26138917   1.826   1.654   3.358  0.1448  0.6706 -0.1020
  129MOL   C26238918   1.698   1.704   3.398 -0.7340  0.0392  0.9077
  129MOL   C26338919   1.708   1.818   3.499 -0.1019 -0.2363  0.0088
  129MOL   H26438920   2.171   1.409   3.384  0.3583  1.0454  0.4567
  129MOL   H26538921   2.012   1.327   3.418 -1.8328  1.0049  1.3614
  129MOL   H26638922   2.049   1.612   3.298  1.1335  0.3557  0.5101
  129MOL   H26738923   1.636   1.736   3.315  1.2544 -2.8583 -1.8129
  129MOL   H26838924   1.633   1.626   3.438 -0.5902 -1.2824 -1.3604
  129MOL   H26938925   1.609   1.851   3.528 -0.9479 -1.1345 -1.7965
  129MOL   H27038926   1.762   1.896   3.444  0.7927 -0.2172  0.8873
  129MOL   H27138927   1.773   1.788   3.582  1.4126 -1.3283 -1.5324
  129MOL   C27238928   2.045   1.452   3.173  0.2948  0.0384 -0.5321
  129MOL   C27338929   2.048   1.547   3.057  0.1613  0.0017  0.8611
  129MOL   C27438930   2.071   1.471   2.924  0.5111 -0.4626 -0.0206
  129MOL   O27538931   1.992   1.476   2.829  0.2694 -0.1990  0.3102
  129MOL   O27638932   2.185   1.395   2.919  0.0128  0.1968 -0.1081
  129MOL   C27738933   2.205   1.307   2.812  0.5630  0.3536 -0.4193
  129MOL   C27838934   2.352   1.309   2.783  0.0097 -0.0824 -0.2276
  129MOL   H27938935   2.149   1.418   3.178 -0.7028 -3.1620 -0.1377
  129MOL   H28038936   1.997   1.357   3.150  2.0596 -0.8401 -0.7240
  129MOL   H28138937   1.952   1.598   3.044 -0.0041 -0.5176  0.0237
  129MOL   H28238938   2.172   1.206   2.837  0.8940  0.2196 -0.5268
  129MOL   H28338939   2.145   1.347   2.730  1.2075 -0.9582 -1.5376
  129MOL   H28438940   2.384   1.410   2.757  2.1319 -0.2965  1.4272
  129MOL   H28538941   2.375   1.249   2.695 -1.6525  0.3123 -0.9545
  129MOL   H28638942   2.417   1.263   2.858  3.5439 -0.9446 -3.6691
  129MOL   C28738943   2.162   1.650   3.057 -0.7771  0.4165  0.0418
  129MOL   C28838944   2.132   1.775   2.966  0.3536 -0.2711  0.1877
  129MOL   C28938945   2.038   1.866   3.034 -0.3810 -0.1649  0.2110
  129MOL   O29038946   2.078   1.983   3.068  0.4247 -0.0684 -0.1848
  129MOL   O29138947   1.911   1.827   3.042 -0.5706  0.6364 -0.0243
  129MOL   C29238948   1.816   1.918   3.082  0.4596 -0.2381 -0.2030
  129MOL   C29338949   1.676   1.853   3.066 -0.1170  0.2031 -0.2171
  129MOL   H29438950   2.180   1.696   3.154 -0.6443 -1.4887  0.9451
  129MOL   H29538951   2.255   1.604   3.023 -0.9894 -1.4622  1.8980
  129MOL   H29638952   2.224   1.833   2.962  0.9481 -1.2694 -0.9018
  129MOL   H29738953   1.835   1.954   3.183 -1.0194 -0.5634  0.2041
  129MOL   H29838954   1.827   2.009   3.024  1.2799 -0.4017 -0.3220
  129MOL   H29938955   1.646   1.845   2.961  1.0410  2.1102 -0.7215
  129MOL   H30038956   1.607   1.927   3.108  1.0196  0.1193  1.8396
  129MOL   H30138957   1.672   1.751   3.103  1.6774  0.2591  0.1397
  129MOL   H30238958   2.096   1.759   2.865  0.6107 -0.2376  0.0894
  130MOL     C138959   2.180   3.458   7.042  0.2390  0.1222 -0.2694
  130MOL     C238960   2.095   3.420   6.922 -0.5640 -0.2374 -0.1592
  130MOL     C338961   1.943   3.409   6.952 -0.4886  0.5191  0.0316
  130MOL     O438962   1.912   3.357   7.062  0.7984  0.4739  0.2050
  130MOL     O538963   1.873   3.466   6.861 -0.2640 -0.2212 -0.2945
  130MOL     C638964   1.730   3.473   6.879 -0.0112 -0.2341  0.5297
  130MOL     C738965   1.679   3.587   6.799 -0.0152 -0.0046  0.2364
  130MOL     H838966   2.160   3.397   7.130  2.5807 -0.7930 -0.3504
  130MOL     H938967   2.154   3.561   7.069 -1.3526  0.6811 -3.5863
  130MOL    H1038968   2.113   3.499   6.849  0.1539 -0.8939 -0.7011
  130MOL    H1138969   1.686   3.377   6.855  2.3266 -1.8123  2.3296
  130MOL    H1238970   1.706   3.496   6.983  0.1669 -1.9473  0.9540
  130MOL    H1338971   1.753   3.667   6.802  0.7586 -0.7469  0.9600
  130MOL    H1438972   1.589   3.624   6.848 -0.0399  0.4437 -0.1324
  130MOL    H1538973   1.654   3.558   6.697 -0.8960 -1.1328  0.7722
  130MOL    H1638974   2.287   3.458   7.023  0.2235 -3.1860 -0.5126
  130MOL    C1738975   2.154   3.289   6.855 -0.1912 -0.0379  0.4367
  130MOL    C1838976   2.289   3.302   6.780 -0.4117 -0.6396  0.8314
  130MOL    C1938977   2.291   3.422   6.675  0.2591  0.4764  0.5638
  130MOL    O2038978   2.376   3.503   6.673 -0.0814  0.5547 -0.0387
  130MOL    O2138979   2.191   3.406   6.582 -0.2148 -0.6023 -0.3805
  130MOL    C2238980   2.208   3.481   6.460  0.1881 -0.5127 -0.4319
  130MOL    C2338981   2.149   3.624   6.464  0.2099  0.2767 -0.5610
  130MOL    H2438982   2.167   3.213   6.931 -1.0141  1.6078  2.2835
  130MOL    H2538983   2.084   3.262   6.776  1.3736  1.5703 -1.5658
  130MOL    H2638984   2.362   3.330   6.856  1.0745 -0.3659 -0.6773
  130MOL    H2738985   2.312   3.491   6.430  0.7251 -0.3526  1.3853
  130MOL    H2838986   2.162   3.419   6.383 -1.3932  0.1975 -0.0825
  130MOL    H2938987   2.041   3.621   6.451  0.0165  0.0343  1.0699
  130MOL    H3038988   2.197   3.680   6.383  1.1633  1.9165  1.1025
  130MOL    H3138989   2.188   3.680   6.548 -0.3173 -0.6283  0.3000
  130MOL    C3238990   2.328   3.168   6.710  0.1906  0.2479  0.3172
  130MOL    C3338991   2.479   3.132   6.696  0.4431  0.0333 -0.5357
  130MOL    C3438992   2.553   3.233   6.602 -0.2479  0.5300 -0.9774
  130MOL    O3538993   2.632   3.309   6.659  0.0916  0.4258 -0.9310
  130MOL    O3638994   2.527   3.229   6.476  0.2467  0.4905 -0.2251
  130MOL    C3738995   2.582   3.325   6.392 -0.7130  0.0060  0.3569
  130MOL    C3838996   2.510   3.312   6.260 -0.3740 -0.0448  0.9068
  130MOL    H3938997   2.290   3.093   6.779 -1.0014  0.6899  0.1571
  130MOL    H4038998   2.285   3.160   6.611  0.2630 -0.7419  0.3621
  130MOL    H4138999   2.528   3.156   6.791  0.2378  0.9458 -0.6526
  130MOL    H4239000   2.567   3.429   6.422 -1.8091 -0.2586  0.7576
  130MOL    H4339001   2.688   3.308   6.377 -0.7219  1.3164 -1.3993
  130MOL    H4439002   2.501   3.208   6.228 -2.0481  0.2713  0.2733
  130MOL    H4539003   2.561   3.370   6.183 -1.3464  1.5272  1.4128
  130MOL    H4639004   2.406   3.345   6.262 -0.0215  1.1106  0.5228
  130MOL    C4739005   2.508   2.981   6.658 -0.2782  1.0449 -0.1309
  130MOL    C4839006   2.586   2.898   6.762 -0.6426  0.2831  0.2248
  130MOL    C4939007   2.626   2.761   6.693  0.5205 -0.3088  0.5011
  130MOL    O5039008   2.744   2.750   6.658 -0.5783 -0.6335  0.1217
  130MOL    O5139009   2.524   2.669   6.678  0.3259  0.7197 -0.2900
  130MOL    C5239010   2.549   2.547   6.613  0.1601 -0.2068 -0.0318
  130MOL    C5339011   2.410   2.500   6.558  0.0458 -0.4733 -0.4004
  130MOL    H5439012   2.415   2.925   6.650  0.3264  0.2996 -2.4089
  130MOL    H5539013   2.550   2.988   6.557 -0.2266  2.8608 -0.0068
  130MOL    H5639014   2.681   2.946   6.787 -0.5529  0.2802 -0.1115
  130MOL    H5739015   2.628   2.546   6.538  1.7418  1.7505  1.5374
  130MOL    H5839016   2.585   2.480   6.691  0.7853 -2.8427 -2.5269
  130MOL    H5939017   2.345   2.583   6.533 -0.2197 -0.3868  0.5392
  130MOL    H6039018   2.344   2.449   6.629 -2.6506  0.9927 -1.7853
  130MOL    H6139019   2.419   2.444   6.465 -0.1042  0.2544 -0.8528
  130MOL    C6239020   2.511   2.876   6.902  0.3300  0.0836 -0.2451
  130MOL    C6339021   2.602   2.879   7.027 -0.0665  0.3230 -0.0404
  130MOL    C6439022   2.679   2.750   7.052  0.2735 -0.1361  0.0955
  130MOL    O6539023   2.627   2.644   7.084  0.3104 -0.5055  0.2959
  130MOL    O6639024   2.811   2.761   7.036 -0.3548 -0.0802  0.5831
  130MOL    C6739025   2.892   2.649   7.039  0.7527 -0.2670  0.1530
  130MOL    C6839026   3.027   2.674   7.122 -0.4860  0.8525 -0.0760
  130MOL    H6939027   2.436   2.954   6.915 -1.5460 -1.7811  0.4711
  130MOL    H7039028   2.456   2.781   6.901  1.8394 -0.8085 -0.0490
  130MOL    H7139029   2.671   2.964   7.019 -1.8759  1.9721  1.2601
  130MOL    H7239030   2.836   2.567   7.084  0.2201 -0.8379 -1.5143
  130MOL    H7339031   2.912   2.610   6.939  1.3312 -0.6299  0.4096
  130MOL    H7439032   3.008   2.701   7.226  0.9052  1.1994  0.1027
  130MOL    H7539033   3.082   2.752   7.068 -0.6917 -0.8013 -2.7317
  130MOL    H7639034   3.090   2.585   7.121 -0.3013  0.9714  0.7007
  130MOL    C7739035   2.530   2.914   7.161 -0.0624  0.2903 -0.5678
  130MOL    C7839036   2.460   3.058   7.170 -0.3714 -0.0993 -0.0732
  130MOL    C7939037   2.562   3.180   7.160  0.4082  0.1685  0.1238
  130MOL    O8039038   2.616   3.234   7.256 -0.7249  0.5907 -0.1274
  130MOL    O8139039   2.588   3.221   7.031  0.3198 -0.2919 -0.2357
  130MOL    C8239040   2.677   3.325   7.021  0.1937 -0.8271 -0.0472
  130MOL    C8339041   2.611   3.466   7.047  0.2852  1.2969 -0.3350
  130MOL    H8439042   2.455   2.841   7.191 -0.2606  0.9894  0.6832
  130MOL    H8539043   2.605   2.923   7.240  0.6724  0.4862 -1.2803
  130MOL    H8639044   2.391   3.072   7.086 -0.0228 -0.7029 -0.4591
  130MOL    H8739045   2.764   3.305   7.083  0.7295  0.3205 -0.4023
  130MOL    H8839046   2.707   3.325   6.916  0.9956  0.0470  0.1667
  130MOL    H8939047   2.510   3.466   7.006  0.0852  0.9304  0.1451
  130MOL    H9039048   2.662   3.545   6.992  0.1329  1.3945 -0.3355
  130MOL    H9139049   2.606   3.499   7.151 -0.8011  0.0124  0.0284
  130MOL    C9239050   2.370   3.066   7.296  0.5660  0.0861  0.1287
  130MOL    C9339051   2.436   3.039   7.436  0.6623  0.4683 -0.1367
  130MOL    C9439052   2.444   2.891   7.484  0.1824 -1.3455  0.0046
  130MOL    O9539053   2.550   2.842   7.519 -0.3906 -0.1305  0.3874
  130MOL    O9639054   2.321   2.828   7.476  0.1117 -0.0509 -0.3493
  130MOL    C9739055   2.300   2.695   7.527  0.0629  0.9045 -0.8138
  130MOL    C9839056   2.155   2.676   7.557 -0.0206  0.0407  0.2576
  130MOL    H9939057   2.340   3.171   7.296  2.3725  0.6241 -0.7763
  130MOL   H10039058   2.290   2.994   7.280  0.2755  0.1812  1.1148
  130MOL   H10139059   2.544   3.050   7.422  1.0040 -0.7656  1.3389
  130MOL   H10239060   2.340   2.620   7.459 -0.0915 -0.5389  0.6451
  130MOL   H10339061   2.352   2.692   7.623 -1.0074  0.3669 -0.2347
  130MOL   H10439062   2.129   2.761   7.620  3.1896  2.8686 -2.0410
  130MOL   H10539063   2.126   2.585   7.610 -0.5187  0.0406 -0.0195
  130MOL   H10639064   2.093   2.680   7.468 -2.1238 -2.4550  1.5407
  130MOL   C10739065   2.373   3.128   7.549 -0.2417  0.2260  0.6770
  130MOL   C10839066   2.239   3.083   7.607  0.3900 -0.3928  0.3245
  130MOL   C10939067   2.119   3.090   7.508 -0.4923  0.5652  0.4210
  130MOL   O11039068   2.035   3.002   7.509  1.1540  0.5675  0.0589
  130MOL   O11139069   2.120   3.204   7.449 -0.0061 -0.1699 -0.1544
  130MOL   C11239070   2.002   3.246   7.382 -0.1207  0.3824 -0.2450
  130MOL   C11339071   1.987   3.394   7.393  0.0430 -0.0794  0.6197
  130MOL   H11439072   2.447   3.122   7.630 -2.2751 -0.1351  2.5665
  130MOL   H11539073   2.374   3.234   7.525  4.1940  0.9091  3.3346
  130MOL   H11639074   2.244   2.977   7.635 -0.6622 -0.8708 -1.2067
  130MOL   H11739075   2.022   3.222   7.278 -3.3414  2.3210 -1.3734
  130MOL   H11839076   1.910   3.191   7.401  0.7039 -0.1020  2.6247
  130MOL   H11939077   1.903   3.424   7.330  0.0845  1.2013  1.1546
  130MOL   H12039078   2.069   3.450   7.348  0.2854  1.6605  3.1252
  130MOL   H12139079   1.959   3.429   7.492 -0.9425  0.6491  0.0924
  130MOL   C12239080   2.204   3.160   7.742  0.5144  0.3281  0.5385
  130MOL   C12339081   2.287   3.102   7.859 -0.3389  0.9234  0.4736
  130MOL   C12439082   2.222   2.967   7.907  0.0635 -0.6742 -0.2199
  130MOL   O12539083   2.285   2.861   7.895  0.1589 -0.2210 -0.2484
  130MOL   O12639084   2.102   2.979   0.053  0.3333 -0.6621  0.1613
  130MOL   C12739085   2.011   2.874   0.041  0.1850  0.2715 -0.7103
  130MOL   C12839086   1.898   2.911   0.142 -0.0237  0.2738  0.5535
  130MOL   H12939087   2.224   3.266   7.725 -2.6386  0.8426 -0.1483
  130MOL   H13039088   2.100   3.163   7.774  0.6516  0.0239  1.0252
  130MOL   H13139089   2.383   3.073   7.816 -1.0212 -0.5563 -0.0519
  130MOL   H13239090   1.981   2.860   7.845  1.1443  2.6148 -1.3250
  130MOL   H13339091   2.054   2.780   0.078  0.2528  0.6700  0.2355
  130MOL   H13439092   1.824   2.831   0.141 -1.1572  1.3135  0.4231
  130MOL   H13539093   1.844   2.993   0.095 -1.2364 -0.3483  0.8162
  130MOL   H13639094   1.929   2.924   0.246  0.2711 -0.2475  0.5319
  130MOL   C13739095   2.302   3.202   0.060 -0.4934 -0.1013 -0.7950
  130MOL   C13839096   2.398   3.148   0.177  0.3181 -0.5318  0.2334
  130MOL   C13939097   2.320   3.077   0.292  0.0934  0.2248 -0.2867
  130MOL   O14039098   2.222   3.132   0.349  0.9094 -0.1620 -0.2454
  130MOL   O14139099   2.360   2.953   0.308  0.5356  0.0750 -0.1601
  130MOL   C14239100   2.287   2.865   0.395  0.3742  0.2039  0.1321
  130MOL   C14339101   2.289   2.723   0.338 -0.0112 -0.0792 -0.2689
  130MOL   H14439102   2.339   3.290   0.008  1.2793 -0.2470  0.1720
  130MOL   H14539103   2.200   3.225   0.092  0.7090  0.5636  2.7489
  130MOL   H14639104   2.453   3.065   0.132  0.2619  0.2869 -1.3871
  130MOL   H14739105   2.326   2.870   0.496 -0.2074  0.3278  0.3549
  130MOL   H14839106   2.182   2.892   0.410  0.2991  0.4463 -0.7736
  130MOL   H14939107   2.250   2.714   0.237  1.0279 -2.1361 -0.5131
  130MOL   H15039108   2.218   2.656   0.386 -0.3114  0.6197  0.2800
  130MOL   H15139109   2.390   2.683   0.335 -0.0645 -0.2383  0.0836
  130MOL   C15239110   2.493   3.249   0.230 -0.9031 -1.0070 -0.4441
  130MOL   C15339111   2.612   3.287   0.137  0.3167  0.0115 -0.3368
  130MOL   C15439112   2.710   3.169   0.115 -1.3001 -1.1544  0.2803
  130MOL   O15539113   2.762   3.160   7.908  0.3042 -0.1390  0.1957
  130MOL   O15639114   2.733   3.092   0.220  0.2192 -0.4512 -0.3065
  130MOL   C15739115   2.793   2.961   0.207  0.1471 -0.5703 -0.7247
  130MOL   C15839116   2.702   2.846   0.260 -0.5555 -0.1714 -0.2257
  130MOL   H15939117   2.431   3.338   0.245  1.1539  0.2371  0.9375
  130MOL   H16039118   2.529   3.227   0.330  1.4986 -0.9354 -1.2649
  130MOL   H16139119   2.564   3.308   0.041  1.3908  0.8322 -0.6999
  130MOL   H16239120   2.802   2.946   0.100 -0.4263 -2.6532 -0.5117
  130MOL   H16339121   2.887   2.962   0.262 -0.6017  2.0581  0.5812
  130MOL   H16439122   2.598   2.876   0.275 -0.7717 -0.1500 -1.6968
  130MOL   H16539123   2.743   2.805   0.352  0.1404 -0.2881 -0.5846
  130MOL   H16639124   2.695   2.771   0.182 -3.0005 -0.2822  0.0700
  130MOL   C16739125   2.673   3.417   0.183 -0.9534 -0.8786 -0.0018
  130MOL   C16839126   2.759   3.485   0.071  0.6402  0.6246 -0.2977
  130MOL   C16939127   2.893   3.537   0.130 -0.2622 -0.7062 -0.3887
  130MOL   O17039128   3.003   3.502   0.088 -0.1855  0.4650 -0.0592
  130MOL   O17139129   2.882   3.634   0.227  0.3672 -0.3558 -0.2552
  130MOL   C17239130   2.999   3.707   0.285  0.3012 -0.0236  0.4071
  130MOL   C17339131   3.054   3.802   0.180  0.0580 -0.3468 -0.2865
  130MOL   H17439132   2.602   3.492   0.216 -1.3257 -1.7123  1.1263
  130MOL   H17539133   2.739   3.398   0.267 -0.3727 -0.7927 -0.4289
  130MOL   H17639134   2.797   3.406   0.006 -0.9026 -0.7015  0.4021
  130MOL   H17739135   2.955   3.766   0.365  0.7982 -2.3037  2.4113
  130MOL   H17839136   3.069   3.639   0.333  1.4384  0.6675 -0.2525
  130MOL   H17939137   2.987   3.879   0.141 -1.6840 -1.8873 -0.3810
  130MOL   H18039138   3.091   3.746   0.094  2.4089  1.5565 -0.5646
  130MOL   H18139139   3.147   3.848   0.212 -1.4449 -0.0765  4.0023
  130MOL   C18239140   2.687   3.599   7.901  0.1109  0.2348 -0.2791
  130MOL   C18339141   2.547   3.564   7.842 -0.7267  0.7895  0.2578
  130MOL   C18439142   2.573   3.464   7.729 -0.4219  0.2603  0.4915
  130MOL   O18539143   2.501   3.366   7.722 -0.0525 -0.5045  0.2523
  130MOL   O18639144   2.678   3.492   7.641  0.4586  0.2423 -0.0331
  130MOL   C18739145   2.718   3.391   7.547  0.2145 -0.0738 -0.9880
  130MOL   C18839146   2.868   3.381   7.535  0.0286  0.2094  0.3492
  130MOL   H18939147   2.663   3.673   0.070 -0.1360 -0.1527  0.0187
  130MOL   H19039148   2.750   3.654   7.831  0.6785  0.4517  0.3939
  130MOL   H19139149   2.499   3.510   0.015  2.3732 -0.7049  1.1745
  130MOL   H19239150   2.672   3.294   7.564 -0.2835  0.7317  2.5040
  130MOL   H19339151   2.685   3.407   7.444  0.7635 -0.4518 -1.2316
  130MOL   H19439152   2.912   3.480   7.543  0.7081 -0.2075  2.4025
  130MOL   H19539153   2.895   3.339   7.438 -1.5678 -0.1768  0.0530
  130MOL   H19639154   2.914   3.316   7.611  1.2485  0.1998 -0.3778
  130MOL   C19739155   2.460   3.688   7.804  0.9298  0.4717 -0.4006
  130MOL   C19839156   2.307   3.644   7.784 -0.0022 -0.9993  0.5723
  130MOL   C19939157   2.274   3.607   7.639  0.7592 -1.3440 -1.0313
  130MOL   O20039158   2.161   3.567   7.617 -0.4317 -0.0789  0.3793
  130MOL   O20139159   2.375   3.618   7.546 -0.5942  0.1707  0.0600
  130MOL   C20239160   2.361   3.576   7.410 -0.6612  0.5407 -0.2571
  130MOL   C20339161   2.430   3.671   7.312 -0.5869 -0.2565  0.2870
  130MOL   H20439162   2.464   3.768   7.879 -2.0841  1.5355 -1.3080
  130MOL   H20539163   2.499   3.733   7.714  0.3290  0.2173 -0.7923
  130MOL   H20639164   2.301   3.547   7.833  1.1409 -0.3396  2.0515
  130MOL   H20739165   2.398   3.475   7.395 -1.4870 -0.0978  1.7588
  130MOL   H20839166   2.257   3.570   7.378 -1.2576  0.0275  1.6957
  130MOL   H20939167   2.378   3.767   7.308  0.4808  0.3133  0.0712
  130MOL   H21039168   2.431   3.626   7.213 -0.1024  0.8886 -0.2371
  130MOL   H21139169   2.528   3.696   7.351 -0.4979 -0.4449  0.1833
  130MOL   C21239170   2.206   3.750   7.827 -0.4154 -0.3151 -1.2557
  130MOL   C21339171   2.154   3.723   0.064  0.6288 -0.1164 -0.8836
  130MOL   C21439172   2.261   3.709   0.178 -0.1347 -0.0859 -0.3312
  130MOL   O21539173   2.338   3.807   0.199 -0.3511 -0.4820 -0.6365
  130MOL   O21639174   2.254   3.592   0.245  0.7917  0.1398  0.8087
  130MOL   C21739175   2.323   3.591   0.371  0.0127  0.0650 -0.7205
  130MOL   C21839176   2.248   3.488   0.454 -0.6051 -0.7179  0.4631
  130MOL   H21939177   2.249   3.850   7.819 -0.0572 -0.5677 -2.5651
  130MOL   H22039178   2.123   3.768   7.759  0.2739  0.9614 -1.7679
  130MOL   H22139179   2.095   3.810   0.093  0.3917 -0.7982  0.7551
  130MOL   H22239180   2.428   3.560   0.368 -0.0643 -0.5492  1.6046
  130MOL   H22339181   2.296   3.686   0.417  0.8903 -1.0420  2.1773
  130MOL   H22439182   2.142   3.513   0.450  0.1962  2.7347 -0.0666
  130MOL   H22539183   2.287   3.501   0.555  2.3796 -0.1287 -0.7137
  130MOL   H22639184   2.267   3.386   0.420 -1.1989 -0.0543 -1.9935
  130MOL   C22739185   2.050   3.607   0.070 -0.5832  0.8986 -0.0054
  130MOL   C22839186   1.954   3.601   0.189 -0.3683 -0.3884 -0.2980
  130MOL   C22939187   1.894   3.466   0.196  0.5363  0.2140  0.1580
  130MOL   O23039188   1.785   3.432   0.147  0.2047 -0.0402  0.1629
  130MOL   O23139189   1.970   3.387   0.272  0.3900 -0.3154 -0.2533
  130MOL   C23239190   1.935   3.254   0.313 -0.3634  0.6378 -0.2646
  130MOL   C23339191   1.811   3.237   0.396 -0.3460  0.2353  0.3594
  130MOL   H23439192   1.992   3.603   7.886  0.2420 -0.7543 -0.4819
  130MOL   H23539193   2.095   3.508   0.060 -1.6749  0.4002 -0.1537
  130MOL   H23639194   2.007   3.626   0.281 -0.7737  0.6103 -0.3291
  130MOL   H23739195   1.918   3.201   0.219  0.1275 -2.1533  1.1508
  130MOL   H23839196   2.014   3.204   0.369 -0.2483  1.9092  0.7352
  130MOL   H23939197   1.726   3.269   0.336 -1.6002 -4.2660 -0.4986
  130MOL   H24039198   1.801   3.274   0.498  2.4641  2.7533 -0.2307
  130MOL   H24139199   1.819   3.129   0.414  0.3183  0.2667  0.2452
  130MOL   C24239200   1.844   3.705   0.173 -0.5254 -0.3211 -0.0742
  130MOL   C24339201   1.740   3.715   0.282  0.1378 -0.8029  0.6138
  130MOL   C24439202   1.611   3.790   0.239  0.2319  0.2032 -0.2012
  130MOL   O24539203   1.517   3.794   0.324 -0.4217 -0.2701  0.4486
  130MOL   O24639204   1.597   3.830   0.112 -0.2251  0.4300 -0.3979
  130MOL   C24739205   1.492   3.918   0.073  0.1127 -0.6898 -0.5571
  130MOL   C24839206   1.524   4.029   7.875 -0.0604  0.1575 -0.5077
  130MOL   H24939207   1.890   3.803   0.165 -0.0111 -0.6192 -0.9141
  130MOL   H25039208   1.794   3.696   0.076  0.4355  2.0477 -0.8058
  130MOL   H25139209   1.712   3.612   0.304 -1.4298 -0.4681  0.2852
  130MOL   H25239210   1.415   3.849   0.040  0.6099 -1.1614 -0.7304
  130MOL   H25339211   1.448   3.964   0.162 -1.4758 -0.4589 -1.4329
  130MOL   H25439212   1.431   4.065   7.832 -0.1713 -1.7119 -1.8632
  130MOL   H25539213   1.585   3.987   7.795 -0.8237  0.7958 -1.4404
  130MOL   H25639214   1.568   4.119   0.011 -1.2020  0.2348  0.4821
  130MOL   C25739215   1.797   3.771   0.412  0.0619 -0.4875  0.3438
  130MOL   C25839216   1.827   3.923   0.431  0.0427 -0.3781  0.3180
  130MOL   C25939217   1.971   3.961   0.395 -0.1253  0.6248  0.6289
  130MOL   O26039218   1.990   4.017   0.289 -0.0795  0.6270 -0.7053
  130MOL   O26139219   2.066   3.930   0.485  0.1114 -0.1859  0.3434
  130MOL   C26239220   2.200   3.966   0.467 -0.1588  0.0916  0.1040
  130MOL   C26339221   2.275   3.940   0.601  0.1512  0.6423 -0.4610
  130MOL   H26439222   1.739   3.740   0.499 -0.6896  0.1891  0.0921
  130MOL   H26539223   1.887   3.717   0.441  0.1358  1.0856  3.3020
  130MOL   H26639224   1.774   3.983   0.357  1.7091 -1.0107 -1.4268
  130MOL   H26739225   2.257   3.901   0.400  0.5839  0.0141  0.8052
  130MOL   H26839226   2.202   4.068   0.427 -3.3014 -0.3590 -1.3665
  130MOL   H26939227   2.208   3.979   0.678  0.2584 -1.0465  0.5187
  130MOL   H27039228   2.373   3.987   0.615  2.0467 -2.9868 -1.0088
  130MOL   H27139229   2.270   3.835   0.630  3.0345  0.0807 -1.8604
  130MOL   C27239230   1.799   3.973   0.578 -0.4344  0.3758 -0.1559
  130MOL   C27339231   1.648   3.972   0.612 -0.6107 -0.0168  0.5643
  130MOL   C27439232   1.580   4.098   0.553 -0.5089  0.2899  1.0455
  130MOL   O27539233   1.585   4.206   0.611 -0.3172 -0.1000 -0.5457
  130MOL   O27639234   1.545   4.078   0.428 -0.3346 -0.4173 -0.4781
  130MOL   C27739235   1.503   4.192   0.352 -0.3461  0.5907  0.0051
  130MOL   C27839236   1.352   4.199   0.368  0.3460  0.1619  0.9078
  130MOL   H27939237   1.849   3.915   0.655 -1.9751  0.1407  0.6989
  130MOL   H28039238   1.834   4.075   0.592 -1.2915  0.6973 -0.3432
  130MOL   H28139239   1.609   3.879   0.571  2.9717 -1.7409  0.8725
  130MOL   H28239240   1.542   4.290   0.381 -2.5836  0.4722  3.7118
  130MOL   H28339241   1.530   4.182   0.247 -2.9949  0.6633 -0.7275
  130MOL   H28439242   1.294   4.283   0.329 -2.5962 -2.4572 -0.6394
  130MOL   H28539243   1.320   4.195   0.472  0.1219  0.0802  0.8381
  130MOL   H28639244   1.307   4.120   0.307 -1.1904  2.5941 -1.1969
  130MOL   C28739245   1.645   3.974   0.770 -0.0653 -0.4285 -0.3565
  130MOL   C28839246   1.495   3.990   0.825  0.0501  0.5604  0.2547
  130MOL   C28939247   1.404   3.883   0.762 -0.0643  0.4494 -0.1855
  130MOL   O29039248   1.371   3.777   0.818  0.0639  0.3274 -0.0801
  130MOL   O29139249   1.347   3.925   0.651 -0.2043 -0.5109 -0.2556
  130MOL   C29239250   1.254   3.848   0.574 -0.6428 -0.9999 -0.5038
  130MOL   C29339251   1.113   3.913   0.582 -0.3505  0.2886 -0.0524
  130MOL   H29439252   1.699   3.890   0.814 -1.8641 -2.0597 -1.1895
  130MOL   H29539253   1.698   4.064   0.802  1.4479 -1.4428  0.0659
  130MOL   H29639254   1.502   3.981   0.933  1.7420 -0.0151  0.1078
  130MOL   H29739255   1.282   3.840   0.469  1.4202 -1.3327  0.0535
  130MOL   H29839256   1.250   3.745   0.609 -1.9564 -1.4788 -1.9919
  130MOL   H29939257   1.033   3.858   0.534  0.1116 -0.2765 -0.1904
  130MOL   H30039258   1.118   4.015   0.544  0.6533  0.7406  1.2433
  130MOL   H30139259   1.085   3.929   0.686 -0.8976 -0.6306 -0.0579
  130MOL   H30239260   1.455   4.085   0.790  1.7561  1.6282  1.1584
  131MOL     C139261   1.571   4.524   3.727 -0.1638  0.4123 -0.0307
  131MOL     C239262   1.489   4.653   3.741 -0.2797  0.4901 -0.3516
  131MOL     C339263   1.351   4.636   3.808 -0.1455 -0.4749  0.3723
  131MOL     O439264   1.340   4.658   3.925 -0.4234 -0.1115 -0.4877
  131MOL     O539265   1.261   4.588   3.721 -0.1443 -0.0985 -0.0259
  131MOL     C639266   1.125   4.578   3.758  0.4689  0.3223  0.3809
  131MOL     C739267   1.038   4.659   3.667 -0.0680  0.9178 -0.1150
  131MOL     H839268   1.544   4.465   3.639 -0.5197  0.8354 -0.2081
  131MOL     H939269   1.577   4.451   3.808 -1.3137  1.3654  0.9331
  131MOL    H1039270   1.543   4.705   3.821 -0.6984  1.4794 -0.6962
  131MOL    H1139271   1.095   4.473   3.754  1.0130  0.1091  1.6536
  131MOL    H1239272   1.109   4.611   3.860 -0.1490  0.8958  0.1001
  131MOL    H1339273   1.049   4.648   3.559  1.1029 -2.3234  0.2706
  131MOL    H1439274   1.041   4.763   3.697 -1.1667  1.0382 -0.3979
  131MOL    H1539275   0.932   4.632   3.677 -0.2553  1.6496 -0.0834
  131MOL    H1639276   1.674   4.557   3.711 -0.1562  1.1899  1.5255
  131MOL    C1739277   1.481   4.732   3.611  0.0242  0.4020 -0.2525
  131MOL    C1839278   1.411   4.875   3.614  0.3171 -0.3436 -0.6130
  131MOL    C1939279   1.351   4.900   3.472  1.1976 -0.1759  0.2743
  131MOL    O2039280   1.398   4.976   3.385  0.4596  0.2274  0.0751
  131MOL    O2139281   1.234   4.837   3.464  0.1715  0.3493  0.0947
  131MOL    C2239282   1.166   4.852   3.340  0.1136  0.1098  0.3404
  131MOL    C2339283   1.217   4.755   3.231  0.2423  0.0763  0.5881
  131MOL    H2439284   1.583   4.761   3.588 -0.3790  2.6145  0.6032
  131MOL    H2539285   1.444   4.672   3.528  4.8319 -2.6560 -0.3756
  131MOL    H2639286   1.331   4.874   3.688  2.0595  0.2348  1.3152
  131MOL    H2739287   1.059   4.837   3.354  0.0150  0.6112  0.1512
  131MOL    H2839288   1.164   4.954   3.301 -0.6778 -0.9705 -2.5942
  131MOL    H2939289   1.158   4.783   3.143 -0.3819  0.9605  1.2843
  131MOL    H3039290   1.195   4.650   3.254 -0.2959  0.0713  0.0744
  131MOL    H3139291   1.322   4.766   3.205 -0.2379 -0.0712 -1.5740
  131MOL    C3239292   1.514   4.986   3.670  0.3930 -0.4077 -0.1169
  131MOL    C3339293   1.445   5.105   3.750 -0.3129 -0.0515 -0.2574
  131MOL    C3439294   1.358   5.198   3.658  0.3559  0.0428 -0.0831
  131MOL    O3539295   1.398   5.302   3.599  0.1126 -0.7538  0.1296
  131MOL    O3639296   1.238   5.153   3.652  0.0069 -0.9928  0.1446
  131MOL    C3739297   1.138   5.213   3.566  0.1765 -0.4199 -0.0761
  131MOL    C3839298   1.015   5.121   3.561 -0.3053  0.6833  0.0858
  131MOL    H3939299   1.585   4.944   3.741 -0.7874 -0.6473  0.9290
  131MOL    H4039300   1.570   5.025   3.585 -1.4033 -1.3845 -1.7990
  131MOL    H4139301   1.374   5.062   3.820  0.9372 -0.2565  0.9200
  131MOL    H4239302   1.106   5.312   3.598  2.4311 -0.0621  1.1917
  131MOL    H4339303   1.159   5.215   3.459 -0.2382 -0.7894 -0.1674
  131MOL    H4439304   0.927   5.182   3.541 -0.4073  1.7328  3.3732
  131MOL    H4539305   0.989   5.074   3.656  0.6916 -0.6673 -0.3032
  131MOL    H4639306   1.016   5.043   3.485  1.6410  1.8591 -1.1570
  131MOL    C4739307   1.553   5.190   3.828 -0.3399 -0.0289 -1.2404
  131MOL    C4839308   1.495   5.302   3.919 -0.0814  0.5492 -0.2880
  131MOL    C4939309   1.589   5.420   3.959  0.6686 -0.7689 -0.4527
  131MOL    O5039310   1.699   5.396   4.016  0.1179 -0.5570 -0.0780
  131MOL    O5139311   1.546   5.544   3.902  0.3091 -0.9754  0.1120
  131MOL    C5239312   1.629   5.663   3.914  0.4192 -0.3165 -0.2302
  131MOL    C5339313   1.560   5.757   3.821 -0.1867  0.1154  0.1687
  131MOL    H5439314   1.626   5.132   3.885 -0.7083  1.1939  0.5167
  131MOL    H5539315   1.618   5.239   3.756 -1.4824  0.9478 -1.6314
  131MOL    H5639316   1.428   5.356   3.851 -2.0917  0.1209  1.2934
  131MOL    H5739317   1.639   5.684   4.020  3.7153 -2.0918 -0.1243
  131MOL    H5839318   1.729   5.637   3.877  1.3679  1.5654  0.9656
  131MOL    H5939319   1.573   5.723   3.718 -4.6070  0.2708 -0.5092
  131MOL    H6039320   1.586   5.863   3.821 -1.0833  0.3559  1.2885
  131MOL    H6139321   1.452   5.749   3.825 -0.0175 -1.8292  1.6147
  131MOL    C6239322   1.406   5.248   4.039 -0.7248 -0.4301 -0.5474
  131MOL    C6339323   1.477   5.174   4.148 -0.9116  0.6064 -0.4993
  131MOL    C6439324   1.508   5.033   4.102 -0.6994 -0.7379 -0.3879
  131MOL    O6539325   1.435   4.972   4.024  0.5380 -0.3921  0.2361
  131MOL    O6639326   1.625   4.989   4.159 -0.1947 -0.0395 -0.1997
  131MOL    C6739327   1.670   4.855   4.141  0.0219  0.1163 -0.2330
  131MOL    C6839328   1.787   4.846   4.030 -0.2683 -0.4928  0.1052
  131MOL    H6939329   1.364   5.341   4.078  0.9929  0.0575  0.1618
  131MOL    H7039330   1.324   5.200   3.985 -2.7496  1.5116  0.6849
  131MOL    H7139331   1.571   5.228   4.144 -0.5365 -0.1127 -1.8350
  131MOL    H7239332   1.686   4.803   4.236  1.9079 -0.8951 -1.0719
  131MOL    H7339333   1.590   4.796   4.096 -0.3118  2.0597 -2.2607
  131MOL    H7439334   1.768   4.902   3.939  1.9531 -2.5170 -1.6780
  131MOL    H7539335   1.810   4.740   4.021 -0.5191 -0.7036  1.6702
  131MOL    H7639336   1.877   4.893   4.070 -0.2937 -0.9101  0.6654
  131MOL    C7739337   1.391   5.172   4.280  0.1079  0.4241  0.4169
  131MOL    C7839338   1.448   5.280   4.375  0.1184  0.2191 -0.1092
  131MOL    C7939339   1.556   5.233   4.474 -0.0983 -0.3761 -0.0760
  131MOL    O8039340   1.596   5.114   4.471  0.3858  0.3149  0.7760
  131MOL    O8139341   1.586   5.317   4.573  0.0472 -0.1942  0.5768
  131MOL    C8239342   1.682   5.280   4.671  0.3948 -0.2341  0.3529
  131MOL    C8339343   1.729   5.410   4.739  0.1079  0.4545 -0.3752
  131MOL    H8439344   1.288   5.185   4.248  0.5664 -0.0346 -1.3428
  131MOL    H8539345   1.404   5.075   4.326  3.5620  1.1500  1.1486
  131MOL    H8639346   1.492   5.353   4.307 -2.0364  0.8872 -0.8400
  131MOL    H8739347   1.630   5.215   4.741  0.4263 -0.4270  0.1973
  131MOL    H8839348   1.764   5.222   4.630  0.9440 -0.0494  1.1708
  131MOL    H8939349   1.813   5.404   4.808 -1.2717 -1.6796  1.1930
  131MOL    H9039350   1.646   5.448   4.799  0.9760 -0.5565  1.5363
  131MOL    H9139351   1.764   5.479   4.663  1.3151  2.5048  1.9677
  131MOL    C9239352   1.331   5.349   4.456  0.5098 -0.0628 -0.3519
  131MOL    C9339353   1.266   5.273   4.578 -0.5790  0.0755  0.4017
  131MOL    C9439354   1.147   5.190   4.536 -0.0883  0.1614  0.0145
  131MOL    O9539355   1.134   5.078   4.579 -0.0338 -0.5745 -0.2199
  131MOL    O9639356   1.058   5.255   4.459  0.0431  0.1695 -0.3122
  131MOL    C9739357   0.929   5.197   4.430  0.2067 -0.2325  0.3700
  131MOL    C9839358   0.868   5.281   4.320 -0.1447 -0.0728 -0.3453
  131MOL    H9939359   1.363   5.444   4.498 -1.3583  0.7113 -0.6071
  131MOL   H10039360   1.251   5.379   4.388 -1.1578 -0.5301  1.3648
  131MOL   H10139361   1.339   5.206   4.624  0.6584  1.8868  1.1129
  131MOL   H10239362   0.947   5.094   4.400  1.2341  0.4152 -1.2471
  131MOL   H10339363   0.859   5.183   4.513  1.2262 -1.4969  1.0339
  131MOL   H10439364   0.865   5.389   4.338 -2.5809 -0.1419 -0.2010
  131MOL   H10539365   0.762   5.259   4.304  0.0914  0.3830 -2.7881
  131MOL   H10639366   0.906   5.262   4.220 -0.4040  3.4854 -1.1906
  131MOL   C10739367   1.204   5.376   4.681 -0.2082  0.0398  0.5045
  131MOL   C10839368   1.295   5.421   4.794 -0.2394  0.2980  0.8771
  131MOL   C10939369   1.342   5.323   4.905 -0.0071 -0.7053 -0.3559
  131MOL   O11039370   1.332   5.348   5.026 -0.4962 -0.1797  0.0251
  131MOL   O11139371   1.385   5.205   4.860 -0.4477 -0.0359 -0.3311
  131MOL   C11239372   1.446   5.107   4.943  0.2625 -0.0644  0.1361
  131MOL   C11339373   1.484   4.985   4.858  0.7505 -0.5520  0.0458
  131MOL   H11439374   1.178   5.464   4.623  2.8311 -0.1782 -1.2828
  131MOL   H11539375   1.116   5.340   4.733 -0.6750 -0.9336 -0.9344
  131MOL   H11639376   1.392   5.423   4.743 -1.8067 -1.2284 -2.3149
  131MOL   H11739377   1.533   5.148   4.994 -0.3585  0.5068  0.7503
  131MOL   H11839378   1.367   5.088   5.015 -0.9404  0.3253 -1.0577
  131MOL   H11939379   1.549   4.915   4.911 -0.2525 -0.9865  0.7304
  131MOL   H12039380   1.547   5.026   4.779 -1.2601  1.5493 -0.4989
  131MOL   H12139381   1.402   4.925   4.819 -0.0909  0.7971 -0.2863
  131MOL   C12239382   1.248   5.559   4.841  0.3693  0.0760 -0.9608
  131MOL   C12339383   1.120   5.550   4.927  0.1041 -0.5527  0.3413
  131MOL   C12439384   0.986   5.569   4.841 -0.9760 -0.2282  1.1027
  131MOL   O12539385   0.909   5.477   4.823  0.1426  0.4473  0.6099
  131MOL   O12639386   0.965   5.700   4.790 -0.1103 -0.1598  0.7572
  131MOL   C12739387   0.856   5.732   4.708 -0.0259 -0.2876 -0.3591
  131MOL   C12839388   0.723   5.735   4.788  0.3785  0.1140 -0.0533
  131MOL   H12939389   1.325   5.591   4.911  1.0150 -2.3307 -0.5349
  131MOL   H13039390   1.242   5.636   4.763  1.1675  0.5750 -0.5383
  131MOL   H13139391   1.106   5.446   4.959 -1.7208 -0.5628 -0.3908
  131MOL   H13239392   0.869   5.827   4.657  0.1673 -0.5863 -0.8668
  131MOL   H13339393   0.857   5.649   4.637  0.8759 -1.2896  0.7863
  131MOL   H13439394   0.737   5.797   4.877  1.4417 -0.3392  0.0991
  131MOL   H13539395   0.690   5.635   4.816 -0.5999  0.4213 -0.0546
  131MOL   H13639396   0.641   5.769   4.725 -1.0501 -0.0462  1.6738
  131MOL   C13739397   1.120   5.646   5.050  0.5190  0.1918  0.7085
  131MOL   C13839398   1.001   5.609   5.149 -0.2899 -1.0956  0.6249
  131MOL   C13939399   0.980   5.707   5.260 -0.5322 -0.3182  0.5182
  131MOL   O14039400   1.073   5.787   5.293 -0.5281  0.0317 -0.1910
  131MOL   O14139401   0.856   5.693   5.313  0.2468 -0.6846 -0.4200
  131MOL   C14239402   0.819   5.780   5.417 -0.0195 -0.2810 -0.4979
  131MOL   C14339403   0.758   5.903   5.352  0.2247  0.0676 -0.2011
  131MOL   H14439404   1.209   5.637   5.112  1.3608 -3.1294 -0.8654
  131MOL   H14539405   1.102   5.750   5.021 -0.8916 -0.2191  0.1011
  131MOL   H14639406   0.907   5.619   5.095  0.2881 -0.4139 -0.2766
  131MOL   H14739407   0.751   5.728   5.484  0.5802  0.3569  0.6288
  131MOL   H14839408   0.909   5.807   5.473  0.7470  0.3646 -1.9862
  131MOL   H14939409   0.719   5.972   5.428 -0.6432 -0.4273 -0.1855
  131MOL   H15039410   0.668   5.871   5.299 -0.8858  0.4858  1.3755
  131MOL   H15139411   0.831   5.951   5.288  1.7250 -1.4375  0.3650
  131MOL   C15239412   1.036   5.470   5.209  0.2200 -0.6100  0.4243
  131MOL   C15339413   0.916   5.397   5.273 -0.4765 -0.9167 -0.0765
  131MOL   C15439414   0.954   5.255   5.322 -0.6441  0.3026  0.3505
  131MOL   O15539415   1.001   5.174   5.244  0.4982  0.8447 -0.5226
  131MOL   O15639416   0.930   5.230   5.458  0.1299  0.4132  0.0128
  131MOL   C15739417   0.945   5.098   5.517 -0.4107  0.6278  0.4730
  131MOL   C15839418   0.822   5.066   5.590  0.0539 -0.7914  0.3269
  131MOL   H15939419   1.084   5.394   5.148  0.9133 -1.7041  2.2857
  131MOL   H16039420   1.116   5.488   5.281  0.0188  1.0842  0.2401
  131MOL   H16139421   0.882   5.452   5.360 -3.6784  0.4884 -2.1279
  131MOL   H16239422   0.973   5.024   5.442  1.8731  0.7049  1.2151
  131MOL   H16339423   1.022   5.089   5.593 -0.4167  2.2967  0.7014
  131MOL   H16439424   0.804   5.156   5.649 -1.8678 -1.4884  0.8285
  131MOL   H16539425   0.824   4.983   5.661 -2.1916 -2.0895 -1.0663
  131MOL   H16639426   0.740   5.039   5.523 -0.6952  0.9563  0.4948
  131MOL   C16739427   0.788   5.381   5.188 -0.0413  0.5339 -0.2742
  131MOL   C16839428   0.657   5.351   5.268  0.6052  0.2300  0.6313
  131MOL   C16939429   0.554   5.273   5.182  0.3911  0.5522 -0.3549
  131MOL   O17039430   0.441   5.322   5.149 -0.2135  0.5105 -0.1706
  131MOL   O17139431   0.609   5.162   5.129  0.7748 -0.6576  0.0400
  131MOL   C17239432   0.520   5.071   5.064  0.1702  0.0267 -1.0442
  131MOL   C17339433   0.588   4.984   4.962 -0.2553  0.7191 -0.2657
  131MOL   H17439434   0.766   5.482   5.152  2.3572  1.5372  1.0171
  131MOL   H17539435   0.814   5.319   5.102  0.6124  0.4852 -0.0404
  131MOL   H17639436   0.667   5.269   5.338 -0.5369 -0.0263  0.5015
  131MOL   H17739437   0.470   5.005   5.135 -0.0145  0.2002 -1.0098
  131MOL   H17839438   0.439   5.127   5.016 -0.2035  2.3933  2.1622
  131MOL   H17939439   0.595   5.025   4.861  0.2489 -0.2434 -0.6295
  131MOL   H18039440   0.514   4.907   4.940  2.3220 -1.6429 -0.9226
  131MOL   H18139441   0.682   4.939   4.993 -0.4403  0.5044 -0.0190
  131MOL   C18239442   0.592   5.482   5.318  0.4277 -0.1183  0.7562
  131MOL   C18339443   0.487   5.484   5.436 -0.6148  0.9495 -0.9463
  131MOL   C18439444   0.367   5.572   5.411  1.1728 -0.2905 -0.2375
  131MOL   O18539445   0.348   5.681   5.464  0.4761 -0.4403 -0.4558
  131MOL   O18639446   0.269   5.514   5.336  0.0351 -0.0750  0.5588
  131MOL   C18739447   0.147   5.577   5.310  0.1290 -0.3046  0.2500
  131MOL   C18839448   0.061   5.487   5.215 -1.2516 -0.1704 -0.4008
  131MOL   H18939449   0.667   5.554   5.350 -2.0938  2.3113  1.3915
  131MOL   H19039450   0.562   5.536   5.227  1.4996  0.9026  0.9904
  131MOL   H19139451   0.442   5.385   5.445 -1.0002  1.1647 -0.5034
  131MOL   H19239452   0.091   5.608   5.398 -1.7452  0.3236 -1.1209
  131MOL   H19339453   0.147   5.673   5.259 -0.1993  0.5296  1.7900
  131MOL   H19439454   7.869   5.526   5.199 -0.8750 -0.1090 -2.7423
  131MOL   H19539455   0.052   5.393   5.268 -2.5968 -0.8643 -1.8285
  131MOL   H19639456   0.116   5.474   5.121 -0.3399  1.9459 -0.2079
  131MOL   C19739457   0.554   5.513   5.574 -0.5016  0.3533  0.2107
  131MOL   C19839458   0.643   5.401   5.638  0.0264 -0.2268 -0.2796
  131MOL   C19939459   0.545   5.288   5.669 -0.1903  0.1802  0.5460
  131MOL   O20039460   0.519   5.200   5.586  0.2464 -0.1193 -0.4940
  131MOL   O20139461   0.478   5.310   5.785  0.4184 -0.4853 -0.2499
  131MOL   C20239462   0.367   5.230   5.822 -0.3463  0.2664 -0.0336
  131MOL   C20339463   0.260   5.312   5.890  0.1663 -0.3637 -0.6576
  131MOL   H20439464   0.610   5.606   5.570  0.5298 -0.3460 -2.3640
  131MOL   H20539465   0.477   5.543   5.646 -0.7800  2.2809 -0.8501
  131MOL   H20639466   0.705   5.366   5.556  1.5140  0.7591  0.4146
  131MOL   H20739467   0.337   5.170   5.735  1.8083  0.3554 -0.8629
  131MOL   H20839468   0.399   5.153   5.892 -0.5440  0.2903  0.0826
  131MOL   H20939469   0.289   5.362   5.983 -2.3187 -0.4983  0.2381
  131MOL   H21039470   0.178   5.245   5.914  1.0882 -0.5134  2.2646
  131MOL   H21139471   0.224   5.391   5.824 -1.1395  0.3152  0.8357
  131MOL   C21239472   0.717   5.449   5.767 -0.2017 -0.2807 -0.4234
  131MOL   C21339473   0.823   5.553   5.759 -0.4430  0.1402  0.0816
  131MOL   C21439474   0.947   5.505   5.688  0.4524 -0.4070 -0.2694
  131MOL   O21539475   0.986   5.549   5.582 -0.2632  0.3117 -0.0767
  131MOL   O21639476   1.021   5.417   5.760  0.5663 -0.3348  0.5031
  131MOL   C21739477   1.142   5.365   5.699  0.2987 -0.5181  0.3037
  131MOL   C21839478   1.210   5.275   5.798 -0.1606 -0.1153 -0.0894
  131MOL   H21939479   0.650   5.499   5.836 -0.9624  1.0191 -2.0593
  131MOL   H22039480   0.759   5.356   5.805  1.3022  0.3039 -0.6247
  131MOL   H22139481   0.777   5.633   5.700  0.0321 -1.3178 -2.3563
  131MOL   H22239482   1.117   5.311   5.607  0.3735 -1.3111  0.7411
  131MOL   H22339483   1.202   5.453   5.678 -0.3423 -0.1922 -0.1678
  131MOL   H22439484   1.201   5.321   5.897  0.0463 -0.2404 -0.0115
  131MOL   H22539485   1.311   5.251   5.765 -0.9547 -3.1813 -0.3755
  131MOL   H22639486   1.152   5.185   5.818  1.4911 -1.0198  0.7453
  131MOL   C22739487   0.860   5.605   5.892  0.8740 -0.3097 -0.1836
  131MOL   C22839488   0.940   5.738   5.884  0.8651 -0.2989 -0.7804
  131MOL   C22939489   1.039   5.743   6.006  0.4038 -0.2899 -0.2826
  131MOL   O23039490   1.159   5.762   6.008 -0.3619  0.6927  0.8950
  131MOL   O23139491   0.970   5.726   6.120 -0.2574  0.1659  0.1376
  131MOL   C23239492   1.033   5.722   6.241 -0.6166  0.2073  0.1175
  131MOL   C23339493   1.088   5.586   6.279 -0.2678 -0.3894  0.2657
  131MOL   H23439494   0.778   5.611   5.963  2.0936 -0.8453  1.2951
  131MOL   H23539495   0.917   5.530   5.947 -1.3716 -2.9282 -1.3467
  131MOL   H23639496   1.008   5.724   5.800  0.5033 -0.9164 -0.9698
  131MOL   H23739497   1.115   5.794   6.247  0.2433 -0.9544  3.9537
  131MOL   H23839498   0.962   5.741   6.321 -0.5285  1.3081 -0.0546
  131MOL   H23939499   1.162   5.588   6.359 -1.3634  0.0316  1.2776
  131MOL   H24039500   1.135   5.538   6.193 -0.2737  1.6020 -0.8623
  131MOL   H24139501   1.005   5.517   6.292 -0.1016 -0.6467 -0.0111
  131MOL   C24239502   0.847   5.860   5.876  0.0826 -0.3783  0.2880
  131MOL   C24339503   0.893   6.007   5.899  0.6805 -0.3039 -0.3465
  131MOL   C24439504   0.777   6.109   5.909 -0.4199  0.0113 -0.4961
  131MOL   O24539505   0.781   6.203   5.995  0.0995  0.5291 -0.4930
  131MOL   O24639506   0.683   6.091   5.821  0.4917  0.3317 -0.0287
  131MOL   C24739507   0.569   6.178   5.830 -0.3282 -0.5259 -0.5606
  131MOL   C24839508   0.470   6.136   5.720 -0.2734 -0.1119 -0.1612
  131MOL   H24939509   0.801   5.841   5.779 -0.4304 -0.3026  0.5177
  131MOL   H25039510   0.777   5.847   5.959  1.5120  2.2043  1.9754
  131MOL   H25139511   0.935   6.019   5.999 -0.2845 -0.7263  0.1136
  131MOL   H25239512   0.524   6.164   5.928 -1.0812 -1.9905 -1.0909
  131MOL   H25339513   0.580   6.286   5.822 -1.5596 -0.3162  0.4089
  131MOL   H25439514   0.517   6.095   5.630  0.2844 -1.9490  0.9455
  131MOL   H25539515   0.410   6.224   5.696 -0.0718  0.1333  0.2315
  131MOL   H25639516   0.413   6.050   5.753 -1.2833  1.3685  2.1089
  131MOL   C25739517   0.999   6.060   5.795 -0.0650  0.1571  0.0904
  131MOL   C25839518   1.050   6.204   5.815  0.0486 -0.3057 -0.7160
  131MOL   C25939519   1.024   6.295   5.694 -0.8933  0.2577 -0.1545
  131MOL   O26039520   1.110   6.375   5.651 -1.0094  0.7725 -0.2005
  131MOL   O26139521   0.906   6.273   5.648  0.6700 -0.4766 -0.2543
  131MOL   C26239522   0.870   6.312   5.518  0.7852 -0.9015  0.4441
  131MOL   C26339523   0.720   6.313   5.473 -0.4459 -0.1698 -0.2556
  131MOL   H26439524   1.080   5.988   5.801 -0.8736 -0.8486 -0.9618
  131MOL   H26539525   0.949   6.053   5.698  0.3943 -1.5550 -0.0340
  131MOL   H26639526   0.993   6.240   5.901 -1.4243 -1.8419 -1.0225
  131MOL   H26739527   0.916   6.411   5.509 -1.3227  0.2111  1.5302
  131MOL   H26839528   0.912   6.248   5.440 -1.3339 -0.6493 -0.9431
  131MOL   H26939529   0.714   6.311   5.364 -1.2461  0.0408 -0.2217
  131MOL   H27039530   0.682   6.408   5.511  0.1559 -0.4561  1.1001
  131MOL   H27139531   0.663   6.224   5.501 -1.5719 -0.3323 -2.9510
  131MOL   C27239532   1.203   6.205   5.857 -0.7238  0.0061 -0.4374
  131MOL   C27339533   1.234   6.128   5.994  0.2122  0.0097  0.0291
  131MOL   C27439534   1.157   6.181   6.112 -0.2946 -0.2210  0.1873
  131MOL   O27539535   1.069   6.116   6.168  0.3208  0.1239 -0.2596
  131MOL   O27639536   1.191   6.302   6.150 -0.3110 -0.4270  0.3285
  131MOL   C27739537   1.113   6.359   6.257 -0.1640 -0.2199  0.1722
  131MOL   C27839538   0.970   6.404   6.220 -0.3202 -0.0352  0.3911
  131MOL   H27939539   1.267   6.156   5.783 -1.3977 -0.7178 -0.5412
  131MOL   H28039540   1.244   6.304   5.878 -0.6830 -0.2400  0.7047
  131MOL   H28139541   1.208   6.023   5.977  1.3120 -0.1061 -1.0051
  131MOL   H28239542   1.093   6.287   6.337 -1.3584  1.6557  1.5867
  131MOL   H28339543   1.177   6.438   6.296  0.7702 -0.2330 -1.2940
  131MOL   H28439544   0.970   6.493   6.157 -2.4853 -1.8149 -2.2952
  131MOL   H28539545   0.907   6.413   6.308  0.3039  1.8128  0.6721
  131MOL   H28639546   0.920   6.325   6.163  1.6396 -0.7554 -0.3861
  131MOL   C28739547   1.390   6.119   6.019  1.0076  0.1061 -0.3957
  131MOL   C28839548   1.440   5.980   6.077  0.4541  0.1645 -0.8575
  131MOL   C28939549   1.449   5.993   6.230 -0.2478 -0.6769  0.0826
  131MOL   O29039550   1.552   6.036   6.281 -0.0874  0.4488 -0.3717
  131MOL   O29139551   1.344   5.949   6.293  0.0612 -0.0278 -0.2362
  131MOL   C29239552   1.349   5.936   6.433 -0.7505 -0.4790 -0.6607
  131MOL   C29339553   1.213   5.894   6.480 -0.6375 -0.7960  0.0821
  131MOL   H29439554   1.447   6.133   5.927 -0.9875  0.0425 -1.6684
  131MOL   H29539555   1.427   6.198   6.083  2.2745  1.6681 -2.9560
  131MOL   H29639556   1.377   5.894   6.053  1.0387 -0.2664 -0.8648
  131MOL   H29739557   1.418   5.856   6.461 -0.2931  0.2813  0.4155
  131MOL   H29839558   1.373   6.030   6.482 -1.0596  0.3986 -2.1783
  131MOL   H29939559   1.189   5.799   6.431 -3.3813 -0.8932  1.4812
  131MOL   H30039560   1.138   5.971   6.461 -0.1881 -0.4544 -0.3177
  131MOL   H30139561   1.201   5.868   6.585  0.5849  0.3012  0.4887
  131MOL   H30239562   1.532   5.956   6.024  0.1943  0.6580 -1.5477
  132MOL     C139563   0.451   3.233   3.982  0.3855  0.2095  0.1279
  132MOL     C239564   0.406   3.370   3.932  0.1528  0.4312  0.1507
  132MOL     C339565   0.459   3.398   3.791  0.0270  0.2095 -0.7650
  132MOL     O439566   0.582   3.373   3.766 -0.2155 -0.7313  0.3506
  132MOL     O539567   0.374   3.471   3.713 -0.2947  0.7299 -0.0016
  132MOL     C639568   0.415   3.518   3.586 -0.1354  0.3144  0.6920
  132MOL     C739569   0.349   3.428   3.484  0.1071 -0.0267 -1.2269
  132MOL     H839570   0.438   3.151   3.911 -2.6555 -2.0118  3.0827
  132MOL     H939571   0.408   3.196   4.075  0.1163 -0.0257 -0.0909
  132MOL    H1039572   0.299   3.354   3.925  0.1798  0.3423 -0.0533
  132MOL    H1139573   0.368   3.615   3.569 -1.5959 -0.5941 -0.5793
  132MOL    H1239574   0.523   3.531   3.588 -0.1254  0.7416 -1.1167
  132MOL    H1339575   0.355   3.479   3.388  0.1926  2.3124 -0.0041
  132MOL    H1439576   0.244   3.401   3.499  1.0155 -2.3655  1.1890
  132MOL    H1539577   0.413   3.340   3.479 -0.8121 -0.6991 -1.2649
  132MOL    H1639578   0.558   3.232   4.002  0.1094  0.8579  1.7340
  132MOL    C1739579   0.446   3.484   4.028 -0.4410  0.3708 -0.7627
  132MOL    C1839580   0.369   3.612   4.017 -0.5097  0.6112 -0.6096
  132MOL    C1939581   0.465   3.732   4.036  0.9817 -0.2732  0.0473
  132MOL    O2039582   0.464   3.797   4.143  0.4401  0.0569  0.2097
  132MOL    O2139583   0.551   3.761   3.931  0.3952 -0.3542 -0.2526
  132MOL    C2239584   0.645   3.861   3.955  0.0205 -0.2915  0.5211
  132MOL    C2339585   0.718   3.899   3.829 -0.2726 -0.4471  0.2515
  132MOL    H2439586   0.460   3.441   4.127  1.5652 -0.0409 -1.2021
  132MOL    H2539587   0.552   3.504   4.011 -0.4869  1.8899  0.6635
  132MOL    H2639588   0.338   3.624   3.914 -0.3613 -0.0435 -0.7317
  132MOL    H2739589   0.604   3.953   3.997 -0.6264 -1.0422  1.5311
  132MOL    H2839590   0.717   3.833   4.032  0.0042  0.5997  0.8623
  132MOL    H2939591   0.653   3.949   3.757 -2.3583 -4.2873 -0.6932
  132MOL    H3039592   0.757   3.809   3.782 -0.2568 -0.3397  0.0601
  132MOL    H3139593   0.798   3.971   3.844  1.0573 -1.7240 -0.6095
  132MOL    C3239594   0.248   3.617   4.116  0.4003 -0.2159 -0.2485
  132MOL    C3339595   0.134   3.529   4.065 -0.3719  0.5641 -0.0422
  132MOL    C3439596   0.085   3.577   3.918  0.6495 -0.4539 -0.2417
  132MOL    O3539597   0.079   3.697   3.895 -0.1067  0.1222 -0.9458
  132MOL    O3639598   0.062   3.480   3.822 -0.1090 -0.3464 -0.0611
  132MOL    C3739599   0.051   3.517   3.688 -0.2717 -0.3708  0.0549
  132MOL    C3839600   7.896   3.398   3.612  0.2110 -0.4676 -0.2524
  132MOL    H3939601   0.274   3.585   4.217 -0.6955 -3.3695 -0.8815
  132MOL    H4039602   0.215   3.720   4.112  0.4914 -0.2316 -1.8547
  132MOL    H4139603   0.190   3.438   4.049 -1.7038 -0.4776  1.0771
  132MOL    H4239604   7.897   3.606   3.682  1.1147  0.6833  0.8184
  132MOL    H4339605   0.152   3.544   3.656 -0.5809  1.4657  0.5485
  132MOL    H4439606   7.852   3.441   3.522  0.5589 -0.9384 -0.6571
  132MOL    H4539607   7.810   3.357   3.664 -0.3802  1.4858  0.3354
  132MOL    H4639608   0.064   3.325   3.584 -1.2944 -0.8991 -3.5173
  132MOL    C4739609   0.021   3.507   4.159 -0.3984 -0.4519  0.3467
  132MOL    C4839610   0.036   3.390   4.260  0.1964 -0.4277  0.1865
  132MOL    C4939611   0.026   3.254   4.185  1.0331  0.0314  0.2375
  132MOL    O5039612   7.824   3.204   4.159  0.1491  0.3138 -0.0799
  132MOL    O5139613   0.141   3.213   4.137  0.1720 -0.4656 -0.1117
  132MOL    C5239614   0.138   3.105   4.037  0.7585 -0.4812  0.2536
  132MOL    C5339615   0.234   2.988   4.074  0.6146  0.7878 -0.8686
  132MOL    H5439616   7.903   3.604   4.201  2.8954  0.3144  0.7560
  132MOL    H5539617   7.843   3.484   4.097 -0.4047  2.1586 -0.6738
  132MOL    H5639618   0.134   3.390   4.306  1.1564  1.8535 -1.7052
  132MOL    H5739619   0.036   3.073   4.017  0.3094  1.4438 -0.6931
  132MOL    H5839620   0.173   3.145   3.941  0.0744 -1.1826 -0.2888
  132MOL    H5939621   0.156   2.920   4.107  1.1232  1.0615  0.9261
  132MOL    H6039622   0.297   2.997   4.163 -0.7708 -0.8899  0.3186
  132MOL    H6139623   0.295   2.944   3.995  0.5799  0.7972 -0.9000
  132MOL    C6239624   7.847   3.402   4.382 -0.2225 -1.0703 -0.2428
  132MOL    C6339625   7.893   3.518   4.470  0.0940 -0.6493 -0.1469
  132MOL    C6439626   0.118   3.491   4.549  0.4103  0.5100  0.2883
  132MOL    O6539627   0.226   3.523   4.507 -0.0795 -0.1499 -0.5525
  132MOL    O6639628   0.096   3.430   4.662 -0.1941  0.7056  0.2360
  132MOL    C6739629   0.207   3.400   4.745  0.3989 -0.3936  0.1371
  132MOL    C6839630   0.180   3.257   4.800  0.6773 -0.6900 -0.0804
  132MOL    H6939631   7.746   3.432   4.353 -0.0468  1.2515  1.3874
  132MOL    H7039632   7.846   3.310   4.440 -2.4634  0.2821  1.9513
  132MOL    H7139633   0.012   3.591   4.394 -2.1322  0.8824  0.4641
  132MOL    H7239634   0.301   3.401   4.689 -0.7636 -0.4226 -1.8394
  132MOL    H7339635   0.203   3.467   4.831 -3.0559  0.9665 -1.0355
  132MOL    H7439636   0.272   3.208   4.833  1.5871 -0.1064 -1.6861
  132MOL    H7539637   0.144   3.191   4.722 -1.3286 -0.3183  0.4933
  132MOL    H7639638   0.101   3.258   4.875  0.8027 -1.7691  0.0633
  132MOL    C7739639   7.785   3.583   4.559  0.8211 -0.2480 -0.1238
  132MOL    C7839640   7.702   3.696   4.489 -0.1804 -1.1642  0.8652
  132MOL    C7939641   7.790   3.815   4.446  0.4100  0.6270  0.1728
  132MOL    O8039642   7.780   3.863   4.332  1.4537  0.1007  0.7341
  132MOL    O8139643   7.863   3.854   4.542 -0.4755  0.0174  0.1048
  132MOL    C8239644   0.038   3.968   4.527 -0.2661 -0.1489 -0.3059
  132MOL    C8339645   0.186   3.933   4.498  0.1036  0.4356 -0.0306
  132MOL    H8439646   7.720   3.504   4.596  3.1200 -2.4915 -0.7556
  132MOL    H8539647   7.832   3.621   4.650 -1.5548  0.3650  0.8979
  132MOL    H8639648   7.664   3.656   4.395 -0.7154  2.1132 -0.4053
  132MOL    H8739649   0.007   4.046   4.457 -2.1787  0.0453  0.7243
  132MOL    H8839650   0.041   4.021   4.622  0.1084  0.0746 -0.4377
  132MOL    H8939651   0.215   3.850   4.562  1.6686 -2.0777 -3.8621
  132MOL    H9039652   0.263   4.009   4.509  1.0158 -0.4073 -0.6070
  132MOL    H9139653   0.199   3.899   4.396 -3.7313 -0.4175 -0.3286
  132MOL    C9239654   7.564   3.739   4.557  0.1184 -0.0173 -0.0059
  132MOL    C9339655   7.469   3.620   4.603 -0.5379  0.1553 -0.4289
  132MOL    C9439656   7.444   3.504   4.504 -0.7495  0.1779  0.0691
  132MOL    O9539657   7.510   3.400   4.517 -0.2977 -0.3234 -0.3406
  132MOL    O9639658   7.351   3.524   4.406 -0.3648 -0.0181 -0.0313
  132MOL    C9739659   7.351   3.446   4.292  0.0412 -0.2670  0.4439
  132MOL    C9839660   7.272   3.315   4.319  0.3231  0.3958  0.4694
  132MOL    H9939661   7.597   3.804   4.638 -0.5027 -0.6794  0.7946
  132MOL   H10039662   7.520   3.812   4.488 -0.7450  0.8085  1.3853
  132MOL   H10139663   7.522   3.569   4.684 -1.7569 -1.3360 -0.5319
  132MOL   H10239664   7.307   3.498   4.207  0.3226 -0.5315  0.1357
  132MOL   H10339665   7.455   3.429   4.262  0.9088  3.5694  1.0192
  132MOL   H10439666   7.318   3.251   4.395 -3.1816 -1.0237  1.4990
  132MOL   H10539667   7.250   3.265   4.225 -0.3066  1.8436 -0.1583
  132MOL   H10639668   7.178   3.327   4.373 -0.0555 -0.9568  0.1408
  132MOL   C10739669   7.343   3.669   4.674 -0.7543 -0.8416  0.4893
  132MOL   C10839670   7.253   3.559   4.740  0.5932  0.2141 -1.0345
  132MOL   C10939671   7.119   3.616   4.776  0.6179 -1.0611  0.1572
  132MOL   O11039672   7.022   3.583   4.706 -0.4202  0.0266  0.1349
  132MOL   O11139673   7.122   3.715   4.876  0.5059  0.2903  0.7679
  132MOL   C11239674   6.995   3.789   4.893  0.7167 -0.4923 -0.1455
  132MOL   C11339675   7.022   3.888   5.000 -0.2220 -0.3233  0.2007
  132MOL   H11439676   7.368   3.737   4.755  0.8036  0.5439 -1.1266
  132MOL   H11539677   7.281   3.726   4.605  0.2216  0.1930  0.4575
  132MOL   H11639678   7.224   3.490   4.660 -2.5657  0.8870 -0.5467
  132MOL   H11739679   6.967   3.845   4.804  0.0926  0.4589  0.6392
  132MOL   H11839680   6.910   3.727   4.919 -0.8177  1.4841 -0.3253
  132MOL   H11939681   7.097   3.960   4.967  0.4962 -1.1076  0.1158
  132MOL   H12039682   7.044   3.840   5.095 -3.5856 -2.3007  0.0693
  132MOL   H12139683   6.926   3.937   5.019 -0.6058  0.0498 -2.4656
  132MOL   C12239684   7.320   3.493   4.866  0.2973 -0.4322  0.1301
  132MOL   C12339685   7.326   3.344   4.850  0.4354  0.1347 -0.1805
  132MOL   C12439686   7.187   3.275   4.866  0.1495 -0.7294 -0.1955
  132MOL   O12539687   7.140   3.209   4.771 -0.1204  0.8528  0.1742
  132MOL   O12639688   7.126   3.301   4.982  0.0040 -0.0230 -0.4283
  132MOL   C12739689   6.995   3.248   5.005  0.3692 -0.3206 -0.6346
  132MOL   C12839690   6.911   3.377   5.017 -0.1334  0.3849  0.0104
  132MOL   H12939691   7.414   3.547   4.879 -0.8845  1.6188  0.5129
  132MOL   H13039692   7.276   3.523   4.961  1.4723  0.3859  0.4306
  132MOL   H13139693   7.351   3.335   4.744 -1.3829 -0.6986 -0.5634
  132MOL   H13239694   6.948   3.189   4.926  0.0194  0.7779 -1.2758
  132MOL   H13339695   6.985   3.194   5.099  0.9168  0.3292 -0.1942
  132MOL   H13439696   6.812   3.359   5.059 -0.4505 -0.1143 -0.9290
  132MOL   H13539697   6.905   3.426   4.920 -1.9430 -0.9028 -0.5447
  132MOL   H13639698   6.946   3.452   5.088 -2.1933  0.4103  1.0093
  132MOL   C13739699   7.430   3.266   4.928  0.3645  0.4083 -0.4566
  132MOL   C13839700   7.467   3.122   4.875  0.1900 -0.8593  0.6754
  132MOL   C13939701   7.382   3.007   4.927  0.1796 -0.1288  0.2467
  132MOL   O14039702   7.330   3.014   5.042  0.4108  0.4320 -0.5153
  132MOL   O14139703   7.365   2.913   4.842 -0.4035  0.3562  0.0517
  132MOL   C14239704   7.290   2.803   4.877 -0.1311 -0.6906  0.1327
  132MOL   C14339705   7.153   2.808   4.808 -0.4251  0.0301 -0.0381
  132MOL   H14439706   7.516   3.333   4.924  1.1679 -0.5738 -0.0070
  132MOL   H14539707   7.409   3.262   5.035  0.3112 -0.1825 -0.4901
  132MOL   H14639708   7.453   3.133   4.768 -1.0619  0.8877  1.0077
  132MOL   H14739709   7.339   2.715   4.834  3.3997  1.3640 -0.2265
  132MOL   H14839710   7.277   2.791   4.984  0.4574  1.3150  0.4542
  132MOL   H14939711   7.104   2.711   4.816 -0.8870  0.1696 -1.0297
  132MOL   H15039712   7.156   2.834   4.702  1.5172 -3.8206 -0.9985
  132MOL   H15139713   7.086   2.884   4.850 -0.0858 -1.0318  2.4925
  132MOL   C15239714   7.614   3.081   4.906 -0.1758  0.0571 -0.3362
  132MOL   C15339715   7.694   3.004   4.806  0.0825  0.1328 -0.7444
  132MOL   C15439716   7.838   2.982   4.873  0.3125  1.1195  0.3780
  132MOL   O15539717   7.891   3.061   4.947 -0.0980 -0.2162  0.6022
  132MOL   O15639718   7.889   2.867   4.826 -0.0435 -0.4859 -0.5605
  132MOL   C15739719   0.115   2.836   4.874  0.1831  0.0964  0.0516
  132MOL   C15839720   0.150   2.691   4.848  0.0938  0.8016 -0.3627
  132MOL   H15939721   7.667   3.174   4.927 -0.2690 -0.4632  2.3519
  132MOL   H16039722   7.616   3.025   4.999 -0.9348 -0.7137 -0.7721
  132MOL   H16139723   7.665   2.901   4.786 -0.3717  0.6775 -2.9770
  132MOL   H16239724   0.182   2.901   4.818 -0.3462  0.5960 -0.0145
  132MOL   H16339725   0.119   2.852   4.982 -2.9673 -1.3492  0.4614
  132MOL   H16439726   0.076   2.611   4.858  1.5941 -0.9007 -2.3966
  132MOL   H16539727   0.233   2.658   4.910 -0.2820  0.0394 -0.2477
  132MOL   H16639728   0.192   2.688   4.748  1.4160 -0.3530  0.2138
  132MOL   C16739729   7.712   3.085   4.680 -0.1386  0.0032  0.4168
  132MOL   C16839730   7.689   3.000   4.548  0.1026  0.0138  0.1322
  132MOL   C16939731   7.823   2.951   4.490  0.5643 -0.3859  0.2993
  132MOL   O17039732   7.847   2.830   4.487  0.1595  0.3956 -0.4622
  132MOL   O17139733   0.010   3.043   4.453  0.0876  0.3839 -0.2818
  132MOL   C17239734   0.142   2.996   4.445 -0.1596 -0.4545 -0.3332
  132MOL   C17339735   0.240   3.112   4.451  0.0261  0.3030  0.3131
  132MOL   H17439736   7.635   3.162   4.694 -1.7666 -1.6298  0.5656
  132MOL   H17539737   7.808   3.137   4.680 -0.1771  0.0789  0.6860
  132MOL   H17639738   7.631   2.911   4.572  2.2948 -1.5131 -0.1959
  132MOL   H17739739   0.164   2.925   4.525  1.6378  0.3949 -0.0452
  132MOL   H17839740   0.156   2.942   4.351 -1.4812 -0.3740 -0.5856
  132MOL   H17939741   0.332   3.073   4.409 -0.5725 -1.4322  0.5710
  132MOL   H18039742   0.284   3.140   4.547  0.3067 -2.4265  1.0130
  132MOL   H18139743   0.202   3.200   4.400 -1.4080 -1.4171 -1.6549
  132MOL   C18239744   7.600   3.084   4.450  0.2219 -0.4798  0.0948
  132MOL   C18339745   7.548   3.004   4.331 -0.0397 -0.2656 -0.1066
  132MOL   C18439746   7.537   3.083   4.203 -0.3585  1.2688  0.0391
  132MOL   O18539747   7.515   3.196   4.205  0.0000  0.5914  0.5904
  132MOL   O18639748   7.558   3.001   4.094  0.7111 -0.2903  0.0287
  132MOL   C18739749   7.547   3.053   3.959  0.4383 -0.1217 -0.4784
  132MOL   C18839750   7.592   2.944   3.859  0.2088  0.1743 -0.1999
  132MOL   H18939751   7.507   3.118   4.495  0.0444  0.0033 -0.6389
  132MOL   H19039752   7.650   3.172   4.410 -0.7566  0.6231  1.2590
  132MOL   H19139753   7.637   2.949   4.300 -0.3170 -0.8665  0.1512
  132MOL   H19239754   7.442   3.078   3.947  0.9021  1.8833 -0.5598
  132MOL   H19339755   7.606   3.144   3.946  1.3532 -0.6339  0.0510
  132MOL   H19439756   7.517   2.866   3.851  0.0487  0.2527  0.5112
  132MOL   H19539757   7.686   2.896   3.886  0.8951  0.8694 -1.2722
  132MOL   H19639758   7.599   2.982   3.757 -0.3001  0.9130  0.0437
  132MOL   C19739759   7.421   2.927   4.362 -0.0262 -0.0213 -0.3209
  132MOL   C19839760   7.410   2.798   4.273 -0.1716  0.4361  0.3976
  132MOL   C19939761   7.263   2.740   4.264 -0.4610 -0.4604  0.0880
  132MOL   O20039762   7.205   2.731   4.158  0.2495  0.6810  0.1881
  132MOL   O20139763   7.220   2.691   4.383  0.3403 -0.4024  0.6850
  132MOL   C20239764   7.105   2.616   4.402 -0.5637 -0.4857 -0.2319
  132MOL   C20339765   7.153   2.518   4.503  0.0661  0.2239  0.5204
  132MOL   H20439766   7.426   2.888   4.463 -0.6704 -0.9391 -0.6357
  132MOL   H20539767   7.331   2.987   4.377  0.8550  0.6704  2.3045
  132MOL   H20639768   7.430   2.826   4.169 -0.6265  0.4332  0.3107
  132MOL   H20739769   7.022   2.678   4.435  0.2208  0.6270 -0.3160
  132MOL   H20839770   7.082   2.570   4.306  1.8263 -2.5091  0.1007
  132MOL   H20939771   7.066   2.460   4.534 -0.5547  1.1656  0.5771
  132MOL   H21039772   7.194   2.571   4.588  0.6702  2.0179 -0.8560
  132MOL   H21139773   7.231   2.461   4.453 -0.0325  0.2054  0.3859
  132MOL   C21239774   7.506   2.685   4.321 -0.3446  0.6595  0.6470
  132MOL   C21339775   7.525   2.567   4.216 -0.2761 -0.2016 -0.0405
  132MOL   C21439776   7.584   2.444   4.283  0.9577 -0.7927 -0.0579
  132MOL   O21539777   7.705   2.424   4.280  0.4989 -0.0497  0.2716
  132MOL   O21639778   7.502   2.366   4.336  0.2355 -0.0229 -0.3112
  132MOL   C21739779   7.547   2.245   4.399 -0.4666 -0.8128  0.0073
  132MOL   C21839780   7.429   2.183   4.473  0.5916  0.5890  0.3065
  132MOL   H21939781   7.606   2.726   4.336  0.2355 -0.2256 -0.6787
  132MOL   H22039782   7.472   2.648   4.418 -0.5423  0.6640  0.5783
  132MOL   H22139783   7.425   2.526   4.209  0.3546 -2.0485  1.2438
  132MOL   H22239784   7.590   2.180   4.322  0.0271 -0.7784  0.2516
  132MOL   H22339785   7.609   2.263   4.486 -1.4483  1.2017  0.3412
  132MOL   H22439786   7.390   2.247   4.551  1.0660  1.0447  0.1750
  132MOL   H22539787   7.456   2.086   4.516  1.4272  1.5567  2.0021
  132MOL   H22639788   7.358   2.159   4.394  0.9626  0.2490  0.0723
  132MOL   C22739789   7.591   2.620   4.087 -0.6685  0.2564 -0.6940
  132MOL   C22839790   7.626   2.513   3.977  0.5671 -0.2598  0.9035
  132MOL   C22939791   7.684   2.591   3.855 -0.0767  0.3857  0.1477
  132MOL   O23039792   7.635   2.597   3.745 -0.1974  0.0125 -0.1745
  132MOL   O23139793   7.802   2.650   3.891  0.1483  0.6183 -0.2962
  132MOL   C23239794   7.885   2.693   3.784  0.6032 -0.0160 -0.0721
  132MOL   C23339795   0.083   2.780   3.842  0.0688  0.9148 -0.2642
  132MOL   H23439796   7.540   2.709   4.050 -0.5840  0.9289  0.7792
  132MOL   H23539797   7.679   2.669   4.127 -2.7923  1.2155  3.0236
  132MOL   H23639798   7.711   2.456   4.016  1.1809 -0.0907 -0.1472
  132MOL   H23739799   0.021   2.597   3.759  0.5567  0.2856 -1.3007
  132MOL   H23839800   7.831   2.729   3.696 -0.2563 -1.2356 -0.0569
  132MOL   H23939801   0.133   2.818   3.753 -1.3333  0.7752 -1.1291
  132MOL   H24039802   0.157   2.725   3.899 -0.6921 -1.4378 -1.4854
  132MOL   H24139803   0.061   2.869   3.902  1.2668 -0.8346  2.8575
  132MOL   C24239804   7.510   2.424   3.936  0.5457 -0.4854 -0.5474
  132MOL   C24339805   7.560   2.304   3.862 -0.3605 -0.0387 -0.1181
  132MOL   C24439806   7.459   2.246   3.761  1.0021 -0.2150 -0.5808
  132MOL   O24539807   7.337   2.269   3.761  0.1876 -0.0250  0.0814
  132MOL   O24639808   7.518   2.160   3.688 -0.0127  0.1734 -0.8173
  132MOL   C24739809   7.446   2.070   3.609 -0.9526  0.5708  0.3483
  132MOL   C24839810   7.540   1.945   3.578  0.4103 -0.9262 -0.2973
  132MOL   H24939811   7.440   2.395   4.015  0.3725 -4.1399 -1.9298
  132MOL   H25039812   7.452   2.475   3.860  2.0716 -0.4404 -1.6920
  132MOL   H25139813   7.654   2.314   3.806  1.7317  1.1670  3.4871
  132MOL   H25239814   7.364   2.047   3.677  0.3980  0.9005  2.1282
  132MOL   H25339815   7.399   2.112   3.520 -1.7065  0.5153  0.7154
  132MOL   H25439816   7.483   1.881   3.511 -0.1578 -0.7499  0.0126
  132MOL   H25539817   7.561   1.895   3.673 -0.1213  4.5353  2.9418
  132MOL   H25639818   7.637   1.975   3.538  0.8799  1.4697  2.4328
  132MOL   C25739819   7.592   2.201   3.973  0.6954  0.2554 -0.6557
  132MOL   C25839820   7.685   2.080   3.937 -0.7046  0.5506  0.1977
  132MOL   C25939821   7.669   1.968   4.043  0.8519 -0.1937  1.0891
  132MOL   O26039822   7.619   1.864   4.012 -0.0282  0.0622  0.2445
  132MOL   O26139823   7.711   2.006   4.164  0.2857  0.3138  0.1891
  132MOL   C26239824   7.690   1.927   4.280 -0.0641 -0.3001  0.9386
  132MOL   C26339825   7.804   1.824   4.295  0.2503  0.2040 -0.0614
  132MOL   H26439826   7.637   2.251   4.059  0.2826  0.6225 -0.6513
  132MOL   H26539827   7.511   2.151   4.028 -1.0266  2.2257 -1.3728
  132MOL   H26639828   7.652   2.043   3.840 -0.4719  1.7169 -0.3308
  132MOL   H26739829   7.709   1.997   4.362 -0.6505 -1.4704  2.0823
  132MOL   H26839830   7.589   1.887   4.277  0.1409 -0.8003  0.7233
  132MOL   H26939831   7.902   1.871   4.286  0.7009 -1.2198 -3.3484
  132MOL   H27039832   7.800   1.752   4.213 -2.5040 -1.0544  1.1167
  132MOL   H27139833   7.812   1.769   4.388  0.1534 -0.4154 -0.4164
  132MOL   C27239834   7.835   2.117   3.916  0.8122 -0.5597 -0.1927
  132MOL   C27339835   0.024   2.030   3.845 -0.3189 -0.3849 -0.5418
  132MOL   C27439836   0.031   1.885   3.895 -0.8491  0.3858  0.2941
  132MOL   O27539837   0.105   1.850   3.984  0.1340  0.0648  0.1194
  132MOL   O27639838   7.847   1.810   3.830  0.0590 -0.1385  0.3604
  132MOL   C27739839   7.827   1.674   3.869 -0.2758 -0.2016 -0.2087
  132MOL   C27839840   7.726   1.607   3.771 -0.4208 -0.1126  0.6740
  132MOL   H27939841   7.838   2.214   3.867  3.0476 -1.5311 -2.0767
  132MOL   H28039842   7.876   2.143   4.014 -0.2311 -2.3999  0.7449
  132MOL   H28139843   7.906   2.022   3.739  2.3819 -1.5964 -1.1515
  132MOL   H28239844   0.004   1.609   3.888  0.0871 -0.2409 -1.8841
  132MOL   H28339845   7.785   1.680   3.969 -0.9617  1.1238 -0.5620
  132MOL   H28439846   7.693   1.510   3.810  1.1366 -1.2254 -0.6982
  132MOL   H28539847   7.789   1.589   3.684 -0.9999 -0.3799  0.3090
  132MOL   H28639848   7.636   1.665   3.748  0.2651  0.5406 -0.3790
  132MOL   C28739849   0.164   2.098   3.842 -0.8163  0.1138  0.5371
  132MOL   C28839850   0.292   2.031   3.778 -0.5710  0.0611  0.0219
  132MOL   C28939851   0.273   1.999   3.634  0.4017 -0.4722 -1.0695
  132MOL   O29039852   0.226   1.889   3.594 -0.1498  0.0522  0.7021
  132MOL   O29139853   0.321   2.093   3.553  0.1925  0.1899 -0.5659
  132MOL   C29239854   0.328   2.064   3.411 -0.6975 -1.1013  0.5270
  132MOL   C29339855   0.227   2.134   3.322  0.2674 -0.0931  0.5702
  132MOL   H29439856   0.145   2.192   3.791  0.1843 -0.2970 -0.6217
  132MOL   H29539857   0.188   2.143   3.938  1.3665 -0.2927  0.2175
  132MOL   H29639858   0.369   2.106   3.795  0.3097 -0.4168 -1.6849
  132MOL   H29739859   0.420   2.115   3.383 -1.4381  0.2553  0.5378
  132MOL   H29839860   0.361   1.964   3.382  2.8271 -0.3413  1.7257
  132MOL   H29939861   0.252   2.107   3.220 -1.5246 -0.9951  0.3512
  132MOL   H30039862   0.226   2.243   3.332  2.2637  0.0683 -0.7660
  132MOL   H30139863   0.128   2.095   3.346 -0.1605  0.4574 -0.2688
  132MOL   H30239864   0.322   1.936   3.822 -0.0691  0.3754  0.3602
  133MOL     C139865   4.432   4.069   3.961  0.1492  0.1342 -0.6642
  133MOL     C239866   4.580   4.049   3.928  0.0575 -0.1398  0.5817
  133MOL     C339867   4.602   4.024   3.779 -0.2263 -0.2248  0.5110
  133MOL     O439868   4.698   4.083   3.723  0.3435 -0.5982  0.0427
  133MOL     O539869   4.521   3.945   3.722  0.3972 -0.2987 -0.4194
  133MOL     C639870   4.547   3.895   3.585  0.3235  0.0881  0.1410
  133MOL     C739871   4.626   3.762   3.594 -0.3014  0.2811  0.2888
  133MOL     H839872   4.416   4.134   4.047  1.0043  0.0376 -0.4339
  133MOL     H939873   4.386   3.970   3.968  0.1433  0.2709  1.3740
  133MOL    H1039874   4.626   4.146   3.947  1.8397 -0.5773 -1.3270
  133MOL    H1139875   4.455   3.872   3.530 -0.4604 -1.0730  1.8864
  133MOL    H1239876   4.608   3.970   3.535 -2.8715  3.3604  0.9603
  133MOL    H1339877   4.715   3.768   3.657 -0.7863  0.3852  0.9686
  133MOL    H1439878   4.659   3.723   3.498 -2.5926  1.3707 -1.0060
  133MOL    H1539879   4.559   3.685   3.633  1.4849 -1.4172  0.0525
  133MOL    H1639880   4.375   4.118   3.882  0.8098  0.7922 -0.7277
  133MOL    C1739881   4.631   3.923   4.010  0.2375 -0.4399  0.4053
  133MOL    C1839882   4.754   3.949   4.093  0.0186 -0.3767 -0.4166
  133MOL    C1939883   4.883   3.960   4.005  0.3855 -0.1411  0.1274
  133MOL    O2039884   4.954   4.059   4.015  0.2120 -0.3653  0.2536
  133MOL    O2139885   4.904   3.846   3.936 -0.4329 -0.0069 -0.1439
  133MOL    C2239886   5.011   3.848   3.845 -0.5075 -0.2158 -0.3250
  133MOL    C2339887   4.994   3.942   3.727 -0.1709 -0.1858 -0.1472
  133MOL    H2439888   4.567   3.895   4.095 -1.8518 -0.1985 -1.0508
  133MOL    H2539889   4.657   3.834   3.954  0.1930 -0.6372  0.6997
  133MOL    H2639890   4.739   4.051   4.129  0.9915 -0.5066  0.3698
  133MOL    H2739891   5.108   3.866   3.891  0.4926 -0.8045 -2.1153
  133MOL    H2839892   5.017   3.748   3.802  2.4516  0.0407 -0.6479
  133MOL    H2939893   4.988   4.047   3.756  3.3541  0.2520 -0.7059
  133MOL    H3039894   4.911   3.915   3.663  0.9315 -0.9151 -1.3083
  133MOL    H3139895   5.082   3.936   3.663 -0.6439 -0.7022 -0.7521
  133MOL    C3239896   4.770   3.856   4.214  0.4229  0.2762  0.0091
  133MOL    C3339897   4.889   3.893   4.306 -0.1245 -0.0299 -0.1859
  133MOL    C3439898   4.871   3.797   4.420  0.9364 -0.0484 -0.6226
  133MOL    O3539899   4.853   3.832   4.536  0.2073 -0.4874  0.2313
  133MOL    O3639900   4.879   3.668   4.384 -0.5089  0.2902 -0.3007
  133MOL    C3739901   4.844   3.565   4.472  0.1563 -0.0493  0.6239
  133MOL    C3839902   4.844   3.432   4.394 -1.3163  0.8038  0.5258
  133MOL    H3939903   4.675   3.861   4.268 -0.0105 -0.7229 -0.6518
  133MOL    H4039904   4.787   3.758   4.171 -0.6042  0.1518 -0.1328
  133MOL    H4139905   4.988   3.870   4.265  1.3671  0.6157  2.8659
  133MOL    H4239906   4.927   3.562   4.543  2.8300 -2.1042 -2.4470
  133MOL    H4339907   4.747   3.576   4.520 -0.0769  0.9368 -0.0361
  133MOL    H4439908   4.815   3.351   4.461 -1.5245  1.0355  0.7145
  133MOL    H4539909   4.944   3.407   4.360 -0.9133  0.7439  1.7136
  133MOL    H4639910   4.774   3.434   4.310 -3.1253  1.5009  2.0089
  133MOL    C4739911   4.898   4.035   4.358 -0.2624 -0.3601 -0.3765
  133MOL    C4839912   5.016   4.087   4.445  0.8506  0.4374 -0.2659
  133MOL    C4939913   4.960   4.169   4.567  0.2622  0.9945 -0.0998
  133MOL    O5039914   4.997   4.137   4.678  0.2131 -0.2395  0.0706
  133MOL    O5139915   4.889   4.276   4.542  0.7174 -0.1714  0.2855
  133MOL    C5239916   4.857   4.361   4.652  0.4874 -0.3674  0.6356
  133MOL    C5339917   4.964   4.463   4.677 -0.4229 -0.3556  0.6437
  133MOL    H5439918   4.875   4.106   4.278 -0.7989 -1.6931 -1.4178
  133MOL    H5539919   4.809   4.040   4.420  0.4673 -1.4657  0.7855
  133MOL    H5639920   5.059   3.996   4.489 -0.1562  0.0946  0.0096
  133MOL    H5739921   4.771   4.426   4.633 -0.8248 -1.5923  2.2647
  133MOL    H5839922   4.837   4.306   4.744 -0.0064  0.0281  0.7732
  133MOL    H5939923   5.056   4.406   4.689 -0.2585 -0.1070  0.5547
  133MOL    H6039924   4.962   4.519   4.771 -0.0469 -1.0569  1.0725
  133MOL    H6139925   4.988   4.530   4.595 -0.9422 -1.5745 -0.5164
  133MOL    C6239926   5.129   4.158   4.357 -0.2483  0.1749 -0.2485
  133MOL    C6339927   5.205   4.075   4.257 -0.1952 -0.1017 -0.1735
  133MOL    C6439928   5.315   3.990   4.328  0.0387 -0.7119 -0.5293
  133MOL    O6539929   5.432   4.024   4.338 -0.1755 -0.3786  0.5961
  133MOL    O6639930   5.259   3.888   4.396  0.6803  0.1521 -0.0357
  133MOL    C6739931   5.342   3.796   4.460  0.0103 -0.4617 -0.5150
  133MOL    C6839932   5.285   3.656   4.452  0.5009  0.0604  0.2311
  133MOL    H6939933   5.079   4.230   4.293 -1.0879 -0.1872  0.0005
  133MOL    H7039934   5.190   4.207   4.433 -1.8849 -1.5664  2.2571
  133MOL    H7139935   5.150   4.002   4.196 -0.2292  0.7333 -1.1590
  133MOL    H7239936   5.441   3.799   4.416  0.0550  1.5627 -0.3315
  133MOL    H7339937   5.354   3.821   4.566  1.5411  2.3414 -1.3055
  133MOL    H7439938   5.323   3.576   4.516  0.7459  0.3912  0.4969
  133MOL    H7539939   5.292   3.623   4.348  1.3766 -0.7892  0.5557
  133MOL    H7639940   5.177   3.654   4.462  0.5403 -1.1737  0.4954
  133MOL    C7739941   5.280   4.173   4.159 -0.3306 -0.2903 -0.2079
  133MOL    C7839942   5.392   4.119   4.051 -0.0397 -0.8664 -0.3735
  133MOL    C7939943   5.438   4.237   3.959  0.6879  0.4066  0.4166
  133MOL    O8039944   5.557   4.256   3.935  0.4520 -0.3544  0.0427
  133MOL    O8139945   5.339   4.294   3.895  0.4345 -0.0501 -0.2523
  133MOL    C8239946   5.366   4.406   3.814 -0.0709  0.1031  0.5374
  133MOL    C8339947   5.247   4.487   3.777 -0.3874 -0.4171 -0.0821
  133MOL    H8439948   5.204   4.226   4.102  1.8626  1.4263 -1.6452
  133MOL    H8539949   5.331   4.247   4.221  2.0872 -2.1336  0.0869
  133MOL    H8639950   5.475   4.087   4.114 -1.2299 -0.2449  1.5474
  133MOL    H8739951   5.431   4.474   3.869 -1.8840  2.1258  0.2402
  133MOL    H8839952   5.419   4.377   3.723 -1.4135 -2.1071  0.4472
  133MOL    H8939953   5.184   4.439   3.702 -0.0262  1.0835 -1.3693
  133MOL    H9039954   5.269   4.589   3.746 -0.3721  0.4143  2.4886
  133MOL    H9139955   5.189   4.511   3.866  1.3955  1.9272  0.4912
  133MOL    C9239956   5.357   3.991   3.976  0.0701  0.0100 -0.3811
  133MOL    C9339957   5.450   3.924   3.870  0.0434  0.5998 -0.2668
  133MOL    C9439958   5.378   3.795   3.816 -0.4593  0.3883  0.3798
  133MOL    O9539959   5.323   3.794   3.704 -0.2608 -0.0359 -0.2585
  133MOL    O9639960   5.359   3.702   3.914 -0.3086  0.3055 -0.9660
  133MOL    C9739961   5.303   3.579   3.883 -1.0483 -0.5790 -0.6115
  133MOL    C9839962   5.281   3.509   4.021  0.5086  0.4349 -0.5787
  133MOL    H9939963   5.345   3.918   4.056 -2.2105  0.2458 -0.4613
  133MOL   H10039964   5.266   4.010   3.920  1.0699 -1.7984 -2.7102
  133MOL   H10139965   5.471   3.989   3.785  0.1663  1.8144  0.6654
  133MOL   H10239966   5.204   3.579   3.836 -1.3142 -1.5186 -0.0759
  133MOL   H10339967   5.370   3.514   3.827  0.0175  0.0337 -0.0509
  133MOL   H10439968   5.255   3.403   4.019  0.0394  0.4740  1.7050
  133MOL   H10539969   5.209   3.567   4.080 -2.3741 -3.7217  0.2283
  133MOL   H10639970   5.373   3.506   4.078 -0.5299 -0.3950  1.1041
  133MOL   C10739971   5.585   3.887   3.932  0.0580 -0.4869 -0.0426
  133MOL   C10839972   5.692   3.829   3.835  0.3421 -0.8750  1.1005
  133MOL   C10939973   5.733   3.685   3.872  0.2913 -0.1934 -0.4999
  133MOL   O11039974   5.674   3.589   3.817 -0.2108 -0.2693 -0.4092
  133MOL   O11139975   5.835   3.670   3.960  0.5297  0.3375  1.3591
  133MOL   C11239976   5.886   3.539   3.970 -0.5833 -0.4493 -0.2736
  133MOL   C11339977   6.023   3.541   4.031 -0.0057  0.0959  0.8711
  133MOL   H11439978   5.631   3.977   3.974  0.7923 -1.5442  1.4404
  133MOL   H11539979   5.579   3.817   4.015  1.6084  1.4871  1.7793
  133MOL   H11639980   5.644   3.815   3.738  0.2905 -1.4849  1.2173
  133MOL   H11739981   5.821   3.468   4.021  0.5271 -1.6811 -0.5297
  133MOL   H11839982   5.893   3.508   3.866  2.6947  1.9006 -0.8261
  133MOL   H11939983   6.021   3.605   4.119  0.4266 -0.3866  1.2381
  133MOL   H12039984   6.102   3.580   3.967 -1.3633  0.2754 -0.7250
  133MOL   H12139985   6.051   3.440   4.061  2.6439  0.7480  0.7337
  133MOL   C12239986   5.814   3.917   3.827  0.1618 -0.6644 -0.6270
  133MOL   C12339987   5.806   4.057   3.755 -0.0358 -0.0081 -0.1284
  133MOL   C12439988   5.730   4.056   3.625  0.2208  0.6618  0.3989
  133MOL   O12539989   5.627   4.123   3.608  0.0695 -0.3980  0.0801
  133MOL   O12639990   5.792   3.985   3.528  0.4261 -0.5258  0.1759
  133MOL   C12739991   5.719   3.963   3.407 -0.5915 -0.4276  0.4911
  133MOL   C12839992   5.735   4.079   3.313 -0.1128 -0.0396 -0.3401
  133MOL   H12939993   5.856   3.937   3.926 -1.1725  0.3056 -0.2426
  133MOL   H13039994   5.894   3.864   3.775  0.0816  0.6502 -2.1168
  133MOL   H13139995   5.735   4.105   3.822  1.2809 -0.8301  1.8943
  133MOL   H13239996   5.745   3.868   3.360 -2.3839  0.0059 -1.4781
  133MOL   H13339997   5.615   3.949   3.434 -1.3351  0.3475 -1.8679
  133MOL   H13439998   5.706   4.176   3.351 -1.2229 -0.5395  0.0885
  133MOL   H13539999   5.664   4.060   3.232 -0.5637 -0.8518  0.2386
  133MOL   H13640000   5.838   4.090   3.278  0.6531  0.3656  1.9762
  133MOL   C13740001   5.936   4.136   3.760  0.3231  0.1602 -0.0611
  133MOL   C13840002   5.947   4.281   3.705 -0.3495  0.4142  0.2113
  133MOL   C13940003   6.094   4.328   3.703  0.5530  0.0216  0.6298
  133MOL   O14040004   6.129   4.440   3.744  0.1027 -0.2783 -0.4845
  133MOL   O14140005   6.172   4.239   3.639 -0.2195 -0.4038 -0.0541
  133MOL   C14240006   6.307   4.262   3.644 -0.1154  0.8968 -0.2379
  133MOL   C14340007   6.382   4.131   3.693 -0.3087  0.0960  1.1998
  133MOL   H14440008   6.002   4.117   3.845 -0.1920  3.0056  1.0561
  133MOL   H14540009   5.996   4.085   3.684 -2.2505 -1.0966 -1.3009
  133MOL   H14640010   5.923   4.266   3.599  1.3864 -1.2667  0.0320
  133MOL   H14740011   6.360   4.290   3.553  0.8727  2.4503  0.7853
  133MOL   H14840012   6.335   4.348   3.705  3.6540 -0.4933  0.1488
  133MOL   H14940013   6.357   4.036   3.647  0.3055  0.2452  0.5515
  133MOL   H15040014   6.372   4.115   3.800 -1.8331 -0.0238  1.0511
  133MOL   H15140015   6.490   4.148   3.690 -0.5207  1.4589  0.6945
  133MOL   C15240016   5.839   4.378   3.758 -0.1631  0.4710  0.0929
  133MOL   C15340017   5.811   4.500   3.663  0.5887  0.0292  0.0439
  133MOL   C15440018   5.757   4.617   3.739  0.6651  0.3519  0.1989
  133MOL   O15540019   5.641   4.629   3.777  0.3457  0.2235  0.0407
  133MOL   O15640020   5.847   4.714   3.762  0.3780 -0.4810 -0.6816
  133MOL   C15740021   5.801   4.845   3.784  0.3839  0.0017 -0.7496
  133MOL   C15840022   5.904   4.931   3.713 -0.2438  0.0706 -0.2003
  133MOL   H15940023   5.753   4.315   3.783  0.8273 -0.7050  0.5567
  133MOL   H16040024   5.879   4.415   3.853 -1.9015 -1.3523  1.5759
  133MOL   H16140025   5.906   4.541   3.629  1.1632 -0.4575  1.0402
  133MOL   H16240026   5.705   4.850   3.733  0.6778 -1.6619 -1.4958
  133MOL   H16340027   5.801   4.864   3.892 -2.2965  1.2893 -0.9377
  133MOL   H16440028   6.001   4.923   3.762 -0.3899 -1.9188 -0.1690
  133MOL   H16540029   5.871   5.034   3.717 -1.3177 -0.2290 -0.9286
  133MOL   H16640030   5.922   4.902   3.609  1.7607 -1.9583  0.6715
  133MOL   C16740031   5.719   4.471   3.537 -0.5326 -0.4280  0.5014
  133MOL   C16840032   5.690   4.589   3.435 -0.4718 -0.2995 -0.5735
  133MOL   C16940033   5.818   4.654   3.376 -0.4938  0.0085 -0.4354
  133MOL   O17040034   5.823   4.771   3.348 -0.2496  0.3143 -0.1691
  133MOL   O17140035   5.916   4.561   3.363 -0.2409 -0.2751 -0.2508
  133MOL   C17240036   6.045   4.593   3.316  0.2263 -0.7633 -0.2392
  133MOL   C17340037   6.145   4.501   3.385 -0.1459 -0.4269  0.5290
  133MOL   H17440038   5.767   4.392   3.479 -0.8371  0.4822 -1.0135
  133MOL   H17540039   5.626   4.422   3.569 -1.1009 -0.4447 -1.1321
  133MOL   H17640040   5.649   4.529   3.354 -1.0314 -1.5402  0.6118
  133MOL   H17740041   6.041   4.593   3.207  0.5750  0.4659 -0.2646
  133MOL   H17840042   6.053   4.698   3.345  1.3117 -1.3583  1.6378
  133MOL   H17940043   6.142   4.513   3.493  0.9933 -1.1608  0.6592
  133MOL   H18040044   6.246   4.522   3.347 -0.8261  1.3595 -0.3829
  133MOL   H18140045   6.129   4.396   3.363 -0.0161 -0.1573 -0.9559
  133MOL   C18240046   5.575   4.684   3.473 -1.0303  0.1438  0.1532
  133MOL   C18340047   5.451   4.693   3.381 -0.2018  0.3216 -0.4126
  133MOL   C18440048   5.481   4.744   3.242  0.0214  0.2135 -0.0951
  133MOL   O18540049   5.488   4.667   3.148 -0.0008  0.0285  0.0019
  133MOL   O18640050   5.489   4.880   3.234  0.0541 -0.1336 -0.0658
  133MOL   C18740051   5.511   4.942   3.107  0.1146 -0.7318  0.1784
  133MOL   C18840052   5.556   5.090   3.120 -0.1239 -0.1019 -0.7390
  133MOL   H18940053   5.531   4.652   3.567 -0.2877  1.1176  0.8412
  133MOL   H19040054   5.611   4.784   3.496 -0.1042 -0.0518 -0.3807
  133MOL   H19140055   5.419   4.591   3.360 -3.4154  0.4145  3.3856
  133MOL   H19240056   5.590   4.887   3.057  0.2747 -0.9451  0.6640
  133MOL   H19340057   5.423   4.938   3.042 -1.9063  3.1039  2.4800
  133MOL   H19440058   5.579   5.130   3.021  1.5686 -1.4510 -0.8978
  133MOL   H19540059   5.644   5.086   3.183 -1.4737 -0.5757  1.1646
  133MOL   H19640060   5.474   5.153   3.155  0.2981 -0.3030  0.6110
  133MOL   C19740061   5.328   4.765   3.454 -0.1365  0.6780 -0.2161
  133MOL   C19840062   5.196   4.764   3.385  0.2798 -0.5213 -0.1213
  133MOL   C19940063   5.119   4.898   3.396 -0.5667 -0.1934 -0.1212
  133MOL   O20040064   5.091   4.971   3.298 -0.5532  0.1837 -0.2906
  133MOL   O20140065   5.075   4.914   3.520 -0.2265  0.1606  0.0508
  133MOL   C20240066   4.978   5.014   3.545  0.2945 -0.5973  0.1201
  133MOL   C20340067   5.048   5.151   3.560  0.0270  0.2138  0.0238
  133MOL   H20440068   5.326   4.709   3.548 -1.3349 -1.9617 -1.7569
  133MOL   H20540069   5.365   4.863   3.485  2.0319 -0.1856 -0.0169
  133MOL   H20640070   5.206   4.744   3.279 -0.3591 -0.2364 -0.2369
  133MOL   H20740071   4.911   5.014   3.459  0.8960  2.3204 -0.3982
  133MOL   H20840072   4.914   4.982   3.627 -0.1417 -1.0394 -0.3894
  133MOL   H20940073   5.124   5.145   3.638  2.4378 -0.6833 -2.2984
  133MOL   H21040074   4.988   5.239   3.583 -1.0339 -0.8581  1.4198
  133MOL   H21140075   5.119   5.180   3.482  1.4956 -0.2462  1.1652
  133MOL   C21240076   5.107   4.650   3.440  0.1644  0.1461  0.3503
  133MOL   C21340077   4.992   4.606   3.354  0.4490  0.0914  0.0271
  133MOL   C21440078   4.894   4.512   3.424  0.2438  0.6271 -0.6657
  133MOL   O21540079   4.773   4.510   3.394  0.0171  0.2446 -0.4484
  133MOL   O21640080   4.951   4.434   3.522  0.4937 -0.6064 -0.3264
  133MOL   C21740081   4.875   4.320   3.574 -0.4255 -0.6465  0.2117
  133MOL   C21840082   4.881   4.197   3.479  0.4113 -0.3018 -0.3856
  133MOL   H21940083   5.170   4.564   3.460 -0.9848 -0.8196 -0.0790
  133MOL   H22040084   5.074   4.677   3.541  0.4142 -0.1995  0.5259
  133MOL   H22140085   4.935   4.696   3.330 -2.1170 -1.8614 -1.4383
  133MOL   H22240086   4.920   4.288   3.668  0.7539 -0.9643 -0.4583
  133MOL   H22340087   4.774   4.359   3.585  0.1702  1.3991 -1.2000
  133MOL   H22440088   4.813   4.216   3.396  0.3524 -2.7273 -0.9314
  133MOL   H22540089   4.839   4.111   3.530 -1.9822  0.0845 -1.6469
  133MOL   H22640090   4.977   4.176   3.431  0.6889 -0.6324  0.3115
  133MOL   C22740091   5.041   4.544   3.220 -0.3401 -0.4757  0.0372
  133MOL   C22840092   5.002   4.637   3.098 -0.8859  0.0988 -0.2225
  133MOL   C22940093   4.851   4.655   3.095  0.0604 -0.4855  0.2228
  133MOL   O23040094   4.804   4.763   3.081 -0.5498 -0.1136 -0.0536
  133MOL   O23140095   4.776   4.535   3.104 -0.2794 -0.3079 -0.0774
  133MOL   C23240096   4.634   4.544   3.127 -0.8366 -0.1375 -0.1573
  133MOL   C23340097   4.561   4.503   2.997  0.1408  0.1264 -0.1892
  133MOL   H23440098   5.148   4.525   3.231 -0.5328 -0.5103  1.9670
  133MOL   H23540099   4.994   4.447   3.205 -2.4412  0.5256  0.0136
  133MOL   H23640100   5.039   4.731   3.138  0.7883 -0.1188 -1.2001
  133MOL   H23740101   4.601   4.484   3.212  0.1955  1.1897  1.1820
  133MOL   H23840102   4.611   4.642   3.168 -0.9051 -0.3857  0.3968
  133MOL   H23940103   4.598   4.559   2.911  0.5516  0.3627  0.1396
  133MOL   H24040104   4.456   4.504   3.024 -0.2515  2.4434 -1.6415
  133MOL   H24140105   4.584   4.397   2.982  0.9958  0.2298  0.3831
  133MOL   C24240106   5.060   4.594   2.953  0.3064  0.8529  0.5915
  133MOL   C24340107   5.019   4.684   2.832  0.0808  0.0818 -0.2206
  133MOL   C24440108   5.052   4.613   2.700  0.4590  0.2409  0.0142
  133MOL   O24540109   4.969   4.530   2.656 -0.3450 -0.2743 -0.0857
  133MOL   O24640110   5.176   4.647   2.652  0.5523  0.8315 -0.3573
  133MOL   C24740111   5.228   4.571   2.545  0.0710  0.3776 -0.1716
  133MOL   C24840112   5.296   4.442   2.594  0.0053 -0.2473  0.2909
  133MOL   H24940113   5.168   4.592   2.958  0.2411  1.5200  2.5979
  133MOL   H25040114   5.037   4.489   2.933  1.3474  0.2554  2.4524
  133MOL   H25140115   4.910   4.681   2.823 -0.3253 -1.7849  4.0997
  133MOL   H25240116   5.155   4.540   2.471  2.2119 -0.7406 -1.8474
  133MOL   H25340117   5.303   4.633   2.497 -0.6995  2.5578  1.3850
  133MOL   H25440118   5.229   4.385   2.659  0.6130 -1.4075 -0.0802
  133MOL   H25540119   5.376   4.479   2.658  1.2797 -2.2664 -0.0983
  133MOL   H25640120   5.341   4.375   2.521  1.1759  0.8974 -0.0595
  133MOL   C25740121   5.060   4.833   2.847  0.0198  0.5334  0.2582
  133MOL   C25840122   4.977   4.926   2.756 -0.6083 -0.4421  0.8599
  133MOL   C25940123   5.080   5.017   2.685 -0.3842  0.3682 -0.2210
  133MOL   O26040124   5.123   4.994   2.572  1.0472  0.8382  0.5581
  133MOL   O26140125   5.122   5.122   2.756 -0.2972  0.4067  0.2023
  133MOL   C26240126   5.242   5.191   2.718 -0.2081 -0.1997 -0.1650
  133MOL   C26340127   5.369   5.133   2.791  0.0738 -0.2657  0.4491
  133MOL   H26440128   5.049   4.866   2.950 -1.5863  2.3258 -0.4663
  133MOL   H26540129   5.163   4.840   2.812  0.1477  2.1449  0.9284
  133MOL   H26640130   4.931   4.876   2.671  0.7053  1.5215 -1.0719
  133MOL   H26740131   5.255   5.186   2.610 -5.1797 -2.8115 -0.7679
  133MOL   H26840132   5.229   5.299   2.732  3.2276  0.5902 -2.4633
  133MOL   H26940133   5.367   5.025   2.775  1.2987 -0.0792 -1.1504
  133MOL   H27040134   5.379   5.152   2.898 -0.1653  1.0594  0.2411
  133MOL   H27140135   5.452   5.180   2.738 -0.3238  0.7624  0.7260
  133MOL   C27240136   4.857   4.993   2.831  0.0468 -0.1570 -0.3430
  133MOL   C27340137   4.775   5.082   2.737 -0.0452  0.2404 -0.2848
  133MOL   C27440138   4.802   5.231   2.749 -0.9089  0.6021  0.6379
  133MOL   O27540139   4.794   5.292   2.856  0.2273  0.0646  0.0530
  133MOL   O27640140   4.862   5.276   2.634 -0.5159 -0.4286 -0.5611
  133MOL   C27740141   4.896   5.409   2.615  0.0658  0.0830  0.1406
  133MOL   C27840142   4.984   5.415   2.500  0.8912  0.7190  0.1052
  133MOL   H27940143   4.798   4.909   2.868  1.5997 -1.1459 -0.0688
  133MOL   H28040144   4.896   5.053   2.914 -0.1094  1.2591 -1.2715
  133MOL   H28140145   4.798   5.039   2.640 -0.7372  1.0778 -0.8196
  133MOL   H28240146   4.806   5.468   2.601 -0.3839 -0.5558  0.3426
  133MOL   H28340147   4.931   5.458   2.706 -0.2534  1.4828 -0.4703
  133MOL   H28440148   4.997   5.519   2.468  3.8518  0.2177 -0.5067
  133MOL   H28540149   4.937   5.366   2.416  0.1998  0.3833  0.6876
  133MOL   H28640150   5.087   5.385   2.518  1.2262  1.1302 -1.0546
  133MOL   C28740151   4.615   5.060   2.760 -0.9753  0.1443  0.3342
  133MOL   C28840152   4.535   5.128   2.643  0.1390 -0.1245  0.3305
  133MOL   C28940153   4.387   5.091   2.635 -0.5707  0.0866  0.7463
  133MOL   O29040154   4.360   4.974   2.643  0.1936  0.4270 -0.3388
  133MOL   O29140155   4.300   5.189   2.607  0.1905 -0.5881  0.3639
  133MOL   C29240156   4.164   5.170   2.570  0.0399  0.0688  0.7030
  133MOL   C29340157   4.095   5.310   2.582 -0.3863  0.0462  0.0295
  133MOL   H29440158   4.589   4.955   2.774  0.2576 -0.3288 -0.8117
  133MOL   H29540159   4.586   5.116   2.849 -3.2010 -0.8504  0.2627
  133MOL   H29640160   4.533   5.235   2.660  1.3880 -0.3533  2.1532
  133MOL   H29740161   4.163   5.133   2.468  2.9658  0.8482  0.3397
  133MOL   H29840162   4.111   5.093   2.625  0.3112 -0.8420 -0.3060
  133MOL   H29940163   4.139   5.384   2.515  2.6969 -1.3114  0.4395
  133MOL   H30040164   4.104   5.354   2.681 -1.2622 -1.7226  0.9254
  133MOL   H30140165   3.991   5.308   2.551  0.5019  1.1146 -3.2256
  133MOL   H30240166   4.574   5.092   2.548 -0.2176  0.4798 -0.0440
  134MOL     C140167   0.107   4.563   0.061  0.2504 -0.9690 -0.5739
  134MOL     C240168   0.036   4.631   0.177  0.2176 -0.1612  1.2309
  134MOL     C340169   7.884   4.770   0.143 -0.6159 -0.1845  0.2275
  134MOL     O440170   0.017   4.835   0.051 -0.5515  0.6678  0.0815
  134MOL     O540171   7.767   4.795   0.213  0.6434  0.1818  0.3073
  134MOL     C640172   7.704   4.921   0.219  0.1573  0.6326  0.5138
  134MOL     C740173   7.553   4.906   0.198 -0.2196 -0.0179  0.1698
  134MOL     H840174   0.213   4.586   0.054  0.0584 -0.0274 -0.4301
  134MOL     H940175   0.062   4.580   7.872 -0.0666  0.4445 -0.1984
  134MOL    H1040176   7.850   4.576   0.189  0.8624 -1.6318 -0.3212
  134MOL    H1140177   7.723   4.959   0.320  1.6174 -0.5821  0.7075
  134MOL    H1240178   7.746   4.991   0.147  0.8297 -1.8670 -1.6065
  134MOL    H1340179   7.494   4.992   0.166  2.1227  1.4219 -0.3335
  134MOL    H1440180   7.520   4.869   0.296 -0.1624 -1.8886 -0.4980
  134MOL    H1540181   7.536   4.823   0.130  0.8097 -0.4903  0.4817
  134MOL    H1640182   0.097   4.455   0.072 -0.6037 -0.8776 -0.4359
  134MOL    C1740183   0.098   4.613   0.314 -0.5636 -0.1395 -0.3014
  134MOL    C1840184   0.240   4.681   0.327  0.7129  0.0263 -0.7503
  134MOL    C1940185   0.348   4.570   0.299  0.2054  0.5769  0.4262
  134MOL    O2040186   0.424   4.591   0.206 -0.4509  0.4718  0.1690
  134MOL    O2140187   0.337   4.468   0.380  0.4345 -1.0884 -0.1697
  134MOL    C2240188   0.426   4.355   0.367 -0.2406  0.1657  0.0915
  134MOL    C2340189   0.362   4.247   0.281 -0.6040  0.7202  0.0917
  134MOL    H2440190   0.032   4.650   0.393  0.8419 -1.1230  1.3776
  134MOL    H2540191   0.089   4.507   0.339  0.9162 -0.0980  0.4349
  134MOL    H2640192   0.248   4.754   0.247 -0.6197  3.3787  2.0529
  134MOL    H2740193   0.522   4.391   0.329 -0.2048 -2.1576 -2.1287
  134MOL    H2840194   0.433   4.302   0.462 -5.2857  0.1689  0.6205
  134MOL    H2940195   0.261   4.218   0.313  0.7359 -1.1013  2.8874
  134MOL    H3040196   0.433   4.165   0.285  1.4509  2.4104 -0.8699
  134MOL    H3140197   0.365   4.273   0.176 -2.0228 -2.1995 -0.7211
  134MOL    C3240198   0.265   4.755   0.460 -0.3387  0.6504 -0.0701
  134MOL    C3340199   0.173   4.877   0.502 -0.7715  1.1310 -0.6544
  134MOL    C3440200   0.182   5.000   0.410  0.4012 -0.0817  0.6283
  134MOL    O3540201   0.079   5.026   0.350 -0.2345 -0.4760  0.2601
  134MOL    O3640202   0.302   5.054   0.402  0.5147  0.0653  0.2963
  134MOL    C3740203   0.317   5.172   0.321 -0.4299 -0.9305  0.0822
  134MOL    C3840204   0.458   5.228   0.360 -0.7439  0.4865  0.6207
  134MOL    H3940205   0.251   4.672   0.530 -1.1613 -0.0491 -1.0378
  134MOL    H4040206   0.369   4.778   0.479 -0.5210  0.8904  0.6346
  134MOL    H4140207   0.068   4.849   0.500 -1.1806  2.2983  2.3124
  134MOL    H4240208   0.329   5.151   0.214 -0.7438  0.4520 -0.2357
  134MOL    H4340209   0.237   5.246   0.325  1.2582  0.9282  0.5414
  134MOL    H4440210   0.480   5.324   0.312 -0.1493 -0.2967 -0.7057
  134MOL    H4540211   0.534   5.157   0.328 -0.5227  1.2830 -0.6792
  134MOL    H4640212   0.466   5.258   0.464 -2.2084  1.7171  0.4001
  134MOL    C4740213   0.186   4.908   0.660  0.0664  0.1936 -0.5986
  134MOL    C4840214   0.125   5.036   0.712  0.0460 -0.2737 -0.4383
  134MOL    C4940215   0.233   5.142   0.703  0.0989 -0.9472 -0.1780
  134MOL    O5040216   0.350   5.114   0.694  0.0540 -0.7187  0.1263
  134MOL    O5140217   0.191   5.272   0.709  0.7626  0.0757 -0.6992
  134MOL    C5240218   0.288   5.375   0.730 -0.2774 -0.7940 -0.1527
  134MOL    C5340219   0.234   5.510   0.682 -0.3572  0.6036  0.6252
  134MOL    H5440220   0.134   4.828   0.712 -0.5562 -0.3173 -1.9906
  134MOL    H5540221   0.279   4.877   0.707 -1.5674 -1.0015  1.9298
  134MOL    H5640222   0.036   5.060   0.654 -0.8074 -1.0094  0.5560
  134MOL    H5740223   0.299   5.382   0.838  0.8571 -0.6532 -0.2644
  134MOL    H5840224   0.387   5.350   0.690  0.0242  1.8045 -1.1263
  134MOL    H5940225   0.128   5.520   0.706 -0.8942 -0.3266 -1.2455
  134MOL    H6040226   0.269   5.530   0.581 -2.3852 -0.0598 -0.2489
  134MOL    H6140227   0.285   5.587   0.740 -2.2361  0.3400  2.7023
  134MOL    C6240228   0.074   5.026   0.857  0.2392  0.5453  0.2999
  134MOL    C6340229   7.876   4.914   0.893  0.0120  0.0370  0.4571
  134MOL    C6440230   7.760   4.912   0.777 -0.7468 -0.1787  0.1067
  134MOL    O6540231   7.758   4.819   0.700  0.2381  0.2617  0.1553
  134MOL    O6640232   7.682   5.021   0.778 -0.4048  0.1572 -0.7750
  134MOL    C6740233   7.575   5.053   0.692  0.5506  0.5134 -1.0785
  134MOL    C6840234   7.622   5.066   0.543  0.0245 -1.4443 -0.0727
  134MOL    H6940235   0.156   5.025   0.928  0.3035 -2.5071  0.2181
  134MOL    H7040236   0.042   5.126   0.886 -0.6592  1.0658 -2.3814
  134MOL    H7140237   0.018   4.818   0.881 -1.9017 -0.9513  0.1916
  134MOL    H7240238   7.506   4.970   0.700  1.0067  0.2589  0.2932
  134MOL    H7340239   7.525   5.145   0.724 -0.4557 -0.6186  0.6790
  134MOL    H7440240   7.686   5.154   0.541  0.9920 -2.1523 -0.1020
  134MOL    H7540241   7.535   5.088   0.481 -1.4111 -0.2682  2.2886
  134MOL    H7640242   7.682   4.983   0.507 -1.5900 -2.7720  0.2489
  134MOL    C7740243   7.806   4.941   1.028  0.1503 -0.1098 -0.2929
  134MOL    C7840244   7.710   4.832   1.081 -0.9240 -0.1882  0.4708
  134MOL    C7940245   7.599   4.888   1.166  0.6724  0.2290 -0.6059
  134MOL    O8040246   7.479   4.857   1.140 -0.1504 -0.1838  0.1720
  134MOL    O8140247   7.640   4.964   1.268  0.0654  0.4609  0.7599
  134MOL    C8240248   7.554   5.016   1.366  0.4574  0.4011 -0.1972
  134MOL    C8340249   7.550   4.928   1.493 -0.1999 -0.5114 -0.3285
  134MOL    H8440250   7.884   4.969   1.100  0.8025 -0.8209 -0.7103
  134MOL    H8540251   7.749   5.034   1.024  3.0251  1.6577 -1.9770
  134MOL    H8640252   7.654   4.791   0.997 -0.1892  0.1610 -0.1999
  134MOL    H8740253   7.589   5.112   1.405 -0.0849 -0.0056  1.3465
  134MOL    H8840254   7.451   5.031   1.333 -0.3066 -0.2592  1.8012
  134MOL    H8940255   7.476   4.975   1.558 -0.8885  1.1872 -2.3066
  134MOL    H9040256   7.645   4.927   1.548  0.0345 -0.4378 -0.7313
  134MOL    H9140257   7.526   4.826   1.464 -0.3072 -0.6922  0.3770
  134MOL    C9240258   7.781   4.720   1.166 -0.3864  0.2558 -0.0455
  134MOL    C9340259   7.699   4.587   1.150 -0.0067 -0.0716  0.6147
  134MOL    C9440260   7.589   4.552   1.252  0.0560 -0.3815 -0.2185
  134MOL    O9540261   7.610   4.558   1.372  0.0482 -0.6867 -0.3595
  134MOL    O9640262   7.472   4.519   1.200  0.3969 -0.3785  0.1643
  134MOL    C9740263   7.356   4.511   1.289  0.3519  0.1670 -0.8432
  134MOL    C9840264   7.256   4.414   1.228 -0.3990  0.0475  0.4564
  134MOL    H9940265   7.880   4.705   1.123 -0.9306 -0.9365 -0.9009
  134MOL   H10040266   7.791   4.740   1.273 -0.0439 -2.0695  0.3838
  134MOL   H10140267   7.645   4.587   1.056 -0.2833  0.9810  0.7747
  134MOL   H10240268   7.379   4.458   1.381 -0.0353 -0.4807 -1.1111
  134MOL   H10340269   7.317   4.610   1.311 -1.3224 -0.8675  1.0031
  134MOL   H10440270   7.234   4.445   1.126 -0.4443 -1.4865 -0.0242
  134MOL   H10540271   7.161   4.405   1.280 -0.8504  1.0532 -0.1730
  134MOL   H10640272   7.291   4.311   1.219  1.4242  0.7926 -1.2897
  134MOL   C10740273   7.795   4.468   1.124 -0.0870 -0.3571 -0.2797
  134MOL   C10840274   7.854   4.467   0.976 -0.4126 -0.9549  0.4105
  134MOL   C10940275   7.743   4.445   0.870  0.9979 -0.5571 -0.3140
  134MOL   O11040276   7.642   4.380   0.896  0.1705  0.4293  0.2751
  134MOL   O11140277   7.758   4.517   0.751  0.0449 -0.1229  0.6266
  134MOL   C11240278   7.657   4.502   0.655  0.0826 -0.8088  0.9864
  134MOL   C11340279   7.700   4.520   0.513  0.4414  0.5023  0.2997
  134MOL   H11440280   7.866   4.462   1.206  1.0607  1.1775 -1.1472
  134MOL   H11540281   7.731   4.382   1.146  0.4682 -0.4879  0.8254
  134MOL   H11640282   7.899   4.563   0.954 -1.0409 -0.7280  0.0849
  134MOL   H11740283   7.607   4.405   0.663 -0.3428 -0.5814  1.0950
  134MOL   H11840284   7.577   4.572   0.677  0.7751  1.5601 -3.4130
  134MOL   H11940285   7.690   4.625   0.487 -1.8855 -0.2751 -2.1685
  134MOL   H12040286   7.639   4.463   0.443  2.3031  0.7517 -1.5986
  134MOL   H12140287   7.802   4.482   0.502  1.1400  2.2997  0.4440
  134MOL   C12240288   0.063   4.353   0.967  0.2648  0.1090 -0.5183
  134MOL   C12340289   0.182   4.359   0.871  0.0746 -0.2944 -0.2111
  134MOL   C12440290   0.281   4.477   0.888 -0.0267 -0.4123  0.2002
  134MOL   O12540291   0.309   4.553   0.797 -0.5102  0.3108 -0.1139
  134MOL   O12640292   0.321   4.500   1.018 -0.3150  0.2595  0.2276
  134MOL   C12740293   0.396   4.621   1.038  0.2550 -0.2104  0.6443
  134MOL   C12840294   0.308   4.737   1.079  0.2903 -0.8076 -0.0362
  134MOL   H12940295   0.109   4.342   1.066 -2.1498 -5.3636  0.2095
  134MOL   H13040296   0.012   4.259   0.950 -0.2681  0.0228  1.4316
  134MOL   H13140297   0.247   4.277   0.903 -1.0262 -1.1406 -0.1391
  134MOL   H13240298   0.466   4.617   1.121  2.1627  3.4861 -0.6591
  134MOL   H13340299   0.448   4.650   0.947 -1.4782  1.5427  0.1615
  134MOL   H13440300   0.235   4.771   1.005 -0.7442  0.3175  1.4585
  134MOL   H13540301   0.378   4.818   1.097  0.6164 -0.9503 -0.6566
  134MOL   H13640302   0.253   4.724   1.173  1.6762  1.0557  1.0622
  134MOL   C13740303   0.143   4.337   0.720  0.5382  0.2590  0.1008
  134MOL   C13840304   0.067   4.208   0.675  0.9363  0.8058 -0.1010
  134MOL   C13940305   0.128   4.087   0.752 -0.0044 -0.5381 -0.4461
  134MOL   O14040306   0.246   4.059   0.749  0.5801 -0.2256 -0.7104
  134MOL   O14140307   0.027   4.020   0.811  0.2031  0.0914  0.2226
  134MOL   C14240308   0.059   3.904   0.882 -0.0154 -0.5803 -0.4228
  134MOL   C14340309   0.147   3.941   1.014  0.6652  0.0952 -0.0451
  134MOL   H14440310   0.082   4.423   0.692 -0.7565 -0.7833 -0.3491
  134MOL   H14540311   0.235   4.331   0.661  0.9079 -4.1988  1.0077
  134MOL   H14640312   7.869   4.222   0.694  1.0215 -0.0403  1.0302
  134MOL   H14740313   7.874   3.852   0.905  0.3937 -1.4205 -0.6343
  134MOL   H14840314   0.113   3.840   0.812 -1.3742 -0.0824 -1.9716
  134MOL   H14940315   0.096   4.021   1.067 -0.0918 -0.9799  0.8798
  134MOL   H15040316   0.242   3.984   0.982  0.5039 -0.5238 -1.3704
  134MOL   H15140317   0.163   3.858   1.084  1.0446 -0.5714 -0.9203
  134MOL   C15240318   0.085   4.191   0.524  0.0574  0.0448  0.4550
  134MOL   C15340319   7.893   4.098   0.451 -0.9627  0.2970  0.5547
  134MOL   C15440320   0.031   3.946   0.449 -0.1374 -0.0340  0.0693
  134MOL   O15540321   7.860   3.861   0.479 -0.3928  1.1455 -0.8513
  134MOL   O15640322   0.164   3.926   0.423  0.9264 -0.1353 -0.3153
  134MOL   C15740323   0.208   3.792   0.440  0.1041 -0.5147 -0.3812
  134MOL   C15840324   0.215   3.759   0.584 -0.7370  0.4856 -0.0774
  134MOL   H15940325   0.083   4.291   0.481  1.2955 -0.1765 -0.1289
  134MOL   H16040326   0.184   4.165   0.487 -0.1785  0.4316 -0.4575
  134MOL   H16140327   7.800   4.115   0.505 -0.4971  0.2877  1.3757
  134MOL   H16240328   0.158   3.730   0.366  0.5584 -1.3828  0.0378
  134MOL   H16340329   0.310   3.801   0.403 -0.4408 -0.6123 -1.9339
  134MOL   H16440330   0.269   3.828   0.649 -0.0489  0.1109 -0.2487
  134MOL   H16540331   0.254   3.658   0.597 -2.1102 -0.0330  0.1093
  134MOL   H16640332   0.115   3.749   0.626 -0.4275  0.0764  0.5750
  134MOL   C16740333   7.867   4.153   0.309  0.1289 -0.0543 -0.1566
  134MOL   C16840334   7.774   4.063   0.221  0.4562 -0.0637  0.1267
  134MOL   C16940335   7.789   4.101   0.071  0.1674 -0.2567  0.6283
  134MOL   O17040336   7.812   4.215   0.027 -0.0969 -0.1482  0.5349
  134MOL   O17140337   7.761   4.004   7.897  0.1827 -0.2713 -0.2611
  134MOL   C17240338   7.792   4.004   7.758  0.6697 -0.6463  0.0263
  134MOL   C17340339   7.768   3.859   7.707 -0.5405 -0.2550  0.0040
  134MOL   H17440340   7.816   4.249   0.301 -2.4950 -1.3258  0.9587
  134MOL   H17540341   0.055   4.158   0.258 -1.1435 -0.6125 -2.7207
  134MOL   H17640342   7.803   3.958   0.221 -2.3523 -0.8992  2.8934
  134MOL   H17740343   7.737   4.088   7.715  0.1214 -0.4774  1.0389
  134MOL   H17840344   7.897   4.025   7.739  0.5194 -0.4344 -0.5951
  134MOL   H17940345   7.660   3.841   7.703 -0.4947 -0.7900  1.0068
  134MOL   H18040346   7.807   3.786   7.778  1.3416 -0.0810 -0.8256
  134MOL   H18140347   7.817   3.854   7.610 -1.3626  1.9469 -0.5522
  134MOL   C18240348   7.628   4.060   0.283 -0.6437  0.5310  0.9727
  134MOL   C18340349   7.576   3.924   0.332  0.3281 -0.0240  0.1827
  134MOL   C18440350   7.569   3.815   0.218  0.5670  0.3508  0.3528
  134MOL   O18540351   7.648   3.717   0.209 -0.3033 -0.1559 -0.6711
  134MOL   O18640352   7.480   3.852   0.120  0.4006  0.1904  0.0555
  134MOL   C18740353   7.465   3.768   0.008 -0.2243 -0.0334  0.0446
  134MOL   C18840354   7.321   3.708   0.031  0.3269 -0.3626 -0.9945
  134MOL   H18940355   7.640   4.130   0.366  0.6408  1.5139 -0.0008
  134MOL   H19040356   7.551   4.098   0.216  0.3396 -0.4453 -0.7680
  134MOL   H19140357   7.639   3.885   0.412 -1.8927 -2.8196  0.6414
  134MOL   H19240358   7.454   3.838   7.833  0.7666 -0.4817 -0.4675
  134MOL   H19340359   7.549   3.704   7.891 -1.0869 -1.4111  0.5539
  134MOL   H19440360   7.292   3.657   7.848  1.2957 -1.2189 -0.8320
  134MOL   H19540361   7.255   3.788   0.064  1.8863  0.8234 -0.6869
  134MOL   H19640362   7.322   3.637   0.113 -0.9647  3.1129  2.2048
  134MOL   C19740363   7.442   3.947   0.399  0.4916 -0.7736 -0.0829
  134MOL   C19840364   7.435   4.050   0.513  0.0223  0.3534 -0.3284
  134MOL   C19940365   7.546   4.026   0.625  0.1867  0.2619  0.9737
  134MOL   O20040366   7.612   4.116   0.678  0.0635  0.0794  0.1559
  134MOL   O20140367   7.561   3.902   0.652  0.2863  0.5217  0.2669
  134MOL   C20240368   7.668   3.866   0.741  0.6052  0.6600  0.4080
  134MOL   C20340369   7.689   3.711   0.735  0.6090 -0.8242  0.0527
  134MOL   H20440370   7.366   3.982   0.330  0.3594  2.5121  1.6503
  134MOL   H20540371   7.416   3.852   0.444 -0.2327  0.0824  1.3113
  134MOL   H20640372   7.453   4.151   0.475  0.5986  0.2442 -0.3464
  134MOL   H20740373   7.760   3.912   0.707  0.3851  0.0142 -1.0708
  134MOL   H20840374   7.649   3.877   0.848 -2.3156 -0.2143  0.0308
  134MOL   H20940375   7.607   3.655   0.779  0.5102  0.2149  1.2200
  134MOL   H21040376   7.774   3.698   0.803  0.5426  2.5978  0.8917
  134MOL   H21140377   7.714   3.663   0.641  0.5377 -0.2307 -0.2704
  134MOL   C21240378   7.292   4.053   0.569  0.8043 -0.5912  0.0284
  134MOL   C21340379   7.249   4.182   0.639 -0.4059 -0.3241 -0.6979
  134MOL   C21440380   7.233   4.172   0.792  0.3882  0.3033 -0.2683
  134MOL   O21540381   7.120   4.187   0.843 -0.2196 -0.2173 -0.5338
  134MOL   O21640382   7.346   4.142   0.852 -0.1887 -0.1241 -0.1762
  134MOL   C21740383   7.354   4.170   0.994  0.5780 -0.4121  0.1077
  134MOL   C21840384   7.493   4.117   1.025 -0.7346  0.0112  0.0645
  134MOL   H21940385   7.220   4.031   0.491  2.2421  0.4690 -1.6518
  134MOL   H22040386   7.277   3.971   0.639 -0.8319  0.1695  0.5898
  134MOL   H22140387   7.341   4.238   0.628  0.1221 -0.8607  0.8374
  134MOL   H22240388   7.342   4.276   1.015  0.1138 -0.9795  2.9877
  134MOL   H22340389   7.279   4.125   1.059 -0.7162 -0.4532 -1.3824
  134MOL   H22440390   7.523   4.141   1.127 -2.4605 -0.8561  0.8002
  134MOL   H22540391   7.560   4.167   0.954  0.2362  1.3174  1.8591
  134MOL   H22640392   7.504   4.009   1.014 -1.8115  0.0715 -1.8599
  134MOL   C22740393   7.135   4.258   0.573  0.5344  0.5236 -0.0039
  134MOL   C22840394   7.171   4.307   0.430  0.5103 -0.0580 -0.1123
  134MOL   C22940395   7.282   4.410   0.420  0.4321  0.4588  0.1378
  134MOL   O23040396   7.389   4.379   0.372  0.0253 -0.2539  0.6341
  134MOL   O23140397   7.242   4.537   0.465  0.0553  0.3226 -0.1183
  134MOL   C23240398   7.339   4.642   0.447 -0.0439  0.3771  0.1128
  134MOL   C23340399   7.265   4.767   0.501 -0.2141 -0.0071  0.3601
  134MOL   H23440400   7.048   4.193   0.561  1.0168 -0.3588  1.2359
  134MOL   H23540401   7.096   4.336   0.638 -0.3660 -0.0638  0.1842
  134MOL   H23640402   7.199   4.231   0.358 -0.3503  0.8751 -1.4731
  134MOL   H23740403   7.418   4.623   0.520  0.5233  0.0197 -0.5980
  134MOL   H23840404   7.369   4.656   0.344  0.4359 -0.7367  0.0958
  134MOL   H23940405   7.326   4.857   0.507 -0.5777  0.1491  1.9773
  134MOL   H24040406   7.236   4.756   0.605 -0.2324  0.6264  0.4289
  134MOL   H24140407   7.182   4.775   0.430  0.4033  2.1222 -0.1719
  134MOL   C24240408   7.042   4.370   0.361 -0.0357 -0.2690 -0.7227
  134MOL   C24340409   6.940   4.273   0.314  0.1452  0.3488  0.5872
  134MOL   C24440410   6.992   4.179   0.212 -0.1260  0.4245 -0.1894
  134MOL   O24540411   6.991   4.059   0.227  0.0248 -0.1104 -0.0602
  134MOL   O24640412   7.056   4.249   0.113 -0.5507  0.2078 -0.0868
  134MOL   C24740413   7.124   4.179   0.010  0.8016  0.1800 -1.6222
  134MOL   C24840414   7.270   4.179   0.048  0.3266  0.0769  0.2575
  134MOL   H24940415   6.996   4.439   0.432  1.7460 -0.9286  1.1354
  134MOL   H25040416   7.075   4.440   0.283  1.7054 -1.0345 -0.6981
  134MOL   H25140417   6.906   4.214   0.398 -1.3642 -2.2650 -1.7636
  134MOL   H25240418   7.084   4.078   0.007  1.0158 -0.2061  3.8527
  134MOL   H25340419   7.111   4.225   7.820  2.4289  3.1454 -0.5173
  134MOL   H25440420   7.331   4.139   7.875 -0.5227  1.3491 -1.0331
  134MOL   H25540421   7.277   4.119   0.139 -2.2034 -0.4075  0.1681
  134MOL   H25640422   7.317   4.276   0.064 -0.7668  0.6201  0.2192
  134MOL   C25740423   6.805   4.338   0.263  0.2341 -0.5155 -0.3903
  134MOL   C25840424   6.692   4.238   0.230 -0.1020  0.2642  0.0281
  134MOL   C25940425   6.581   4.322   0.170 -0.2163 -0.2175 -0.0459
  134MOL   O26040426   6.572   4.445   0.180 -0.0838  0.2308 -0.1395
  134MOL   O26140427   6.492   4.238   0.113  0.0127 -0.0427 -0.2659
  134MOL   C26240428   6.367   4.292   0.064  0.4169 -0.5053 -0.3073
  134MOL   C26340429   6.313   4.202   7.870  0.6135 -0.3152 -0.3191
  134MOL   H26440430   6.762   4.394   0.346  2.1154  0.1626  0.1386
  134MOL   H26540431   6.830   4.401   0.178  0.1775  1.2251  0.8560
  134MOL   H26640432   6.720   4.165   0.154 -0.3043  0.3239 -0.1043
  134MOL   H26740433   6.297   4.294   0.147 -1.4853  0.8747 -1.9032
  134MOL   H26840434   6.388   4.395   0.035 -1.3475  0.3202  1.2733
  134MOL   H26940435   6.388   4.180   7.795  1.6554  2.9387 -0.2821
  134MOL   H27040436   6.237   4.247   7.806 -0.6957 -0.3380  1.1966
  134MOL   H27140437   6.272   4.109   0.003  0.0734  0.5263  1.0700
  134MOL   C27240438   6.644   4.144   0.346  0.4861 -0.6675 -1.0251
  134MOL   C27340439   6.570   4.203   0.470  0.5364 -0.2677 -0.5290
  134MOL   C27440440   6.668   4.219   0.582  0.7101 -0.2647  0.1770
  134MOL   O27540441   6.703   4.325   0.619  0.0079 -0.0253  0.4016
  134MOL   O27640442   6.711   4.100   0.628  0.0942 -0.5729  0.3677
  134MOL   C27740443   6.815   4.090   0.730 -0.0032  0.1133 -0.0681
  134MOL   C27840444   6.749   4.071   0.866  0.1424 -0.0538 -0.6209
  134MOL   H27940445   6.588   4.066   0.294 -1.0446  0.5273 -1.2131
  134MOL   H28040446   6.735   4.095   0.382  1.5874  1.9624 -0.1071
  134MOL   H28140447   6.527   4.300   0.445 -0.6349 -0.1537  1.7541
  134MOL   H28240448   6.891   4.017   0.703  1.0344  1.6373 -1.3594
  134MOL   H28340449   6.861   4.189   0.733  0.6959 -0.2503  1.4896
  134MOL   H28440450   6.811   4.082   0.955 -1.3551 -0.4816  0.4864
  134MOL   H28540451   6.705   3.972   0.878  1.0830 -0.6000 -1.6173
  134MOL   H28640452   6.664   4.137   0.882 -1.1372 -2.0280  0.9821
  134MOL   C28740453   6.449   4.124   0.525 -0.1606  0.0744  0.1351
  134MOL   C28840454   6.372   4.188   0.646 -0.1515  0.4023 -0.1333
  134MOL   C28940455   6.243   4.110   0.656  0.9770 -0.3533 -0.7160
  134MOL   O29040456   6.133   4.158   0.620 -0.2047 -0.0785  0.0079
  134MOL   O29140457   6.264   3.981   0.704 -0.2650  0.2095 -0.1491
  134MOL   C29240458   6.145   3.891   0.696  0.0892 -0.6288  0.3481
  134MOL   C29340459   6.089   3.881   0.838  0.2134  0.6145 -1.0703
  134MOL   H29440460   6.381   4.125   0.440  0.9301 -0.6345 -0.7596
  134MOL   H29540461   6.468   4.018   0.541 -2.1809 -0.2873  0.3369
  134MOL   H29640462   6.431   4.195   0.737 -2.5145  1.6888  1.3664
  134MOL   H29740463   6.063   3.929   0.635  0.7400  0.7151  0.3078
  134MOL   H29840464   6.172   3.787   0.679  0.1442 -0.4584 -0.6007
  134MOL   H29940465   6.005   3.813   0.844  0.6816  0.2360  1.5136
  134MOL   H30040466   6.046   3.978   0.861 -1.0513  0.5347 -2.9686
  134MOL   H30140467   6.162   3.851   0.913 -2.4918 -1.8764  0.6632
  134MOL   H30240468   6.342   4.290   0.621 -0.7887  0.4777  0.8891
  135MOL     C140469   4.562   1.635   5.709  0.9059 -0.1018 -0.8248
  135MOL     C240470   4.679   1.596   5.795  0.1253  0.0383  0.4348
  135MOL     C340471   4.680   1.689   5.920  0.9865  0.2518  0.8771
  135MOL     O440472   4.633   1.661   6.032  0.0572  0.2283  0.0456
  135MOL     O540473   4.723   1.817   5.899 -0.1836  0.4234  0.1541
  135MOL     C640474   4.734   1.903   6.007  0.3132  0.3570 -0.0992
  135MOL     C740475   4.871   1.932   6.067 -0.1604 -0.2208 -0.5366
  135MOL     H840476   4.548   1.572   5.621 -2.2079  1.7396 -1.7153
  135MOL     H940477   4.575   1.739   5.677  1.8033 -0.3655 -1.3508
  135MOL    H1040478   4.647   1.498   5.830  0.2587  0.2649  1.2060
  135MOL    H1140479   4.696   2.000   5.976 -1.2189 -0.3266 -0.3946
  135MOL    H1240480   4.673   1.869   6.090  2.8558 -3.6809  0.2688
  135MOL    H1340481   4.940   1.981   5.999  0.2799 -1.7948 -1.2555
  135MOL    H1440482   4.931   1.849   6.105 -0.7546 -0.2381  0.3741
  135MOL    H1540483   4.869   2.001   6.151  0.6668 -1.9107  0.9028
  135MOL    H1640484   4.471   1.630   5.768  1.2192 -1.8473 -0.4618
  135MOL    C1740485   4.820   1.582   5.726 -0.4732 -0.3442  0.3390
  135MOL    C1840486   4.816   1.457   5.636  0.4867 -0.4164 -0.1084
  135MOL    C1940487   4.810   1.324   5.711 -0.3522  0.5362 -0.4592
  135MOL    O2040488   4.911   1.266   5.751  0.2486 -0.1661  0.2497
  135MOL    O2140489   4.681   1.289   5.745 -0.8186 -0.3706  0.1967
  135MOL    C2240490   4.650   1.169   5.806  0.6016  0.2493 -0.2189
  135MOL    C2340491   4.638   1.199   5.954 -0.5437 -0.1008  0.9308
  135MOL    H2440492   4.838   1.672   5.667  1.0747  1.0459  2.8303
  135MOL    H2540493   4.888   1.577   5.810 -0.8915 -1.4678  0.6192
  135MOL    H2640494   4.728   1.454   5.572  0.9879 -0.3130 -0.8011
  135MOL    H2740495   4.556   1.131   5.767 -0.6475  1.3353  1.6657
  135MOL    H2840496   4.725   1.090   5.798  0.7315  0.2099  1.1598
  135MOL    H2940497   4.578   1.120   5.998  0.7599 -1.0714  1.0169
  135MOL    H3040498   4.589   1.295   5.967 -0.2203  0.0487  1.0468
  135MOL    H3140499   4.736   1.210   6.002  0.6350  0.0105 -1.4101
  135MOL    C3240500   4.934   1.469   5.540  0.0777  0.0497  0.4867
  135MOL    C3340501   4.929   1.587   5.441 -0.0945  0.0981  0.1485
  135MOL    C3440502   4.789   1.600   5.370 -0.6375 -0.1899 -1.2943
  135MOL    O3540503   4.719   1.700   5.385 -0.5840 -0.3291 -0.0365
  135MOL    O3640504   4.755   1.495   5.300  0.3006  0.1883 -0.1349
  135MOL    C3740505   4.622   1.492   5.257  0.3100  0.0047  0.1999
  135MOL    C3840506   4.609   1.404   5.133  0.7672 -0.4747  0.2777
  135MOL    H3940507   5.024   1.463   5.602 -0.1499 -1.2148  0.7088
  135MOL    H4040508   4.946   1.375   5.487 -2.3118 -0.4045  0.7257
  135MOL    H4140509   4.933   1.679   5.500 -2.6616 -0.2979  0.9828
  135MOL    H4240510   4.563   1.446   5.336  0.7888  1.0317  1.1710
  135MOL    H4340511   4.589   1.592   5.228  0.3286 -0.1717 -0.4330
  135MOL    H4440512   4.505   1.391   5.102  1.1980 -0.5584 -1.1467
  135MOL    H4540513   4.641   1.301   5.151 -1.2811 -1.1826  0.0423
  135MOL    H4640514   4.662   1.440   5.045 -2.2607 -1.3347 -1.9883
  135MOL    C4740515   5.055   1.573   5.338 -0.0163  0.2379 -0.1933
  135MOL    C4840516   5.196   1.566   5.413 -0.1645 -0.7597 -0.3553
  135MOL    C4940517   5.234   1.708   5.464  0.1466  0.6630 -0.8590
  135MOL    O5040518   5.209   1.744   5.580 -0.3676  0.3954  0.1321
  135MOL    O5140519   5.269   1.796   5.356  0.4485 -0.2990  0.1019
  135MOL    C5240520   5.310   1.925   5.398 -0.0634  0.5184 -0.2030
  135MOL    C5340521   5.346   2.002   5.262 -0.0132  0.3333 -0.3201
  135MOL    H5440522   5.040   1.478   5.286 -0.0655  0.3471 -0.3804
  135MOL    H5540523   5.053   1.644   5.255 -1.3848 -0.8820 -1.1404
  135MOL    H5640524   5.199   1.500   5.500 -0.5981  0.4287  0.5835
  135MOL    H5740525   5.232   1.986   5.443  2.5001  2.0245  2.4167
  135MOL    H5840526   5.394   1.930   5.467 -1.6959  0.0588  1.8353
  135MOL    H5940527   5.417   2.085   5.270  0.4004 -0.0146 -0.3911
  135MOL    H6040528   5.257   2.032   5.208 -1.4685 -1.1970  1.1801
  135MOL    H6140529   5.395   1.931   5.196 -0.3342 -0.8814  0.7299
  135MOL    C6240530   5.326   1.516   5.339  0.3678 -0.1509  0.1679
  135MOL    C6340531   5.328   1.373   5.278 -0.2762  0.4040  0.1661
  135MOL    C6440532   5.286   1.263   5.375 -0.1249 -0.2429  0.4204
  135MOL    O6540533   5.195   1.189   5.337  0.9340 -0.0215 -0.1842
  135MOL    O6640534   5.360   1.253   5.485  0.1541  0.3127 -0.2216
  135MOL    C6740535   5.339   1.146   5.575  0.0725 -0.3923  0.8483
  135MOL    C6840536   5.221   1.178   5.661 -0.0363 -0.0185  0.5258
  135MOL    H6940537   5.355   1.593   5.267  0.4601 -0.4422 -0.1051
  135MOL    H7040538   5.396   1.509   5.422 -3.2673 -3.0429  3.1795
  135MOL    H7140539   5.252   1.378   5.200 -0.0809 -1.3582 -0.1682
  135MOL    H7240540   5.319   1.055   5.518  1.9445 -1.0537  1.2044
  135MOL    H7340541   5.429   1.132   5.635  1.0206 -0.2440 -0.4930
  135MOL    H7440542   5.127   1.179   5.605  0.9401  0.5370 -1.1517
  135MOL    H7540543   5.233   1.267   5.722 -0.1711  0.9925 -0.9019
  135MOL    H7640544   5.202   1.094   5.727  0.6565 -1.5249 -1.1345
  135MOL    C7740545   5.462   1.342   5.206  0.0251  0.1371  0.1885
  135MOL    C7840546   5.465   1.250   5.076  0.5034 -1.1647  0.1918
  135MOL    C7940547   5.529   1.115   5.112 -0.0538  0.3947  0.2350
  135MOL    O8040548   5.652   1.093   5.107  0.0851 -0.4783 -0.4351
  135MOL    O8140549   5.441   1.024   5.158  0.1232  0.1540 -0.0250
  135MOL    C8240550   5.493   0.895   5.192  0.6461  0.5359  0.2805
  135MOL    C8340551   5.544   0.897   5.336 -0.0794  1.0409  0.0081
  135MOL    H8440552   5.518   1.433   5.185  0.6297  0.0794  1.4974
  135MOL    H8540553   5.521   1.295   5.285  0.7369  2.5423  1.1464
  135MOL    H8640554   5.366   1.221   5.040 -0.4259  2.5532 -0.4543
  135MOL    H8740555   5.415   0.821   5.174  0.7644  0.0379  1.7925
  135MOL    H8840556   5.564   0.867   5.114 -0.1486  0.6948 -0.5022
  135MOL    H8940557   5.465   0.942   5.395 -1.1318  0.0049 -0.5851
  135MOL    H9040558   5.643   0.941   5.348  0.1744  0.1038  1.5426
  135MOL    H9140559   5.556   0.795   5.372 -2.1636  0.6846 -0.2474
  135MOL    C9240560   5.549   1.319   4.963  0.3208  0.6099  0.9301
  135MOL    C9340561   5.566   1.247   4.818 -0.8115 -0.2463 -0.1331
  135MOL    C9440562   5.661   1.310   4.714  0.7349  0.0919  0.1389
  135MOL    O9540563   5.716   1.417   4.735 -0.2192  0.4976 -0.3156
  135MOL    O9640564   5.676   1.242   4.599  0.4046 -0.3595  0.5197
  135MOL    C9740565   5.774   1.273   4.498 -1.1432  0.1258  0.1037
  135MOL    C9840566   5.738   1.212   4.366 -0.0895 -0.3655 -0.0867
  135MOL    H9940567   5.501   1.415   4.944  0.5680  0.5217 -0.2389
  135MOL   H10040568   5.650   1.342   4.998  0.9312  0.1768 -0.4692
  135MOL   H10140569   5.610   1.149   4.838  0.7112  0.7222  1.2881
  135MOL   H10240570   5.783   1.381   4.487  0.9528 -0.1198 -0.8246
  135MOL   H10340571   5.871   1.237   4.533 -1.0141  1.5086  1.1955
  135MOL   H10440572   5.816   1.240   4.295  1.5640  0.2359  1.9119
  135MOL   H10540573   5.641   1.244   4.326 -0.9919  0.4868  2.6958
  135MOL   H10640574   5.744   1.104   4.373 -1.2094 -0.4299 -0.0195
  135MOL   C10740575   5.428   1.220   4.760 -0.1319  0.2721 -0.7927
  135MOL   C10840576   5.359   1.338   4.697 -0.2868  0.1379  0.1807
  135MOL   C10940577   5.275   1.420   4.797 -0.3084 -0.0666  0.2184
  135MOL   O11040578   5.313   1.536   4.821  0.6588  0.0723 -0.2919
  135MOL   O11140579   5.166   1.354   4.838  0.1753 -0.7422 -0.1121
  135MOL   C11240580   5.086   1.417   4.930 -0.2784 -0.3565  0.6186
  135MOL   C11340581   4.992   1.312   4.987 -0.3042  0.1270  0.3084
  135MOL   H11440582   5.442   1.151   4.677  0.4967 -1.1061  0.4389
  135MOL   H11540583   5.357   1.177   4.831  0.4439  0.9777  0.2105
  135MOL   H11640584   5.431   1.393   4.637  1.8975 -2.4878  0.2827
  135MOL   H11740585   5.150   1.456   5.008 -2.9900 -0.9320  3.2512
  135MOL   H11840586   5.029   1.492   4.875 -0.7638 -0.2296  1.2806
  135MOL   H11940587   5.059   1.228   5.007  1.1386  1.3081  0.5347
  135MOL   H12040588   4.913   1.289   4.916  0.2487  1.3482 -0.7244
  135MOL   H12140589   4.939   1.352   5.074  1.3297 -0.3357  1.5489
  135MOL   C12240590   5.264   1.295   4.581  0.0990 -0.5088  0.5152
  135MOL   C12340591   5.200   1.415   4.505  0.0474 -0.7455  0.0625
  135MOL   C12440592   5.050   1.392   4.492 -0.4355  0.1010 -0.2030
  135MOL   O12540593   4.966   1.439   4.573 -0.0389  0.5137  0.0638
  135MOL   O12640594   5.021   1.310   4.386 -0.2357  0.0748  0.8076
  135MOL   C12740595   4.890   1.290   4.339  0.1327  0.5747 -0.1459
  135MOL   C12840596   4.884   1.229   4.198  0.0854  0.1794 -0.0934
  135MOL   H12940597   5.314   1.221   4.517  1.3978  1.1068 -0.3864
  135MOL   H13040598   5.178   1.246   4.625 -0.2133  1.3424  2.0043
  135MOL   H13140599   5.206   1.500   4.572  1.6439 -0.0597 -0.9155
  135MOL   H13240600   4.836   1.226   4.409  0.3206 -0.8964 -1.3317
  135MOL   H13340601   4.842   1.388   4.344  0.8264  0.8124  3.0816
  135MOL   H13440602   4.965   1.254   4.130  1.4321 -2.5708  0.4396
  135MOL   H13540603   4.788   1.249   4.150 -0.6275 -2.3919  0.2042
  135MOL   H13640604   4.896   1.126   4.231 -2.2743  0.0597  0.4889
  135MOL   C13740605   5.285   1.445   4.388 -0.8648  0.3105  0.1985
  135MOL   C13840606   5.243   1.586   4.334 -0.7384  0.8288 -0.4518
  135MOL   C13940607   5.145   1.558   4.220 -0.3602  0.3954 -0.4966
  135MOL   O14040608   5.023   1.582   4.239  0.1204 -0.1194 -0.4171
  135MOL   O14140609   5.196   1.513   4.107  0.6373  0.0427  0.2851
  135MOL   C14240610   5.123   1.499   3.990 -0.3681  0.7165  0.0711
  135MOL   C14340611   5.227   1.492   3.887  0.1379  0.2504 -0.4605
  135MOL   H14440612   5.387   1.433   4.426 -0.4099  0.6149 -0.8900
  135MOL   H14540613   5.266   1.368   4.314 -2.2097 -1.2657  2.1548
  135MOL   H14640614   5.196   1.646   4.412  1.4984 -0.8787  2.2925
  135MOL   H14740615   5.051   1.417   3.993 -0.2466  0.6231  4.1133
  135MOL   H14840616   5.068   1.591   3.968  0.6216  0.8896 -1.7939
  135MOL   H14940617   5.273   1.589   3.870 -0.7257  0.8318  0.4497
  135MOL   H15040618   5.180   1.464   3.793  2.2389 -1.1862 -1.1247
  135MOL   H15140619   5.307   1.419   3.899 -0.1682  0.1070  0.7161
  135MOL   C15240620   5.355   1.672   4.273 -0.0781 -0.5025  0.5424
  135MOL   C15340621   5.322   1.819   4.228 -0.5099 -0.2499  0.0936
  135MOL   C15440622   5.270   1.899   4.343  0.1659 -0.0965 -0.2270
  135MOL   O15540623   5.144   1.917   4.354 -0.4158 -0.1948 -1.0074
  135MOL   O15640624   5.370   1.939   4.425 -0.5307 -0.2333 -0.0859
  135MOL   C15740625   5.347   2.004   4.550 -0.4696  0.0807  0.2566
  135MOL   C15840626   5.427   1.922   4.660  0.3825  0.4079  0.0360
  135MOL   H15940627   5.432   1.686   4.349 -0.0740  2.4807  0.0526
  135MOL   H16040628   5.408   1.624   4.191  1.4035 -0.1247  1.2671
  135MOL   H16140629   5.419   1.866   4.212 -0.8485  0.3412 -0.2301
  135MOL   H16240630   5.383   2.105   4.568  1.1202 -0.2544 -0.9616
  135MOL   H16340631   5.242   1.995   4.579 -0.3433  1.0794  1.0221
  135MOL   H16440632   5.399   1.965   4.756  0.3063 -1.7951  1.0267
  135MOL   H16540633   5.534   1.938   4.647  1.1187 -2.3036  2.4500
  135MOL   H16640634   5.409   1.815   4.670 -2.1881  0.5884 -1.9552
  135MOL   C16740635   5.241   1.840   4.099  0.2460  0.0132 -0.0082
  135MOL   C16840636   5.223   1.978   4.049  0.7059  0.1826  0.1296
  135MOL   C16940637   5.116   1.982   3.940  0.8887 -0.8246  0.6108
  135MOL   O17040638   5.094   1.883   3.873  1.0699  0.0247 -0.1995
  135MOL   O17140639   5.050   2.097   3.922 -0.5609 -0.7443 -0.0650
  135MOL   C17240640   4.964   2.105   3.807  0.1382 -0.3347  0.1804
  135MOL   C17340641   4.872   2.213   3.838  0.4238  0.3203  0.4400
  135MOL   H17440642   5.291   1.780   4.023 -1.6087 -1.0531 -0.4020
  135MOL   H17540643   5.144   1.790   4.102  0.9073 -1.3271 -0.2519
  135MOL   H17640644   5.169   2.018   4.134  0.6919 -0.3130  0.3565
  135MOL   H17740645   5.020   2.130   3.717 -0.0385 -0.5315  0.0134
  135MOL   H17840646   4.903   2.016   3.791 -0.1186 -0.8760  3.7323
  135MOL   H17940647   4.805   2.216   3.752  0.1673 -1.2545  0.5737
  135MOL   H18040648   4.937   2.300   3.835  1.1826 -0.2474  0.5079
  135MOL   H18140649   4.824   2.198   3.935  1.2155 -0.7400  0.6773
  135MOL   C18240650   5.346   2.062   4.016  0.3096  0.0870 -0.0376
  135MOL   C18340651   5.457   2.008   3.922  0.3126 -0.4559 -0.0619
  135MOL   C18440652   5.557   1.918   3.981 -0.1373  0.4925 -0.0036
  135MOL   O18540653   5.568   1.802   3.942  0.2168  0.4527 -0.0790
  135MOL   O18640654   5.642   1.977   4.078  0.5093 -0.3646  0.7459
  135MOL   C18740655   5.733   1.906   4.151 -0.4230 -0.7612  0.1455
  135MOL   C18840656   5.878   1.938   4.120 -0.5128  0.1627 -0.9416
  135MOL   H18940657   5.299   2.151   3.973  0.2109 -1.0049 -2.2126
  135MOL   H19040658   5.393   2.088   4.111 -0.2931  1.0792  0.0010
  135MOL   H19140659   5.399   1.949   3.851 -3.8826  1.1446  1.8030
  135MOL   H19240660   5.716   1.925   4.257 -1.0351 -0.3329 -0.0289
  135MOL   H19340661   5.716   1.798   4.147 -0.0557 -0.8307  0.4155
  135MOL   H19440662   5.942   1.893   4.195  2.2495  0.4546 -3.0626
  135MOL   H19540663   5.908   2.043   4.127  2.2995 -0.7027  0.2818
  135MOL   H19640664   5.916   1.897   4.026 -2.8940 -2.6474 -0.7486
  135MOL   C19740665   5.517   2.122   3.835 -0.0701  0.3565  0.1638
  135MOL   C19840666   5.627   2.094   3.725  0.4217 -0.0536  0.8360
  135MOL   C19940667   5.557   2.005   3.610 -1.3299 -0.0119  0.4208
  135MOL   O20040668   5.486   2.047   3.518 -0.4897 -0.3659 -0.7519
  135MOL   O20140669   5.597   1.878   3.618  0.8674  0.5258 -0.3040
  135MOL   C20240670   5.520   1.784   3.554  0.6850  0.0396 -0.0920
  135MOL   C20340671   5.559   1.641   3.593 -0.0123  0.4308  0.1752
  135MOL   H20440672   5.441   2.177   3.779  1.4336  1.3962 -0.9070
  135MOL   H20540673   5.555   2.202   3.899  1.2882 -1.2327  1.3778
  135MOL   H20640674   5.649   2.192   3.682  0.2088 -1.6321 -3.0156
  135MOL   H20740675   5.415   1.795   3.582 -0.1924 -1.9662 -2.3156
  135MOL   H20840676   5.513   1.792   3.445  2.1682  1.1479 -0.1183
  135MOL   H20940677   5.579   1.639   3.700 -3.0319  0.0376  0.7973
  135MOL   H21040678   5.656   1.610   3.554  0.9179 -0.0845  2.8324
  135MOL   H21140679   5.479   1.571   3.567  0.3268  1.2555 -3.3165
  135MOL   C21240680   5.764   2.048   3.779  0.1356  0.3439  0.0549
  135MOL   C21340681   5.882   2.133   3.722 -0.1616  0.1964 -0.8701
  135MOL   C21440682   5.906   2.118   3.572 -0.6092  0.4772 -0.2214
  135MOL   O21540683   5.926   2.211   3.494 -0.2344  0.2708 -0.0686
  135MOL   O21640684   5.906   1.983   3.540 -0.6666 -0.9797 -0.2885
  135MOL   C21740685   5.921   1.927   3.410 -0.9509 -0.4078 -0.4361
  135MOL   C21840686   5.800   1.858   3.351 -0.4160 -0.0789  0.2140
  135MOL   H21940687   5.769   2.068   3.886  0.1912 -1.4884  0.4059
  135MOL   H22040688   5.782   1.943   3.756 -0.2778 -0.0892  1.6126
  135MOL   H22140689   5.866   2.241   3.731  2.0936  0.4969 -0.1659
  135MOL   H22240690   5.950   2.002   3.336 -0.0803 -1.6586 -1.3820
  135MOL   H22340691   6.008   1.862   3.415  0.1768  1.1499  0.7189
  135MOL   H22440692   5.820   1.815   3.253 -3.0781  1.1518 -0.9262
  135MOL   H22540693   5.717   1.930   3.349 -0.0453  0.3526  0.2117
  135MOL   H22640694   5.773   1.766   3.402 -0.3520  0.8977  2.0878
  135MOL   C22740695   6.015   2.113   3.810  0.9311 -0.0791 -0.6713
  135MOL   C22840696   6.133   2.209   3.779 -0.2169  0.1397 -0.3839
  135MOL   C22940697   6.260   2.164   3.844 -0.5671  0.2850  0.6187
  135MOL   O23040698   6.363   2.149   3.778  0.0419 -0.2910 -0.5097
  135MOL   O23140699   6.247   2.127   3.973  0.1327 -0.3248 -0.8405
  135MOL   C23240700   6.349   2.047   4.039  0.3062 -0.1125  0.2257
  135MOL   C23340701   6.280   1.993   4.165 -0.1960 -0.5751 -0.3087
  135MOL   H23440702   5.979   2.124   3.912 -0.5780  0.8945 -1.2821
  135MOL   H23540703   6.040   2.007   3.803 -0.2240 -0.3383 -1.0065
  135MOL   H23640704   6.146   2.212   3.671 -2.0540  1.2159 -0.5867
  135MOL   H23740705   6.383   1.964   3.978 -2.0691 -1.1407  0.2417
  135MOL   H23840706   6.435   2.108   4.067  1.0573 -0.4373 -1.3112
  135MOL   H23940707   6.208   2.062   4.208  1.6143  0.6871  0.7508
  135MOL   H24040708   6.357   1.983   4.242 -0.6411  0.5582  0.2953
  135MOL   H24140709   6.236   1.894   4.154 -0.1949 -0.2982 -3.0412
  135MOL   C24240710   6.099   2.351   3.817  0.2978  0.0144 -0.1745
  135MOL   C24340711   6.209   2.459   3.786  0.6879 -0.2146 -0.5156
  135MOL   C24440712   6.163   2.594   3.837 -0.1741 -0.2380 -1.1293
  135MOL   O24540713   6.127   2.683   3.758 -0.3018  0.0012  0.6672
  135MOL   O24640714   6.158   2.604   3.968  0.4340  0.6598 -0.0416
  135MOL   C24740715   6.143   2.731   4.021 -0.6735 -0.3344 -0.0401
  135MOL   C24840716   6.173   2.743   4.179  0.0433 -0.2804  0.4783
  135MOL   H24940717   6.007   2.377   3.763 -0.0506 -1.1338 -0.1696
  135MOL   H25040718   6.071   2.352   3.922  3.2292 -1.6523  0.6565
  135MOL   H25140719   6.304   2.432   3.831  0.7666  0.6768 -0.1446
  135MOL   H25240720   6.210   2.797   3.965  1.5655 -1.6664  0.9940
  135MOL   H25340721   6.037   2.746   4.006 -0.9977 -0.8620  1.6352
  135MOL   H25440722   6.276   2.714   4.199  0.4199  0.3534 -0.4950
  135MOL   H25540723   6.115   2.670   4.234 -0.7386 -0.9712 -1.2534
  135MOL   H25640724   6.155   2.849   4.200 -0.4864 -0.3005  0.1350
  135MOL   C25740725   6.243   2.463   3.633  0.0590 -0.0669 -0.0243
  135MOL   C25840726   6.376   2.540   3.590  0.3822  0.6000 -0.1456
  135MOL   C25940727   6.334   2.631   3.464 -0.5059  0.6015 -0.1864
  135MOL   O26040728   6.362   2.748   3.463  0.6591 -0.0657  0.5242
  135MOL   O26140729   6.282   2.562   3.356  0.0021 -0.4316 -0.4094
  135MOL   C26240730   6.260   2.632   3.229 -0.0561 -0.0271  0.3485
  135MOL   C26340731   6.370   2.610   3.134 -0.4101  0.2501 -0.2233
  135MOL   H26440732   6.242   2.359   3.598 -0.9613 -0.7469  1.9242
  135MOL   H26540733   6.161   2.503   3.575  0.7771 -1.2532 -1.9136
  135MOL   H26640734   6.392   2.609   3.672  3.5574  1.0345 -1.0708
  135MOL   H26740735   6.170   2.591   3.183  0.7786 -1.9360  0.3901
  135MOL   H26840736   6.253   2.741   3.238  0.0393  0.0905 -0.8428
  135MOL   H26940737   6.402   2.507   3.144  1.0208  0.6728 -0.4094
  135MOL   H27040738   6.454   2.672   3.165 -2.0843  1.3617  2.2662
  135MOL   H27140739   6.345   2.627   3.030  2.2287  1.1891 -0.7240
  135MOL   C27240740   6.493   2.435   3.568  0.0474  1.2287 -0.7246
  135MOL   C27340741   6.631   2.503   3.544  0.2238  0.1739  0.0518
  135MOL   C27440742   6.735   2.412   3.467  0.4452 -0.3557 -0.4102
  135MOL   O27540743   6.758   2.436   3.348  0.4557 -0.2390  0.4926
  135MOL   O27640744   6.787   2.319   3.559 -0.1792  0.5042  0.5948
  135MOL   C27740745   6.923   2.263   3.532  0.1667  0.0850 -1.0539
  135MOL   C27840746   7.023   2.354   3.600  0.7504  0.3811  0.1926
  135MOL   H27940747   6.497   2.366   3.653  0.8145 -0.8985 -2.4528
  135MOL   H28040748   6.460   2.372   3.485  1.0758  0.4070 -0.5144
  135MOL   H28140749   6.601   2.587   3.482 -1.0956 -0.4307 -0.1626
  135MOL   H28240750   6.932   2.173   3.592 -0.6542  0.9026  0.3427
  135MOL   H28340751   6.952   2.247   3.429  2.8268 -2.2826  0.0241
  135MOL   H28440752   7.009   2.452   3.555  0.1651  0.2567  0.1003
  135MOL   H28540753   7.124   2.324   3.572  0.5464  0.5591 -0.7586
  135MOL   H28640754   7.007   2.357   3.708 -0.3609  0.3360  0.0392
  135MOL   C28740755   6.687   2.554   3.674  0.2513  0.3642 -0.3016
  135MOL   C28840756   6.773   2.683   3.668 -0.1473  0.1561 -0.2770
  135MOL   C28940757   6.861   2.689   3.792  0.1058  0.2932  0.1533
  135MOL   O29040758   6.822   2.714   3.905  0.7541 -0.0389 -0.0092
  135MOL   O29140759   6.986   2.642   3.774 -0.1289  0.3175  0.4902
  135MOL   C29240760   7.068   2.601   3.887  0.0118  0.1469  0.5954
  135MOL   C29340761   7.210   2.582   3.850 -0.2006 -0.1046 -0.3457
  135MOL   H29440762   6.601   2.570   3.740  0.8484 -1.7239  1.0462
  135MOL   H29540763   6.741   2.474   3.725  0.3511 -0.2138 -1.2925
  135MOL   H29640764   6.840   2.669   3.582 -1.1344  0.4929 -1.1152
  135MOL   H29740765   7.072   2.682   3.961  2.5249  0.1211  0.5334
  135MOL   H29840766   7.030   2.509   3.931  4.0051 -1.3159  1.1421
  135MOL   H29940767   7.258   2.528   3.931 -1.4100  0.9447  1.1101
  135MOL   H30040768   7.264   2.675   3.832  0.1241 -0.2929 -0.3327
  135MOL   H30140769   7.230   2.524   3.760 -0.0317  0.0039 -0.3779
  135MOL   H30240770   6.720   2.778   3.662 -0.1808  0.2055  0.8133
  136MOL     C140771   4.045   4.122   0.630  0.1749 -0.5359  0.4716
  136MOL     C240772   3.992   4.255   0.573  0.7766  0.1588 -0.0622
  136MOL     C340773   3.870   4.298   0.657  0.0213 -0.8970 -0.8189
  136MOL     O440774   3.868   4.401   0.723  0.5985  0.2137 -0.0172
  136MOL     O540775   3.777   4.201   0.661 -0.3487 -0.3458  0.7915
  136MOL     C640776   3.655   4.215   0.733 -0.1658 -1.0608 -0.3465
  136MOL     C740777   3.553   4.272   0.635  0.1393 -0.1263  0.2663
  136MOL     H840778   3.990   4.033   0.601  2.3032 -0.9632 -2.5115
  136MOL     H940779   4.042   4.123   0.739  0.7295 -0.5899  0.4913
  136MOL    H1040780   4.068   4.333   0.577 -0.1817  1.2095 -1.8052
  136MOL    H1140781   3.621   4.125   0.784  0.8164 -0.3374  1.6535
  136MOL    H1240782   3.660   4.289   0.813 -2.5815 -0.1251 -1.0128
  136MOL    H1340783   3.587   4.366   0.593  1.1051 -1.9229 -3.1184
  136MOL    H1440784   3.463   4.299   0.690 -0.2569 -0.5717 -0.1613
  136MOL    H1540785   3.528   4.201   0.556  1.0486  0.5411 -0.6295
  136MOL    H1640786   4.148   4.100   0.600  0.0563 -0.5389  0.0718
  136MOL    C1740787   3.953   4.232   0.428  0.2832  0.2989 -0.3793
  136MOL    C1840788   3.884   4.357   0.371  0.2875  0.6031  1.5792
  136MOL    C1940789   3.823   4.324   0.234  0.3751 -0.0434 -0.4872
  136MOL    O2040790   3.859   4.235   0.163  0.2436 -0.3518 -0.0144
  136MOL    O2140791   3.718   4.411   0.207 -0.1599  0.6104  0.8215
  136MOL    C2240792   3.636   4.406   0.095  0.5399  0.1749  0.0257
  136MOL    C2340793   3.484   4.454   0.130  0.3201 -0.2934  0.2236
  136MOL    H2440794   4.037   4.193   0.371  0.6644  2.1923 -1.1589
  136MOL    H2540795   3.882   4.149   0.428  1.5402 -0.7878  0.6384
  136MOL    H2640796   3.799   4.371   0.438 -0.6949 -1.2163  0.7515
  136MOL    H2740797   3.668   4.472   0.014  2.1500  0.8824  1.2052
  136MOL    H2840798   3.628   4.301   0.066 -2.0526  0.4116 -0.2012
  136MOL    H2940799   3.441   4.412   0.221  1.3090 -1.2541  0.2644
  136MOL    H3040800   3.419   4.428   0.047  0.6787  2.3580 -0.9089
  136MOL    H3140801   3.480   4.561   0.150 -0.1926 -0.4692  1.1065
  136MOL    C3240802   3.964   4.488   0.367 -0.6067 -0.2091  0.2230
  136MOL    C3340803   4.061   4.505   0.252  0.4796 -0.0990 -0.4815
  136MOL    C3440804   4.189   4.428   0.282  0.3287  0.4387 -0.6896
  136MOL    O3540805   4.240   4.417   0.390 -0.4052  0.0244  0.1532
  136MOL    O3640806   4.253   4.396   0.177 -0.0683  0.1853 -0.1792
  136MOL    C3740807   4.352   4.293   0.178  0.2596 -0.6162  0.5004
  136MOL    C3840808   4.495   4.345   0.152  0.0278 -0.5438  0.3150
  136MOL    H3940809   3.894   4.572   0.361 -0.5051 -0.1588 -0.2999
  136MOL    H4040810   4.011   4.503   0.464 -0.2783  0.1561  0.0066
  136MOL    H4140811   4.019   4.459   0.163  1.2074 -0.9436 -0.3939
  136MOL    H4240812   4.336   4.245   0.275 -3.1075 -0.7020 -0.0277
  136MOL    H4340813   4.330   4.222   0.098  1.6826  0.1665 -0.6018
  136MOL    H4440814   4.542   4.396   0.236 -0.3470  0.7689 -0.2608
  136MOL    H4540815   4.489   4.408   0.064  1.4664 -0.6266  0.1451
  136MOL    H4640816   4.559   4.259   0.131 -1.3322 -1.2756 -0.8526
  136MOL    C4740817   4.093   4.657   0.226 -0.3864 -0.2940 -0.1191
  136MOL    C4840818   3.982   4.755   0.174 -0.0765 -0.0930 -0.4186
  136MOL    C4940819   3.902   4.691   0.061  0.3467 -0.0345 -0.5028
  136MOL    O5040820   3.783   4.666   0.076  0.3237  0.1068 -0.3114
  136MOL    O5140821   3.982   4.655   7.869 -0.7750 -0.0903  0.0051
  136MOL    C5240822   3.936   4.561   7.773  0.4188 -0.1533 -0.2626
  136MOL    C5340823   3.986   4.425   7.807 -0.1828 -0.2071  0.4907
  136MOL    H5440824   4.127   4.709   0.316  2.0329 -1.0196 -0.5688
  136MOL    H5540825   4.185   4.673   0.169 -0.5025 -1.2362 -0.5802
  136MOL    H5640826   3.903   4.750   0.248 -1.3827 -1.9195 -1.8884
  136MOL    H5740827   3.827   4.551   7.771  0.3785 -0.0130  1.1153
  136MOL    H5840828   3.950   4.595   7.670 -0.6736 -3.6286 -1.6194
  136MOL    H5940829   4.074   4.426   7.872 -0.0915  1.2420  0.3708
  136MOL    H6040830   4.023   4.373   7.719  0.1812 -2.3259  1.8557
  136MOL    H6140831   3.908   4.360   7.845 -1.1058  0.9393  0.5809
  136MOL    C6240832   4.035   4.896   0.135  0.4904  0.7089 -0.1400
  136MOL    C6340833   4.092   4.982   0.245  0.2012  0.3693 -1.2981
  136MOL    C6440834   3.974   5.038   0.333 -1.0004 -0.7902  0.3454
  136MOL    O6540835   3.938   5.155   0.331 -0.1887 -0.7934  0.0544
  136MOL    O6640836   3.915   4.942   0.398  0.0846  0.3349  0.1609
  136MOL    C6740837   3.809   4.958   0.488  0.4365 -0.4915  0.7274
  136MOL    C6840838   3.725   4.827   0.489 -0.7683  0.5820  0.1090
  136MOL    H6940839   4.115   4.885   0.062  1.3176  0.1255  0.8472
  136MOL    H7040840   3.956   4.953   0.086 -0.6942 -0.3192  0.5384
  136MOL    H7140841   4.153   4.930   0.319  1.5295  2.3611 -0.9455
  136MOL    H7240842   3.849   4.983   0.586  1.7514  3.0684 -0.6358
  136MOL    H7340843   3.740   5.037   0.457 -0.6071 -2.5043 -2.2644
  136MOL    H7440844   3.700   4.795   0.388  1.3663 -0.8318 -0.0151
  136MOL    H7540845   3.632   4.834   0.545 -0.2734  3.1345  0.6560
  136MOL    H7640846   3.788   4.747   0.530 -1.0675  0.4829  0.3723
  136MOL    C7740847   4.180   5.098   0.189  0.4181  0.1033 -0.2370
  136MOL    C7840848   4.300   5.063   0.095 -0.5609  0.2132 -0.0775
  136MOL    C7940849   4.387   4.944   0.144  0.3731  0.3420  0.4156
  136MOL    O8040850   4.461   4.968   0.236  0.5243  0.3016 -0.1916
  136MOL    O8140851   4.365   4.827   0.076  0.0999  0.1067  0.2136
  136MOL    C8240852   4.439   4.714   0.122 -0.1129  0.4303  0.0371
  136MOL    C8340853   4.593   4.711   0.082  0.6698 -0.0214 -0.1728
  136MOL    H8440854   4.114   5.159   0.128 -0.7308 -2.9358 -2.1188
  136MOL    H8540855   4.210   5.161   0.273 -2.5672  1.0796  0.1515
  136MOL    H8640856   4.257   5.041   7.906 -0.1896  1.6318 -0.5723
  136MOL    H8740857   4.441   4.705   0.231  2.3254 -0.9323 -0.0768
  136MOL    H8840858   4.392   4.624   0.082 -0.9660  1.6820 -1.8199
  136MOL    H8940859   4.649   4.624   0.115  0.0853 -0.8683 -1.3764
  136MOL    H9040860   4.662   4.789   0.116  0.0617 -0.7669  2.9658
  136MOL    H9140861   4.602   4.711   7.882  2.3764 -2.4809 -0.0503
  136MOL    C9240862   4.398   5.187   0.072  0.3209  0.0673 -0.0410
  136MOL    C9340863   4.362   5.280   7.867  0.4097 -0.8654 -0.6679
  136MOL    C9440864   4.331   5.211   7.738  0.3070  0.6573  0.9876
  136MOL    O9540865   4.226   5.237   7.674  0.5527 -0.1979 -0.1139
  136MOL    O9640866   4.429   5.123   7.699 -0.3949  0.0794  0.0709
  136MOL    C9740867   4.411   5.031   7.593 -0.2079 -0.3398 -0.3344
  136MOL    C9840868   4.413   4.898   7.653  0.0100  0.0622  0.1305
  136MOL    H9940869   4.419   5.256   0.155 -0.1320  1.2350 -0.8874
  136MOL   H10040870   4.496   5.150   0.041  0.6395  0.3872  0.5561
  136MOL   H10140871   4.263   5.319   7.891  1.5530  0.4484  2.2232
  136MOL   H10240872   4.323   5.053   7.532  0.0618 -1.2127 -1.0481
  136MOL   H10340873   4.497   5.050   7.529 -0.4120  0.3132 -0.4246
  136MOL   H10440874   4.417   4.821   7.576 -1.1890  0.9359 -0.8164
  136MOL   H10540875   4.326   4.877   7.715  1.1961  0.9487  2.1616
  136MOL   H10640876   4.504   4.876   7.709 -0.2692 -0.5068  0.3716
  136MOL   C10740877   4.468   5.399   7.839  0.3816 -0.1568 -0.4844
  136MOL   C10840878   4.412   5.545   7.854  0.5418  0.4092  0.2874
  136MOL   C10940879   4.517   5.637   7.793  0.4211  0.3741 -0.8077
  136MOL   O11040880   4.488   5.697   7.691  0.2350  0.3403 -0.7387
  136MOL   O11140881   4.642   5.647   7.862 -0.7188 -0.0669 -0.3041
  136MOL   C11240882   4.747   5.725   7.797  0.7523  0.3057 -0.2383
  136MOL   C11340883   4.819   5.642   7.687 -0.2597 -0.3053 -0.0869
  136MOL   H11440884   4.542   5.382   0.009 -0.6883 -1.2587  0.3022
  136MOL   H11540885   4.521   5.379   7.746 -0.2168 -2.0997 -0.4215
  136MOL   H11640886   4.335   5.547   7.778  2.1818 -0.8474 -1.4613
  136MOL   H11740887   4.705   5.811   7.745  1.9438  2.2625  1.9966
  136MOL   H11840888   4.802   5.766   7.881 -0.2323  0.1360  0.5021
  136MOL   H11940889   4.880   5.562   7.731  0.5975 -0.1491 -0.9898
  136MOL   H12040890   4.872   5.707   7.618  0.6286 -0.5064  0.3875
  136MOL   H12140891   4.745   5.589   7.627 -1.0660 -0.9244  1.4080
  136MOL   C12240892   4.357   5.590   0.082  0.2848  0.6861 -0.3270
  136MOL   C12340893   4.248   5.701   0.071  0.0101  0.1223 -0.2961
  136MOL   C12440894   4.133   5.662   7.883  0.1992 -0.0983  0.3680
  136MOL   O12540895   4.132   5.727   7.779  0.9094  0.1382  0.0543
  136MOL   O12640896   4.069   5.550   0.006  0.1305  0.2322 -0.1726
  136MOL   C12740897   3.955   5.515   7.833  0.9167 -0.7547 -0.0600
  136MOL   C12840898   3.900   5.379   7.864 -0.0679 -0.1128 -0.1582
  136MOL   H12940899   4.309   5.508   0.136  1.2137  0.3203 -0.0643
  136MOL   H13040900   4.439   5.628   0.143  2.0987 -1.3380 -1.4594
  136MOL   H13140901   4.203   5.704   0.170 -0.1987  0.8582 -0.4139
  136MOL   H13240902   3.873   5.584   7.849  0.5088 -1.5348  1.3265
  136MOL   H13340903   3.989   5.526   7.730 -0.2508 -1.7409 -0.5576
  136MOL   H13440904   3.978   5.316   7.906 -1.2133 -1.4490  0.0116
  136MOL   H13540905   3.868   5.328   7.774 -0.4682  2.0027 -1.2514
  136MOL   H13640906   3.831   5.392   0.040  0.0950  0.8299 -0.1609
  136MOL   C13740907   4.315   5.838   0.061 -0.5639 -0.6520  0.0592
  136MOL   C13840908   4.264   5.950   0.161  0.6735  0.1080  0.2522
  136MOL   C13940909   4.168   6.035   0.080 -0.9250  0.0540  0.2263
  136MOL   O14040910   4.195   6.140   0.025 -0.1518  0.1064  0.5600
  136MOL   O14140911   4.042   5.981   0.084 -0.0384  0.3039 -0.2361
  136MOL   C14240912   3.940   6.060   0.022 -0.4513 -0.3672  0.5596
  136MOL   C14340913   3.907   5.980   7.801  0.3075 -0.5987  0.3094
  136MOL   H14440914   4.423   5.837   0.073 -0.6555  0.6519  1.0771
  136MOL   H14540915   4.297   5.877   7.869 -1.2819 -1.2041 -0.0302
  136MOL   H14640916   4.212   5.907   0.246  3.8243 -2.6689  0.8879
  136MOL   H14740917   3.842   6.058   0.071 -0.6088 -1.4718  0.2157
  136MOL   H14840918   3.966   6.164   0.001 -0.5094 -0.2121  1.2209
  136MOL   H14940919   3.862   5.882   7.821 -0.5891 -0.7056 -2.1004
  136MOL   H15040920   3.990   5.977   7.731 -0.6070 -0.2318 -0.7975
  136MOL   H15140921   3.828   6.038   7.754 -0.4016 -3.3776 -2.0668
  136MOL   C15240922   4.378   6.042   0.212  0.5740  0.3864 -0.0027
  136MOL   C15340923   4.502   5.985   0.282  0.7687  0.2373  0.0316
  136MOL   C15440924   4.459   5.887   0.394 -0.2412  0.3223 -0.1940
  136MOL   O15540925   4.515   5.781   0.412 -0.3759  0.3250 -0.0464
  136MOL   O15640926   4.354   5.923   0.469  0.0000  0.2576 -0.3557
  136MOL   C15740927   4.303   5.838   0.564  0.1689 -0.2327 -0.0046
  136MOL   C15840928   4.164   5.786   0.519  0.1934 -0.0205 -0.0959
  136MOL   H15940929   4.420   6.087   0.122 -2.0007  1.4220 -0.7169
  136MOL   H16040930   4.340   6.120   0.278  0.3154  0.4028 -0.1733
  136MOL   H16140931   4.570   5.930   0.216  1.5950  1.3510 -0.0647
  136MOL   H16240932   4.361   5.748   0.588 -0.0432 -0.2195  0.5740
  136MOL   H16340933   4.292   5.892   0.658 -2.5143  0.8876 -0.9377
  136MOL   H16440934   4.165   5.738   0.421 -2.7507 -0.5871  0.1095
  136MOL   H16540935   4.105   5.877   0.513  1.1318  0.6349  0.3117
  136MOL   H16640936   4.123   5.706   0.580 -0.1156 -1.0317 -1.6065
  136MOL   C16740937   4.590   6.102   0.339  0.1697  0.7555  0.0924
  136MOL   C16840938   4.719   6.068   0.408 -0.3103 -0.3234  0.8703
  136MOL   C16940939   4.765   6.171   0.502 -0.6200  0.6809 -0.4926
  136MOL   O17040940   4.723   6.288   0.493 -0.2200 -0.1012 -0.4210
  136MOL   O17140941   4.841   6.120   0.605  0.2649  0.2062  0.0001
  136MOL   C17240942   4.893   6.206   0.709  0.1909  0.2660 -0.2596
  136MOL   C17340943   4.977   6.114   0.796 -0.6653  0.4626 -0.9762
  136MOL   H17440944   4.626   6.162   0.255  0.5313  1.4767  0.7467
  136MOL   H17540945   4.523   6.167   0.395 -0.5488  1.1904 -1.2550
  136MOL   H17640946   4.695   5.981   0.470 -1.7103 -0.1075  0.6536
  136MOL   H17740947   4.944   6.292   0.667 -1.2902  1.7664  0.9697
  136MOL   H17840948   4.805   6.246   0.759 -0.0521  0.3192 -0.7288
  136MOL   H17940949   5.054   6.076   0.729  1.9548  0.4196  1.9522
  136MOL   H18040950   4.922   6.031   0.841  1.5127  0.6623  2.2188
  136MOL   H18140951   5.018   6.185   0.868  0.5560 -1.2751  0.0875
  136MOL   C18240952   4.834   6.014   0.323 -0.6727 -0.0737 -0.1034
  136MOL   C18340953   4.885   6.105   0.203  0.6045 -0.1794 -0.0391
  136MOL   C18440954   4.819   6.068   0.067  0.5719  0.5795  0.3844
  136MOL   O18540955   4.735   5.980   0.056  0.9821  0.1486  0.0718
  136MOL   O18640956   4.859   6.146   7.883  0.2903 -0.0093  0.5536
  136MOL   C18740957   4.803   6.142   7.751  0.2981 -0.1269 -0.2128
  136MOL   C18840958   4.882   6.226   7.650  0.1677 -0.0923 -0.9806
  136MOL   H18940959   4.921   6.001   0.387 -1.3635 -1.6057  0.5496
  136MOL   H19040960   4.807   5.914   0.288 -0.4737 -0.8694  1.9374
  136MOL   H19140961   4.841   6.202   0.227 -0.5884 -0.5269 -0.7399
  136MOL   H19240962   4.785   6.040   7.715 -0.6003 -0.5864  1.5029
  136MOL   H19340963   4.703   6.183   7.755 -0.3074 -1.3377 -2.0307
  136MOL   H19440964   4.831   6.234   7.553 -0.6325  0.5385 -0.5159
  136MOL   H19540965   4.983   6.186   7.639  0.4146 -0.0026  0.8870
  136MOL   H19640966   4.888   6.330   7.680 -0.3379  0.0431 -1.3369
  136MOL   C19740967   5.036   6.115   0.192 -0.7763  0.3330 -0.3602
  136MOL   C19840968   5.112   6.216   0.292  0.1729  0.1065  0.0009
  136MOL   C19940969   5.098   6.365   0.267  0.2677 -0.5261 -0.3237
  136MOL   O20040970   5.129   6.418   0.156  0.7791 -0.0844  0.3125
  136MOL   O20140971   5.047   6.438   0.367  0.0260  0.3883 -0.1054
  136MOL   C20240972   5.027   6.578   0.357  0.0998  0.3198 -0.0860
  136MOL   C20340973   4.895   6.618   0.282 -0.4351 -0.2315  0.2138
  136MOL   H20440974   5.068   6.012   0.186 -2.4033 -0.1533 -0.9501
  136MOL   H20540975   5.052   6.144   0.088 -0.0386 -0.2880 -0.4226
  136MOL   H20640976   5.092   6.200   0.398 -1.0792  0.6187 -0.1476
  136MOL   H20740977   5.024   6.612   0.460  1.2043 -1.5849  0.6137
  136MOL   H20840978   5.112   6.616   0.300  1.7586 -2.2544  0.5466
  136MOL   H20940979   4.893   6.726   0.298  0.8245  0.1935 -2.2664
  136MOL   H21040980   4.799   6.581   0.318  0.2150 -1.4880  0.7019
  136MOL   H21140981   4.909   6.608   0.175  1.2293 -0.1555  0.4168
  136MOL   C21240982   5.256   6.171   0.294 -0.1025 -0.0633  0.1775
  136MOL   C21340983   5.331   6.176   0.434 -0.2636  0.6268 -0.0087
  136MOL   C21440984   5.360   6.321   0.482 -0.6507 -0.2905 -0.6528
  136MOL   O21540985   5.332   6.356   0.597  0.3502 -0.0068 -0.1264
  136MOL   O21640986   5.427   6.388   0.389  0.1237  0.3883  0.1801
  136MOL   C21740987   5.483   6.509   0.432  0.7440 -0.5039  0.2705
  136MOL   C21840988   5.393   6.633   0.404 -0.1145  0.7129 -0.1795
  136MOL   H21940989   5.269   6.075   0.245 -0.2240 -0.2538  0.5111
  136MOL   H22040990   5.312   6.244   0.237  0.3922 -0.2567  0.4104
  136MOL   H22140991   5.262   6.126   0.501 -2.3118  0.7247 -1.9880
  136MOL   H22240992   5.518   6.513   0.535 -2.1377  0.1785  1.2615
  136MOL   H22340993   5.574   6.513   0.371 -0.7328 -1.8028 -2.0437
  136MOL   H22440994   5.305   6.628   0.469  0.8112  0.7579  1.1028
  136MOL   H22540995   5.364   6.631   0.299 -1.8820 -0.4336  0.2880
  136MOL   H22640996   5.445   6.727   0.420  4.0659 -1.0328 -2.7379
  136MOL   C22740997   5.461   6.080   0.427 -0.0811 -0.4161  0.5508
  136MOL   C22840998   5.449   5.929   0.389  0.3055  0.1322 -0.7240
  136MOL   C22940999   5.366   5.844   0.486  0.7318  0.0992 -0.2510
  136MOL   O23041000   5.270   5.775   0.451  0.0259 -0.1749  0.0211
  136MOL   O23141001   5.420   5.844   0.614  0.9483  0.1227  0.4154
  136MOL   C23241002   5.371   5.767   0.721 -0.2669  0.4349  0.4531
  136MOL   C23341003   5.491   5.698   0.788 -0.3318 -0.1747  0.0362
  136MOL   H23441004   5.523   6.138   0.358  1.5381 -0.9589  1.5260
  136MOL   H23541005   5.507   6.080   0.526 -0.7943  1.5688  0.9006
  136MOL   H23641006   5.385   5.919   0.302  1.4192 -3.1147 -1.2207
  136MOL   H23741007   5.316   5.827   0.793 -1.5706 -0.5446  0.3001
  136MOL   H23841008   5.299   5.691   0.691 -0.6651  1.2212 -0.6365
  136MOL   H23941009   5.462   5.609   0.844  1.4278 -0.4124  0.6112
  136MOL   H24041010   5.552   5.759   0.854  0.5052 -0.2504 -0.6507
  136MOL   H24141011   5.557   5.656   0.711 -1.8083 -0.6401 -1.0038
  136MOL   C24241012   5.587   5.871   0.368 -0.0435 -0.0860  0.1081
  136MOL   C24341013   5.625   5.897   0.217  0.1269 -0.2183 -0.1730
  136MOL   C24441014   5.557   5.795   0.128 -0.3634  0.7172 -0.0691
  136MOL   O24541015   5.446   5.812   0.075  0.6025 -0.2600 -0.3222
  136MOL   O24641016   5.632   5.675   0.111 -0.5545  0.2544  0.1310
  136MOL   C24741017   5.589   5.576   0.022 -0.2145  0.2020 -0.1943
  136MOL   C24841018   5.691   5.475   7.886  0.0452  0.2459 -0.0303
  136MOL   H24941019   5.659   5.936   0.419 -0.2634  2.6688 -2.8965
  136MOL   H25041020   5.604   5.771   0.408 -0.3507  0.1342  0.8078
  136MOL   H25141021   5.587   5.999   0.206 -0.3650 -0.2909  0.8036
  136MOL   H25241022   5.501   5.531   0.068 -1.0488  0.1503 -1.7991
  136MOL   H25341023   5.544   5.617   7.840  1.0703  1.4065 -0.2995
  136MOL   H25441024   5.760   5.532   7.823  1.1552  2.1300  2.7531
  136MOL   H25541025   5.652   5.401   7.817 -0.1145  0.5634 -0.2842
  136MOL   H25641026   5.739   5.419   0.058  1.0898  1.2403  0.0511
  136MOL   C25741027   5.774   5.913   0.185  0.6094 -1.1601  0.2384
  136MOL   C25841028   5.815   6.014   0.069  0.0610  0.0607 -0.1405
  136MOL   C25941029   5.881   5.944   7.861 -0.2250 -0.3018 -0.7334
  136MOL   O26041030   5.992   5.963   7.822  0.2449 -0.3758 -0.7188
  136MOL   O26141031   5.806   5.847   7.806  0.4824  0.2034  0.1903
  136MOL   C26241032   5.854   5.777   7.685 -0.4430  0.6520  0.1041
  136MOL   C26341033   5.745   5.762   7.581  0.3761 -0.8111  0.0376
  136MOL   H26441034   5.811   5.957   0.278  4.1974 -1.1430 -1.1237
  136MOL   H26541035   5.814   5.813   0.173  1.3863 -0.5849 -2.2247
  136MOL   H26641036   5.732   6.053   0.009  1.4818  0.4177 -1.9280
  136MOL   H26741037   5.943   5.820   7.640 -0.5177 -0.0950 -0.7974
  136MOL   H26841038   5.885   5.677   7.714 -1.2893  0.8114  1.5724
  136MOL   H26941039   5.775   5.712   7.489 -3.6048 -2.1029 -0.6862
  136MOL   H27041040   5.708   5.860   7.551 -0.2343 -1.3274 -0.9206
  136MOL   H27141041   5.652   5.713   7.610 -1.1531  2.5381  1.1063
  136MOL   C27241042   5.897   6.133   0.114 -0.0530  0.3144  0.1451
  136MOL   C27341043   5.810   6.232   0.197  0.8178 -0.0122  0.7264
  136MOL   C27441044   5.708   6.326   0.119 -0.3907 -0.3328  0.4310
  136MOL   O27541045   5.742   6.442   0.089  0.1096 -0.4426  0.6890
  136MOL   O27641046   5.595   6.267   0.090  0.3063  0.1303  0.1708
  136MOL   C27741047   5.487   6.331   0.028 -0.2390 -0.2884 -0.0477
  136MOL   C27841048   5.395   6.217   7.881  0.3593 -0.4115 -0.1821
  136MOL   H27941049   5.983   6.098   0.172  0.2391  1.9805  0.7307
  136MOL   H28041050   5.938   6.190   0.031 -0.2747  1.9731  1.1613
  136MOL   H28141051   5.752   6.175   0.270  0.3663  0.2704  0.5934
  136MOL   H28241052   5.435   6.389   0.103 -2.7719 -2.2173 -0.2415
  136MOL   H28341053   5.521   6.398   7.857 -1.0124  1.4435  1.0603
  136MOL   H28441054   5.294   6.255   7.868  0.6811  0.7014  0.4903
  136MOL   H28541055   5.392   6.128   0.035 -0.6510 -1.0450 -1.1091
  136MOL   H28641056   5.430   6.173   7.787  0.9144  1.6116 -0.9504
  136MOL   C28741057   5.902   6.315   0.292  0.1177  1.0609 -0.2490
  136MOL   C28841058   5.841   6.407   0.400  0.3872 -0.7664  0.2818
  136MOL   C28941059   5.761   6.340   0.513  0.0011  0.7675  0.4710
  136MOL   O29041060   5.720   6.224   0.505 -0.1935 -0.3253 -0.1471
  136MOL   O29141061   5.752   6.416   0.624 -0.6592  0.4240 -0.2621
  136MOL   C29241062   5.670   6.381   0.734  0.0344 -0.5647 -0.0637
  136MOL   C29341063   5.695   6.459   0.858 -0.3791 -0.3517  1.1941
  136MOL   H29441064   5.954   6.240   0.352 -0.0725  1.2583  0.1665
  136MOL   H29541065   5.975   6.376   0.239  0.5611  1.5866  0.9592
  136MOL   H29641066   5.915   6.476   0.442 -2.1164  1.2267  1.6040
  136MOL   H29741067   5.563   6.390   0.713 -0.2409 -2.4295  0.4323
  136MOL   H29841068   5.677   6.273   0.748 -1.2146 -0.8986 -1.8477
  136MOL   H29941069   5.660   6.560   0.834 -2.5825 -1.5225 -0.8117
  136MOL   H30041070   5.802   6.460   0.878 -0.3372 -3.5607  1.3522
  136MOL   H30141071   5.632   6.434   0.943 -1.3825 -1.8625  0.0285
  136MOL   H30241072   5.767   6.469   0.349  0.6709  0.8527  1.7468
  137MOL     C141073   6.944   1.444   1.194  0.5497 -0.0697  0.2767
  137MOL     C241074   6.891   1.304   1.153 -0.5671 -0.7542 -0.1040
  137MOL     C341075   6.837   1.306   1.010  0.6542  0.6388 -0.4210
  137MOL     O441076   6.726   1.255   0.987  0.0612  0.6214  0.2364
  137MOL     O541077   6.911   1.376   0.925  0.5470 -0.9850 -0.0791
  137MOL     C641078   6.871   1.391   0.789  0.4409 -0.0948 -0.0030
  137MOL     C741079   6.923   1.529   0.757 -0.3077 -0.6449 -0.0104
  137MOL     H841080   7.008   1.441   1.283 -0.6178  1.1287  1.1764
  137MOL     H941081   6.859   1.506   1.223  0.6310  0.0413  0.2758
  137MOL    H1041082   6.984   1.249   1.137 -2.2770 -3.8684  0.1800
  137MOL    H1141083   6.938   1.327   0.733  0.4469  1.8526 -2.3168
  137MOL    H1241084   6.766   1.370   0.769 -0.1886  1.3684  1.5532
  137MOL    H1341085   6.865   1.607   0.806 -0.8681 -0.3698 -1.0936
  137MOL    H1441086   6.928   1.563   0.653  1.3382  3.2026  1.2549
  137MOL    H1541087   7.021   1.560   0.793  0.1434  0.4163 -2.0673
  137MOL    H1641088   7.005   1.495   1.120 -0.0911  4.2690  2.6197
  137MOL    C1741089   6.794   1.233   1.258 -0.1220 -0.0252 -0.1646
  137MOL    C1841090   6.861   1.115   1.346  0.3946 -0.5628 -0.5749
  137MOL    C1941091   6.916   0.999   1.271 -0.2722 -0.0197 -0.3061
  137MOL    O2041092   7.040   1.011   1.240  0.0337  0.0706 -0.3315
  137MOL    O2141093   6.831   0.906   1.241  0.4341 -0.8056 -0.0727
  137MOL    C2241094   6.880   0.783   1.189  0.0062 -0.3055 -0.3569
  137MOL    C2341095   6.907   0.667   1.284 -0.4818  0.6405 -0.0252
  137MOL    H2441096   6.760   1.311   1.326 -1.7547  0.4233 -1.4734
  137MOL    H2541097   6.704   1.184   1.219 -0.1187 -1.0299  1.0485
  137MOL    H2641098   6.947   1.172   1.382  0.3295 -0.6201 -0.3251
  137MOL    H2741099   6.799   0.752   1.123  0.9545 -1.0827 -1.1869
  137MOL    H2841100   6.958   0.801   1.116 -0.5679 -0.4366 -1.0053
  137MOL    H2941101   6.960   0.588   1.232 -0.1025 -1.3360  3.2463
  137MOL    H3041102   6.822   0.610   1.322 -0.7570  1.0231 -0.0657
  137MOL    H3141103   6.969   0.694   1.369  0.8269  0.2093 -0.8351
  137MOL    C3241104   6.760   1.069   1.449  0.0187  0.2759 -0.3759
  137MOL    C3341105   6.756   1.158   1.575  0.5292 -0.2826 -0.2440
  137MOL    C3441106   6.887   1.152   1.660  0.0989 -0.1051 -0.9444
  137MOL    O3541107   6.902   1.076   1.754 -0.4792 -0.5583  0.0743
  137MOL    O3641108   6.982   1.240   1.617 -0.0121 -0.0593  0.0228
  137MOL    C3741109   7.108   1.235   1.671 -0.3370 -0.2480  1.0011
  137MOL    C3841110   7.201   1.305   1.567  0.6766  0.0716  0.6782
  137MOL    H3941111   6.661   1.075   1.403 -0.7113  1.3199  1.2947
  137MOL    H4041112   6.757   0.961   1.463  0.5023  0.1184 -1.4223
  137MOL    H4141113   6.757   1.262   1.542 -2.8190  0.5993  2.1802
  137MOL    H4241114   7.128   1.280   1.768  0.1067  0.8662  0.4136
  137MOL    H4341115   7.133   1.129   1.675 -1.6132 -0.5594  0.8993
  137MOL    H4441116   7.302   1.264   1.570  0.9479  0.7301  0.5769
  137MOL    H4541117   7.211   1.413   1.577 -1.6733  0.5478 -1.5489
  137MOL    H4641118   7.173   1.287   1.463  0.1023 -0.2009  0.8836
  137MOL    C4741119   6.630   1.128   1.664 -0.3236  0.2161 -0.0634
  137MOL    C4841120   6.586   1.218   1.784 -0.3618  0.3631 -0.2465
  137MOL    C4941121   6.583   1.370   1.753  0.8134  0.8130 -0.2556
  137MOL    O5041122   6.477   1.425   1.726 -0.0383  0.2424 -0.5511
  137MOL    O5141123   6.705   1.426   1.761 -0.4842 -0.2291  0.5254
  137MOL    C5241124   6.728   1.563   1.741  0.1679  0.4029 -0.1535
  137MOL    C5341125   6.871   1.571   1.682  0.2163 -0.4450 -0.4781
  137MOL    H5441126   6.548   1.107   1.595 -0.0120 -0.8917 -0.0970
  137MOL    H5541127   6.635   1.025   1.699 -2.2316 -0.3010 -1.2274
  137MOL    H5641128   6.482   1.188   1.795 -0.3367  0.6960  0.9804
  137MOL    H5741129   6.656   1.610   1.675 -1.7096 -1.8233  0.2411
  137MOL    H5841130   6.744   1.606   1.841 -0.6298 -1.2871  0.7176
  137MOL    H5941131   6.872   1.510   1.591  1.4037 -3.1290  1.2665
  137MOL    H6041132   6.957   1.534   1.738  0.1830  0.5426  0.2305
  137MOL    H6141133   6.890   1.673   1.649  0.7212 -0.4082 -0.0802
  137MOL    C6241134   6.641   1.184   1.929  0.4529  1.3656 -0.1015
  137MOL    C6341135   6.570   1.069   2.006 -0.0804  0.2084 -0.5970
  137MOL    C6441136   6.482   1.121   2.122 -0.2851 -0.0943  1.0425
  137MOL    O6541137   6.508   1.105   2.239 -0.4895  0.0278  0.3743
  137MOL    O6641138   6.385   1.201   2.073 -0.1126 -0.4551  0.3831
  137MOL    C6741139   6.301   1.264   2.164  0.3851  0.9235 -0.1761
  137MOL    C6841140   6.352   1.408   2.190  0.5995  0.3652 -0.2553
  137MOL    H6941141   6.745   1.153   1.922  0.7640  2.0992  1.0908
  137MOL    H7041142   6.643   1.278   1.983 -3.4074  0.5460  1.6530
  137MOL    H7141143   6.495   1.034   1.936 -0.4469  0.5106 -0.3564
  137MOL    H7241144   6.197   1.264   2.132 -0.1887  0.9399  1.6421
  137MOL    H7341145   6.305   1.212   2.260 -2.0481  0.5683 -0.2468
  137MOL    H7441146   6.388   1.459   2.101  1.4779 -1.7868 -1.1653
  137MOL    H7541147   6.433   1.408   2.263  0.9692  0.3765 -0.6651
  137MOL    H7641148   6.271   1.468   2.233 -1.3025 -0.3953 -2.6526
  137MOL    C7741149   6.668   0.958   2.042 -0.0948  0.1497  0.4821
  137MOL    C7841150   6.610   0.832   2.113  0.0880 -0.5302  0.4187
  137MOL    C7941151   6.717   0.738   2.167  0.1513  0.2202  0.8301
  137MOL    O8041152   6.835   0.761   2.138  0.4725  0.0244  0.0422
  137MOL    O8141153   6.672   0.642   2.239  0.4599 -0.0984  0.4666
  137MOL    C8241154   6.764   0.573   2.326 -0.6407 -0.3400  0.3667
  137MOL    C8341155   6.832   0.458   2.259  0.1148 -0.1142 -0.1304
  137MOL    H8441156   6.731   0.919   1.961  1.2392 -0.6467  1.8872
  137MOL    H8541157   6.737   1.014   2.105  0.2740 -0.2693  0.4525
  137MOL    H8641158   6.549   0.867   2.196 -2.0195  0.1740 -1.3505
  137MOL    H8741159   6.832   0.650   2.362 -1.7747  1.5939 -1.4854
  137MOL    H8841160   6.712   0.528   2.410  1.1217  0.4076  1.8879
  137MOL    H8941161   6.881   0.490   2.168 -2.0999 -1.3784 -1.8255
  137MOL    H9041162   6.758   0.381   2.236  0.2627 -0.0956 -0.6718
  137MOL    H9141163   6.913   0.403   2.307 -1.5333 -2.0136  0.5989
  137MOL    C9241164   6.511   0.751   2.021 -0.1681 -0.0910  0.1458
  137MOL    C9341165   6.359   0.804   2.030  0.0238  0.3228 -0.3196
  137MOL    C9441166   6.295   0.810   2.168  0.7241  0.1668 -0.6290
  137MOL    O9541167   6.228   0.906   2.207 -0.8428 -0.4834  0.3382
  137MOL    O9641168   6.310   0.692   2.229 -0.5753 -0.3091  0.5180
  137MOL    C9741169   6.260   0.666   2.360  0.1609 -0.4880 -0.7701
  137MOL    C9841170   6.117   0.622   2.358  0.3462  0.5525 -0.2707
  137MOL    H9941171   6.546   0.771   1.919 -2.0886 -0.2692 -0.5563
  137MOL   H10041172   6.521   0.642   2.021  0.9592  0.0062  0.9805
  137MOL   H10141173   6.351   0.906   1.993  1.1744  0.9748  1.1883
  137MOL   H10241174   6.333   0.608   2.417 -0.9041  0.3059  1.4608
  137MOL   H10341175   6.267   0.760   2.415  1.8701 -0.8309 -0.3629
  137MOL   H10441176   6.082   0.588   2.455  0.0768 -0.4528 -0.7242
  137MOL   H10541177   6.108   0.541   2.286 -0.2325  0.0479  0.3711
  137MOL   H10641178   6.056   0.701   2.314 -3.2813 -2.0180 -0.0713
  137MOL   C10741179   6.266   0.721   1.936  0.4684 -0.4638 -0.3688
  137MOL   C10841180   6.294   0.732   1.784 -0.8476  0.5931  0.3915
  137MOL   C10941181   6.313   0.875   1.733  0.3468 -0.1201 -0.2133
  137MOL   O11041182   6.426   0.902   1.691  0.0153  0.3251 -0.4196
  137MOL   O11141183   6.205   0.954   1.745  0.0412  0.7656 -0.2983
  137MOL   C11241184   6.213   1.078   1.674  0.7989  0.2893  0.6234
  137MOL   C11341185   6.194   1.194   1.768  0.2731 -0.5803  0.0139
  137MOL   H11441186   6.262   0.614   1.956 -2.9179 -0.3517 -0.0201
  137MOL   H11541187   6.161   0.751   1.947  0.9336  1.1772 -0.2804
  137MOL   H11641188   6.392   0.684   1.774 -1.8037 -1.4533  0.5840
  137MOL   H11741189   6.313   1.093   1.634  0.7500  1.6234  0.9672
  137MOL   H11841190   6.158   1.078   1.580  0.6668  0.1845  0.7005
  137MOL   H11941191   6.248   1.280   1.727  0.5442 -1.4608 -1.5060
  137MOL   H12041192   6.224   1.174   1.871 -1.1353  0.6181  0.6722
  137MOL   H12141193   6.092   1.232   1.765  0.6207  0.2720 -1.4010
  137MOL   C12241194   6.188   0.646   1.703  0.8647  0.1005  0.0439
  137MOL   C12341195   6.197   0.649   1.549 -0.0511 -0.4962  0.4382
  137MOL   C12441196   6.061   0.677   1.478  0.2175 -0.2238  0.5409
  137MOL   O12541197   5.970   0.590   1.454  0.2324 -0.3339 -0.4650
  137MOL   O12641198   6.044   0.810   1.452  0.0461 -0.2217  0.0605
  137MOL   C12741199   5.919   0.862   1.400 -0.3576 -0.3863 -0.0949
  137MOL   C12841200   5.861   0.955   1.507 -0.0285 -0.2161  0.1638
  137MOL   H12941201   6.199   0.545   1.742 -0.9572  0.6706  2.1522
  137MOL   H13041202   6.093   0.693   1.728  0.6010  0.5723 -1.7873
  137MOL   H13141203   6.253   0.734   1.511  0.8806 -0.9172  0.8608
  137MOL   H13241204   5.930   0.916   1.307  0.4628 -0.5485 -0.0956
  137MOL   H13341205   5.847   0.785   1.371 -0.5460 -0.9678  1.7740
  137MOL   H13441206   5.763   0.994   1.480  0.5343  1.9725  1.2071
  137MOL   H13541207   5.928   1.039   1.524  1.8973 -1.8448  0.8638
  137MOL   H13641208   5.852   0.892   1.596 -0.1818 -1.3236 -0.6242
  137MOL   C13741209   6.258   0.517   1.498  0.3452  0.3267 -0.5977
  137MOL   C13841210   6.402   0.480   1.549  0.2880 -0.2356  0.6048
  137MOL   C13941211   6.500   0.590   1.508 -0.4282  0.6998  0.5036
  137MOL   O14041212   6.474   0.671   1.420 -0.2138  0.5676  0.7804
  137MOL   O14141213   6.606   0.602   1.590  0.1840  0.5348 -0.7448
  137MOL   C14241214   6.688   0.712   1.577  0.3307  0.2566 -0.2739
  137MOL   C14341215   6.816   0.691   1.651 -0.2655  0.4505  0.0298
  137MOL   H14441216   6.202   0.429   1.531  1.2487 -0.4036 -0.9793
  137MOL   H14541217   6.246   0.513   1.390  0.5211 -0.9798 -0.5851
  137MOL   H14641218   6.401   0.489   1.657 -0.3434  0.5377  0.5421
  137MOL   H14741219   6.709   0.736   1.473  0.3742  1.7874  0.0784
  137MOL   H14841220   6.627   0.793   1.617  2.0846  2.3452 -1.6933
  137MOL   H14941221   6.880   0.779   1.641  0.1260  0.0152 -1.4211
  137MOL   H15041222   6.884   0.618   1.607  1.1861  0.9437  1.4155
  137MOL   H15141223   6.806   0.663   1.756  0.3089  0.7588  0.1699
  137MOL   C15241224   6.463   0.339   1.518 -0.3652  0.7153  0.3143
  137MOL   C15341225   6.378   0.215   1.565 -0.6956  0.6234  0.4290
  137MOL   C15441226   6.372   0.220   1.721  0.4571  0.2159  0.3207
  137MOL   O15541227   6.458   0.164   1.789  0.2537  0.0674 -0.4728
  137MOL   O15641228   6.280   0.304   1.776 -0.1224 -0.5610 -0.2818
  137MOL   C15741229   6.283   0.316   1.914 -0.0940 -0.1705  0.5410
  137MOL   C15841230   6.139   0.356   1.948  0.8082  0.0131 -0.0987
  137MOL   H15941231   6.473   0.344   1.409  2.1211 -1.7298  0.3904
  137MOL   H16041232   6.564   0.319   1.552 -0.3638  0.3971  0.1287
  137MOL   H16141233   6.275   0.221   1.529 -0.1537 -0.3043 -1.3868
  137MOL   H16241234   6.292   0.214   1.952 -0.8135 -0.2940  0.4015
  137MOL   H16341235   6.359   0.374   1.964  0.5954  0.3347 -1.0506
  137MOL   H16441236   6.078   0.284   1.895  0.4109  1.5258 -1.7309
  137MOL   H16541237   6.116   0.457   1.914 -3.1216 -0.5160  0.8012
  137MOL   H16641238   6.124   0.354   2.056  1.9195 -0.9024  0.0591
  137MOL   C16741239   6.448   0.079   1.529  0.0872 -0.4138 -0.4548
  137MOL   C16841240   6.450   0.055   1.378 -0.4042  0.1967  0.4016
  137MOL   C16941241   6.317   0.008   1.321 -0.2440 -0.0372  0.7018
  137MOL   O17041242   6.299   7.810   1.271 -0.3587  0.1757 -0.4084
  137MOL   O17141243   6.223   0.101   1.320  0.1434 -0.1478 -0.3684
  137MOL   C17241244   6.110   0.082   1.231 -0.3019 -0.6466  0.1614
  137MOL   C17341245   6.058   0.218   1.196  0.5602 -0.8978  0.1915
  137MOL   H17441246   6.548   0.067   1.568  0.1162 -0.3130 -0.4984
  137MOL   H17541247   6.387   0.002   1.577  1.5529 -1.4341 -0.2184
  137MOL   H17641248   6.469   0.153   1.333  1.1597  0.2978  1.2641
  137MOL   H17741249   6.152   0.025   1.148  0.6352  1.0011 -0.5227
  137MOL   H17841250   6.034   0.023   1.282  1.0046 -1.4827  1.1714
  137MOL   H17941251   6.115   0.269   1.119  0.0239 -2.6301 -1.3880
  137MOL   H18041252   6.055   0.289   1.279  0.9864 -1.6678  0.8723
  137MOL   H18141253   5.953   0.209   1.170  1.2045 -2.2916 -2.0664
  137MOL   C18241254   6.578   7.890   1.330  0.2330 -1.2084  0.6476
  137MOL   C18341255   6.583   7.862   1.173  0.1076  0.6657 -0.0135
  137MOL   C18441256   6.701   7.772   1.130 -0.0408  0.0804  0.2276
  137MOL   O18541257   6.679   7.691   1.039 -0.4457 -0.2491 -0.0341
  137MOL   O18641258   6.816   7.802   1.192 -0.5026  0.3801 -0.0843
  137MOL   C18741259   6.934   7.723   1.160 -0.5009 -0.5214  0.5907
  137MOL   C18841260   7.042   7.735   1.275 -0.0507  1.3921  0.0508
  137MOL   H18941261   6.665   0.035   1.369 -0.2894 -0.4304  0.7756
  137MOL   H19041262   6.592   7.799   1.388 -1.2790 -0.7807  1.7146
  137MOL   H19141263   6.500   7.798   1.144  0.9529 -0.4851  0.1005
  137MOL   H19241264   6.902   7.622   1.135  0.0472 -0.5521  0.0011
  137MOL   H19341265   6.972   7.775   1.072 -4.7623  1.4430 -0.1908
  137MOL   H19441266   7.123   7.803   1.245 -0.3572  1.0245 -1.6728
  137MOL   H19541267   7.092   7.641   1.298  2.2223  2.4643 -0.2480
  137MOL   H19641268   6.996   7.769   1.367 -1.0856  1.3187 -0.4363
  137MOL   C19741269   6.582   0.080   1.092 -0.0158  0.2595 -0.4458
  137MOL   C19841270   6.700   0.177   1.111 -0.6573  0.3375  0.6401
  137MOL   C19941271   6.655   0.304   1.180 -0.2693 -0.9094  0.6889
  137MOL   O20041272   6.702   0.334   1.288  0.3450  0.0815 -0.2293
  137MOL   O20141273   6.578   0.380   1.099  0.5413  0.2954  0.9659
  137MOL   C20241274   6.526   0.510   1.130 -0.3500  0.3536  0.4599
  137MOL   C20341275   6.376   0.507   1.129  0.6118 -0.0062  0.2253
  137MOL   H20441276   6.582   0.047   0.988 -1.8116 -3.9820  0.8019
  137MOL   H20541277   6.483   0.124   1.106 -0.1995 -0.4229  0.4361
  137MOL   H20641278   6.774   0.136   1.180 -0.0028 -0.7329 -0.6815
  137MOL   H20741279   6.566   0.530   1.230  2.8019 -0.8742 -0.4867
  137MOL   H20841280   6.578   0.582   1.067  0.8359 -2.8050 -2.3091
  137MOL   H20941281   6.344   0.487   1.026  2.4855 -1.0239 -0.1827
  137MOL   H21041282   6.336   0.607   1.146 -0.7425 -0.6340  0.8256
  137MOL   H21141283   6.332   0.438   1.201  1.9172 -1.6998 -0.5743
  137MOL   C21241284   6.773   0.214   0.979 -0.4531  0.9133 -0.2778
  137MOL   C21341285   6.898   0.303   0.994 -0.2019  0.1802  0.0791
  137MOL   C21441286   6.874   0.434   0.923  0.0526 -0.1728 -0.2000
  137MOL   O21541287   6.874   0.540   0.992 -0.0914  0.0872  0.6158
  137MOL   O21641288   6.875   0.415   0.794 -0.3002 -0.2416 -0.3813
  137MOL   C21741289   6.883   0.524   0.706 -0.4767 -0.3634 -0.0495
  137MOL   C21841290   6.813   0.489   0.569 -0.7896  0.6476  0.5276
  137MOL   H21941291   6.796   0.118   0.934 -1.1901  0.2473  0.7561
  137MOL   H22041292   6.692   0.255   0.919 -1.1723 -0.1478 -0.0325
  137MOL   H22141293   6.916   0.337   1.095  2.6043 -1.7036  0.2665
  137MOL   H22241294   6.846   0.619   0.746 -1.1844 -0.3137 -0.8096
  137MOL   H22341295   6.990   0.543   0.695 -0.1925 -1.1955  1.0851
  137MOL   H22441296   6.704   0.498   0.571 -1.2138 -3.0171 -1.5763
  137MOL   H22541297   6.838   0.388   0.537 -0.5411  1.1764 -0.9685
  137MOL   H22641298   6.848   0.554   0.489 -2.3887  1.2619  0.3133
  137MOL   C22741299   7.022   0.216   0.963  0.7100 -0.1536 -0.0630
  137MOL   C22841300   7.161   0.277   1.004  0.2766  0.0313  0.0250
  137MOL   C22941301   7.164   0.298   1.158 -0.0126 -0.4644  0.4435
  137MOL   O23041302   7.185   0.404   1.210 -0.1598  0.4869 -0.5685
  137MOL   O23141303   7.137   0.176   1.218 -0.0845 -0.4100 -0.1287
  137MOL   C23241304   7.119   0.171   1.358 -0.3710 -0.3586 -0.0454
  137MOL   C23341305   6.978   0.205   1.394 -0.6284 -0.2823 -0.2148
  137MOL   H23441306   7.008   0.125   1.022 -0.8870  0.1619  0.0499
  137MOL   H23541307   7.024   0.185   0.858 -0.6576 -2.0467  0.4490
  137MOL   H23641308   7.230   0.199   0.970 -1.9058  0.0093 -4.7160
  137MOL   H23741309   7.134   0.067   1.386 -2.1270 -0.1502  1.7150
  137MOL   H23841310   7.188   0.238   1.409 -2.1862  2.2435 -0.9047
  137MOL   H23941311   6.904   0.126   1.378 -0.8603 -0.1895  0.3993
  137MOL   H24041312   6.949   0.302   1.354 -0.4988 -0.0355  0.2904
  137MOL   H24141313   6.979   0.225   1.501 -0.1814 -1.3831  0.0043
  137MOL   C24241314   7.210   0.399   0.923  0.4443 -0.0984 -0.3049
  137MOL   C24341315   7.365   0.424   0.919 -0.1585 -0.0607  0.3321
  137MOL   C24441316   7.416   0.528   1.023 -0.0043 -0.3909  0.0236
  137MOL   O24541317   7.496   0.494   1.107  0.3276  0.2650 -0.0625
  137MOL   O24641318   7.361   0.654   1.008  0.0411 -0.7957 -0.1468
  137MOL   C24741319   7.400   0.754   1.092 -0.4103  0.1905 -0.1130
  137MOL   C24841320   7.300   0.773   1.212 -0.3986  0.7697 -0.1472
  137MOL   H24941321   7.167   0.382   0.824 -1.6876  0.2810  0.5152
  137MOL   H25041322   7.159   0.493   0.947 -0.5677 -0.8598  0.5771
  137MOL   H25141323   7.412   0.327   0.934 -2.6236 -1.5893 -1.3230
  137MOL   H25241324   7.499   0.740   1.135  0.2082 -1.5627 -2.0443
  137MOL   H25341325   7.414   0.851   1.044 -0.7754  0.6232  0.6464
  137MOL   H25441326   7.287   0.683   1.273 -3.0142  1.1961 -0.0431
  137MOL   H25541327   7.198   0.793   1.181 -0.1358  2.2100 -0.0850
  137MOL   H25641328   7.325   0.862   1.269  0.3533 -0.2591  1.1768
  137MOL   C25741329   7.411   0.467   0.770  0.9607 -0.0126 -0.7449
  137MOL   C25841330   7.543   0.397   0.720 -0.1069  0.4188  0.0600
  137MOL   C25941331   7.540   0.244   0.713 -0.2537  0.3335  0.4475
  137MOL   O26041332   7.440   0.177   0.738  0.0794  0.4239 -0.0097
  137MOL   O26141333   7.664   0.184   0.674  0.4706 -0.7966  0.8782
  137MOL   C26241334   7.671   0.051   0.635  0.0378  0.7618 -0.3238
  137MOL   C26341335   7.764   0.033   0.522 -0.4863  0.8272  0.1204
  137MOL   H26441336   7.339   0.446   0.691  0.1470  1.6192 -0.4648
  137MOL   H26541337   7.435   0.573   0.769  1.4613 -0.1119  0.0796
  137MOL   H26641338   7.566   0.436   0.621 -0.8926 -0.0219 -0.3029
  137MOL   H26741339   7.704   7.905   0.723  2.2024  0.8724 -1.0241
  137MOL   H26841340   7.578   0.023   0.586 -0.3749  0.0173  0.8726
  137MOL   H26941341   7.862   0.076   0.543 -0.7288  0.9607  1.0221
  137MOL   H27041342   7.718   0.070   0.431 -0.5362 -0.3160 -0.3237
  137MOL   H27141343   7.781   7.837   0.496 -1.7588  0.9853 -1.3945
  137MOL   C27241344   7.676   0.438   0.797  0.0733 -0.1782  0.3090
  137MOL   C27341345   7.719   0.585   0.796  0.4283 -0.1019 -0.3859
  137MOL   C27441346   7.720   0.637   0.655 -0.3191 -0.1358 -0.2813
  137MOL   O27541347   7.789   0.582   0.569 -0.1943 -0.5320  0.1163
  137MOL   O27641348   7.643   0.747   0.646  0.1302 -0.3968  0.2997
  137MOL   C27741349   7.632   0.822   0.521  0.1923 -0.2640  0.3540
  137MOL   C27841350   7.533   0.930   0.547 -0.0583 -0.2387  0.4010
  137MOL   H27941351   7.664   0.423   0.904 -1.0998  0.0795  0.2277
  137MOL   H28041352   7.759   0.377   0.761 -1.5254 -1.4035 -1.4840
  137MOL   H28141353   7.634   0.631   0.847 -0.1133  0.0720 -1.4444
  137MOL   H28241354   7.732   0.858   0.497  0.1844 -1.5867 -1.8305
  137MOL   H28341355   7.593   0.758   0.441  0.7042 -0.2100  0.0606
  137MOL   H28441356   7.460   0.893   0.620  0.2647  1.1714  1.4648
  137MOL   H28541357   7.475   0.950   0.457  1.9258  1.5447 -0.5137
  137MOL   H28641358   7.572   1.022   0.590  0.7844 -0.1477 -0.5552
  137MOL   C28741359   7.849   0.607   0.876  0.6851  0.2747 -0.1850
  137MOL   C28841360   7.829   0.606   1.027  0.2100  0.4253  0.0058
  137MOL   C28941361   7.770   0.735   1.083 -0.4432 -0.7982 -0.2431
  137MOL   O29041362   7.708   0.815   1.015  0.1463 -0.6272 -0.0706
  137MOL   O29141363   7.797   0.743   1.212  0.6573  0.1673 -0.0421
  137MOL   C29241364   7.749   0.855   1.286  1.0033  0.6438 -0.2395
  137MOL   C29341365   7.857   0.904   1.378  0.4863 -0.2576  0.4389
  137MOL   H29441366   0.005   0.523   0.849 -0.5225 -0.4185 -0.9238
  137MOL   H29541367   7.903   0.699   0.851  1.2131  0.0591  0.1435
  137MOL   H29641368   7.756   0.537   1.069  0.8454 -0.3132 -0.0867
  137MOL   H29741369   7.704   0.927   1.218  0.5361  2.0702  1.5286
  137MOL   H29841370   7.666   0.818   1.347  0.1525 -0.5550 -2.0711
  137MOL   H29941371   7.818   0.997   1.420  0.1995  1.4465 -3.3914
  137MOL   H30041372   0.024   0.940   1.308 -0.7722 -0.3009 -0.9412
  137MOL   H30141373   7.898   0.847   1.461  0.4078 -2.6513 -1.1386
  137MOL   H30241374   0.018   0.585   1.072  0.2903  0.7398 -0.0171
  138MOL     C141375   4.634   3.288   6.534 -0.4058  0.6230  0.5597
  138MOL     C241376   4.767   3.292   6.612  0.8170 -0.0180  0.1574
  138MOL     C341377   4.734   3.269   6.760 -0.6055  0.7498  0.0292
  138MOL     O441378   4.798   3.181   6.815 -0.0163 -0.5473  0.1800
  138MOL     O541379   4.646   3.355   6.819  0.0541  0.4605 -0.6237
  138MOL     C641380   4.631   3.359   6.959  0.4772  0.3023 -0.0953
  138MOL     C741381   4.586   3.491   7.021  0.2635 -0.0615 -0.3820
  138MOL     H841382   4.583   3.193   6.546  1.3514 -0.1753  1.8775
  138MOL     H941383   4.634   3.303   6.426 -0.3021 -3.3015 -0.0288
  138MOL    H1041384   4.831   3.214   6.573  1.6145 -0.6559  2.6629
  138MOL    H1141385   4.570   3.280   7.000 -0.8374  1.1094 -0.4495
  138MOL    H1241386   4.733   3.341   6.992  0.0643 -2.0672 -0.0892
  138MOL    H1341387   4.649   3.571   6.981  1.1412 -0.3129  0.4887
  138MOL    H1441388   4.584   3.479   7.129 -2.0937  1.3508 -0.2360
  138MOL    H1541389   4.484   3.512   6.989  0.1457  1.1548  0.7846
  138MOL    H1641390   4.564   3.359   6.578  1.1053  1.3301  1.8801
  138MOL    C1741391   4.851   3.421   6.578  0.2699 -0.3681  0.8552
  138MOL    C1841392   5.005   3.428   6.612  0.8298  1.3960 -0.4691
  138MOL    C1941393   5.062   3.570   6.614 -0.2124 -0.6424 -0.3916
  138MOL    O2041394   5.065   3.641   6.714  0.0172  0.4740  0.0205
  138MOL    O2141395   5.089   3.610   6.487  0.0365 -0.4335  0.2519
  138MOL    C2241396   5.137   3.737   6.461 -0.0627 -0.0196  0.4976
  138MOL    C2341397   5.256   3.724   6.365  0.0563 -0.4219  0.6260
  138MOL    H2441398   4.845   3.452   6.474  0.1769 -0.3415  0.8682
  138MOL    H2541399   4.808   3.497   6.643  0.1370  1.6344 -1.5079
  138MOL    H2641400   5.011   3.393   6.716  3.2997  1.7174 -0.4689
  138MOL    H2741401   5.056   3.791   6.411 -0.3820  0.1870  1.2341
  138MOL    H2841402   5.176   3.792   6.546  1.3342 -1.2836  0.6992
  138MOL    H2941403   5.233   3.663   6.278  0.4755 -1.6564  1.3682
  138MOL    H3041404   5.334   3.676   6.424 -0.0409 -0.8382  0.4189
  138MOL    H3141405   5.301   3.819   6.336 -1.5206 -0.2724 -1.4182
  138MOL    C3241406   5.084   3.322   6.534 -0.2217 -0.5487 -0.5246
  138MOL    C3341407   5.224   3.293   6.590  0.9669  0.5312 -0.0267
  138MOL    C3441408   5.321   3.252   6.473  0.6068 -0.3654 -0.2379
  138MOL    O3541409   5.421   3.317   6.450 -0.0020 -0.3399  0.3168
  138MOL    O3641410   5.278   3.140   6.410  0.4693  0.5949  0.2046
  138MOL    C3741411   5.356   3.090   6.299  0.4140 -0.1458 -1.2748
  138MOL    C3841412   5.297   2.950   6.292 -0.3269 -0.2133 -0.0919
  138MOL    H3941413   5.030   3.228   6.524 -0.0236 -0.5717 -1.4484
  138MOL    H4041414   5.098   3.356   6.432 -0.8077  0.2986 -0.3296
  138MOL    H4141415   5.258   3.384   6.639 -1.8559  1.1774  0.8251
  138MOL    H4241416   5.331   3.144   6.208  2.6673  3.2200 -0.0147
  138MOL    H4341417   5.465   3.090   6.307  0.2898  2.0590  1.3140
  138MOL    H4441418   5.193   2.961   6.260 -0.0803  0.8946 -0.5451
  138MOL    H4541419   5.304   2.911   6.393 -0.5943 -0.3194 -0.1129
  138MOL    H4641420   5.353   2.898   6.214 -0.4337  0.1318 -0.4053
  138MOL    C4741421   5.217   3.188   6.707 -0.4370  0.2929  0.5513
  138MOL    C4841422   5.341   3.104   6.750  0.0245 -0.3849 -0.5133
  138MOL    C4941423   5.295   2.986   6.833  0.1491 -0.1399  0.4445
  138MOL    O5041424   5.181   2.974   6.870 -0.3282 -0.0117  0.0494
  138MOL    O5141425   5.389   2.895   6.862  0.5164  0.0449 -0.3704
  138MOL    C5241426   5.362   2.803   6.969 -0.2124  0.0182 -0.2805
  138MOL    C5341427   5.500   2.749   7.010  0.2765 -0.4355 -0.9496
  138MOL    H5441428   5.181   3.241   6.795  0.3429  0.1577  0.9611
  138MOL    H5541429   5.144   3.109   6.685  1.0676 -0.3727 -2.2878
  138MOL    H5641430   5.367   3.048   6.660  1.3125 -0.2280 -0.2382
  138MOL    H5741431   5.313   2.846   7.057 -0.4145  2.7725 -1.6595
  138MOL    H5841432   5.297   2.728   6.924 -0.3341  0.2515 -0.4954
  138MOL    H5941433   5.499   2.676   7.090  3.4709  0.5826  0.1062
  138MOL    H6041434   5.566   2.825   7.052 -1.5097 -0.5359  2.2075
  138MOL    H6141435   5.555   2.708   6.925  3.5525  4.0051 -1.1803
  138MOL    C6241436   5.459   3.180   6.818  0.2000  0.0194  0.3697
  138MOL    C6341437   5.440   3.239   6.957 -0.0854 -0.6058  0.5124
  138MOL    C6441438   5.350   3.362   6.954  0.1760 -0.1867 -0.5094
  138MOL    O6541439   5.343   3.432   6.858 -0.5834 -0.2609  0.1903
  138MOL    O6641440   5.288   3.373   7.069  0.1024  0.1035  0.0815
  138MOL    C6741441   5.187   3.467   7.091 -0.0390  0.9649 -0.7656
  138MOL    C6841442   5.053   3.435   7.016  0.2272  0.0689 -0.4913
  138MOL    H6941443   5.534   3.101   6.825  1.2574  1.1749  2.5908
  138MOL    H7041444   5.498   3.251   6.745  1.2904  0.0975  1.0169
  138MOL    H7141445   5.380   3.171   7.017 -0.7928  0.1078  0.6131
  138MOL    H7241446   5.177   3.479   7.199  3.3520 -0.5683 -0.1940
  138MOL    H7341447   5.219   3.566   7.057 -0.8246  0.6276 -2.5293
  138MOL    H7441448   4.982   3.516   7.034  1.0742  0.8270 -0.5325
  138MOL    H7541449   4.999   3.353   7.064  1.3813 -0.2600  0.2539
  138MOL    H7641450   5.067   3.427   6.908 -0.6168  0.3894 -0.6302
  138MOL    C7741451   5.563   3.268   7.035  0.3035  0.0544  0.6405
  138MOL    C7841452   5.602   3.136   7.123 -0.4015  0.1491 -0.5938
  138MOL    C7941453   5.503   3.118   7.243  0.4467  0.3048 -0.4782
  138MOL    O8041454   5.418   3.027   7.245  0.5111  0.2167 -0.0004
  138MOL    O8141455   5.513   3.212   7.333 -0.4898  0.4583  0.0769
  138MOL    C8241456   5.430   3.217   7.444 -0.3550 -0.0738  1.0065
  138MOL    C8341457   5.360   3.352   7.446 -0.1581 -0.3404  0.1619
  138MOL    H8441458   5.643   3.310   6.974  1.6300 -1.8841  1.0140
  138MOL    H8541459   5.545   3.348   7.107 -1.3842 -0.5393  0.8950
  138MOL    H8641460   5.580   3.049   7.060 -0.7447 -0.0619 -0.1844
  138MOL    H8741461   5.359   3.136   7.453 -1.9832  1.1200 -0.7541
  138MOL    H8841462   5.487   3.224   7.537 -0.6659  0.1109  1.1847
  138MOL    H8941463   5.424   3.441   7.449 -1.1437  0.3650  0.8793
  138MOL    H9041464   5.298   3.359   7.535  1.1594 -0.2365  1.0929
  138MOL    H9141465   5.305   3.362   7.353  2.3680  1.5176 -1.2147
  138MOL    C9241466   5.761   3.129   7.160  0.2059 -0.5342  1.1067
  138MOL    C9341467   5.797   3.011   7.250 -0.7734 -0.1703  0.2103
  138MOL    C9441468   5.791   3.049   7.401  0.2756  0.2680 -0.3389
  138MOL    O9541469   5.783   3.162   7.437 -0.0046 -0.2754 -0.5888
  138MOL    O9641470   5.805   2.940   7.478 -0.0785 -0.3032  0.7463
  138MOL    C9741471   5.797   2.948   7.618 -0.4819 -0.6880 -0.4609
  138MOL    C9841472   5.929   3.002   7.671 -0.4090  0.2645  0.3843
  138MOL    H9941473   5.815   3.104   7.069 -0.6734  0.0606  0.4066
  138MOL   H10041474   5.802   3.222   7.200 -0.8310  0.4960 -0.1539
  138MOL   H10141475   5.721   2.935   7.239 -0.4645 -0.3348 -0.8076
  138MOL   H10241476   5.716   3.012   7.653  1.2108  0.4416  1.4779
  138MOL   H10341477   5.770   2.851   7.659 -1.4851 -0.6685 -1.0411
  138MOL   H10441478   6.018   2.944   7.644 -0.0558  0.9439  0.0841
  138MOL   H10541479   5.931   2.998   7.779  0.5885 -0.0271  0.3600
  138MOL   H10641480   5.946   3.105   7.641  0.1579  0.0333 -0.1035
  138MOL   C10741481   5.929   2.940   7.210 -0.0117  0.7045  0.8806
  138MOL   C10841482   5.911   2.802   7.152 -0.0127  0.4104  0.1066
  138MOL   C10941483   5.839   2.703   7.249  0.2477  0.3498  0.3223
  138MOL   O11041484   5.724   2.656   7.230  0.3517 -0.5772  0.2759
  138MOL   O11141485   5.913   2.664   7.354  0.1814  0.5198 -0.0918
  138MOL   C11241486   5.883   2.560   7.447 -0.1237  0.1793  0.8723
  138MOL   C11341487   5.968   2.580   7.574 -0.1680 -0.0337 -0.1873
  138MOL   H11441488   5.986   2.996   7.136  0.3992 -1.7363 -0.7376
  138MOL   H11541489   6.005   2.940   7.288  0.0647  1.1958  0.8040
  138MOL   H11641490   5.848   2.807   7.063  0.0541  0.4387  0.0610
  138MOL   H11741491   5.777   2.567   7.471 -0.6609 -2.2686 -0.6324
  138MOL   H11841492   5.909   2.468   7.395 -1.4044  0.6971 -0.7455
  138MOL   H11941493   5.919   2.565   7.670  1.5211 -0.6874  0.5965
  138MOL   H12041494   5.984   2.686   7.595  2.4078 -0.1156 -1.4242
  138MOL   H12141495   6.065   2.529   7.573 -0.4206 -0.5086 -0.3729
  138MOL   C12241496   6.041   2.735   7.100  0.2042 -0.4893  0.8100
  138MOL   C12341497   6.082   2.795   6.963  0.3840 -1.4282  0.4104
  138MOL   C12441498   5.987   2.744   6.854 -0.0434  0.0301  0.0684
  138MOL   O12541499   5.903   2.816   6.797  0.3774  0.6324  0.0194
  138MOL   O12641500   6.015   2.610   6.821 -0.3519 -0.4348 -0.2864
  138MOL   C12741501   5.940   2.547   6.722  0.1078 -0.0898 -0.1248
  138MOL   C12841502   6.028   2.566   6.592  0.3346  0.2079  0.4746
  138MOL   H12941503   6.127   2.736   7.166 -0.2371 -0.9094  1.3928
  138MOL   H13041504   6.028   2.627   7.087  4.1124 -0.7132 -2.0398
  138MOL   H13141505   6.042   2.896   6.969 -1.0222 -2.0295  1.4509
  138MOL   H13241506   5.930   2.439   6.731  2.0098 -0.1960  0.7022
  138MOL   H13341507   5.836   2.581   6.716 -0.5866 -2.2773 -0.8290
  138MOL   H13441508   6.132   2.573   6.623 -0.2020  1.0648  2.1662
  138MOL   H13541509   6.004   2.654   6.533 -0.9590 -0.5586 -0.1712
  138MOL   H13641510   6.007   2.486   6.520  2.3323 -0.6441  0.8015
  138MOL   C13741511   6.237   2.785   6.920 -0.4517  0.1634 -0.1817
  138MOL   C13841512   6.330   2.881   7.008 -0.1993 -0.3023  0.2822
  138MOL   C13941513   6.288   3.026   6.981 -0.1742 -0.0949  0.2139
  138MOL   O14041514   6.290   3.065   6.863  0.5020 -0.6526  0.3335
  138MOL   O14141515   6.279   3.102   7.095 -0.0145 -0.3442  0.5267
  138MOL   C14241516   6.248   3.244   7.083 -0.2369  1.3966  0.2799
  138MOL   C14341517   6.373   3.315   7.137  0.3654 -0.7494 -0.4295
  138MOL   H14441518   6.272   2.683   6.936 -1.1749 -0.0749 -0.1183
  138MOL   H14541519   6.252   2.814   6.816  0.6369 -0.4945 -0.2175
  138MOL   H14641520   6.307   2.863   7.113  0.7396  1.0576  0.7350
  138MOL   H14741521   6.224   3.270   6.981 -1.6882 -0.8249  0.0215
  138MOL   H14841522   6.163   3.257   7.150 -2.0427 -1.7344 -1.2651
  138MOL   H14941523   6.461   3.283   7.082  1.3571  1.6110 -0.2501
  138MOL   H15041524   6.392   3.293   7.243  0.3835 -1.0602 -0.4964
  138MOL   H15141525   6.350   3.421   7.136  0.4141 -0.6503  2.6457
  138MOL   C15241526   6.488   2.858   6.993  0.0585 -0.4679  0.2757
  138MOL   C15341527   6.575   2.932   7.104  0.3840 -0.2363 -0.0729
  138MOL   C15441528   6.728   2.934   7.063  0.0953  0.1575  0.0349
  138MOL   O15541529   6.790   3.030   7.014  0.1944  0.2014  0.0938
  138MOL   O15641530   6.785   2.812   7.088 -0.1220 -0.0230 -0.6218
  138MOL   C15741531   6.923   2.801   7.039  1.1178  0.2763 -0.7218
  138MOL   C15841532   6.966   2.650   7.068  0.0308  0.3352  0.5948
  138MOL   H15941533   6.497   2.751   7.013  1.3702 -1.0470 -3.2024
  138MOL   H16041534   6.518   2.882   6.891 -0.9162  2.7278  0.6618
  138MOL   H16141535   6.534   3.032   7.091  0.4422 -0.0526  1.0970
  138MOL   H16241536   6.930   2.825   6.933 -0.3725  2.3534 -0.3770
  138MOL   H16341537   6.988   2.871   7.092  1.0889  0.5519 -1.0488
  138MOL   H16441538   6.969   2.632   7.175 -0.8138 -1.6010  0.3133
  138MOL   H16541539   7.055   2.619   7.012 -1.4391  0.8687 -2.1555
  138MOL   H16641540   6.887   2.588   7.024  2.6068 -1.6691 -1.3745
  138MOL   C16741541   6.553   2.878   7.253 -0.3288  0.2156  0.4747
  138MOL   C16841542   6.499   2.986   7.344  0.3443 -0.3948  0.2093
  138MOL   C16941543   6.616   3.076   7.387 -0.2566 -0.2795  0.7780
  138MOL   O17041544   6.647   3.178   7.320  0.1162 -0.0464  0.4102
  138MOL   O17141545   6.688   3.024   7.493  0.5307 -0.7327  0.1319
  138MOL   C17241546   6.786   3.104   7.558  0.2038  0.3995  0.5188
  138MOL   C17341547   6.739   3.177   7.678 -0.2374  0.0342  0.4048
  138MOL   H17441548   6.484   2.793   7.254  0.0933 -0.1264  1.0554
  138MOL   H17541549   6.646   2.835   7.292  0.2813 -0.0932 -1.2819
  138MOL   H17641550   6.434   3.048   7.283  1.3244 -0.9164 -1.3928
  138MOL   H17741551   6.861   3.037   7.599  0.0165 -0.6708 -0.8493
  138MOL   H17841552   6.829   3.175   7.487  1.6326 -0.8344  0.1197
  138MOL   H17941553   6.815   3.235   7.731 -0.8365  2.8079 -1.6616
  138MOL   H18041554   6.674   3.110   7.735  1.6920 -2.2004  0.0427
  138MOL   H18141555   6.674   3.254   7.637  1.9475  1.5479 -0.2709
  138MOL   C18241556   6.411   2.929   7.457 -0.1409 -0.3360 -0.4076
  138MOL   C18341557   6.367   3.027   7.571  0.0548 -0.7442  0.5044
  138MOL   C18441558   6.322   2.944   7.696 -0.3647 -0.3783  0.7119
  138MOL   O18541559   6.286   2.829   7.681  0.6918 -0.2550  0.3040
  138MOL   O18641560   6.363   3.003   7.808 -0.3710 -0.1049 -0.2582
  138MOL   C18741561   6.325   2.959   0.024  0.4275  0.3113 -0.5655
  138MOL   C18841562   6.433   2.863   0.073  0.9232  0.1873  0.4203
  138MOL   H18941563   6.324   2.878   7.415  0.5320 -0.6695 -1.4282
  138MOL   H19041564   6.460   2.846   7.506  0.1964 -0.4012 -0.8519
  138MOL   H19141565   6.454   3.087   7.599 -0.3895  0.2929 -0.2598
  138MOL   H19241566   6.316   3.051   0.082  0.6868  0.6879 -1.1175
  138MOL   H19341567   6.226   2.919   0.042  1.2024 -2.6242 -2.4255
  138MOL   H19441568   6.410   2.839   0.177  0.1583  1.3069  0.5199
  138MOL   H19541569   6.533   2.906   0.080  0.7158  0.4376  2.0711
  138MOL   H19641570   6.434   2.767   0.022 -0.5083  0.2709  0.2201
  138MOL   C19741571   6.261   3.128   7.529 -0.1928  0.5277 -0.6333
  138MOL   C19841572   6.260   3.265   7.594 -0.2956 -0.2556 -0.2976
  138MOL   C19941573   6.123   3.328   7.573  0.6901  0.6655  0.4336
  138MOL   O20041574   6.047   3.344   7.670  0.4517  0.1151 -0.1021
  138MOL   O20141575   6.097   3.346   7.446 -0.8008  0.1744  0.2963
  138MOL   C20241576   5.983   3.425   7.400  0.0789  0.2721 -0.2191
  138MOL   C20341577   5.995   3.446   7.248 -0.1290  0.4306 -0.3901
  138MOL   H20441578   6.270   3.147   7.422 -0.2191 -2.0311 -1.1274
  138MOL   H20541579   6.163   3.082   7.535 -1.0588  2.3778 -0.5321
  138MOL   H20641580   6.269   3.256   7.702  1.5383 -1.2542 -0.5078
  138MOL   H20741581   5.894   3.366   7.422 -1.4708  2.1647 -1.2197
  138MOL   H20841582   5.972   3.520   7.454 -0.1829  0.2729 -0.2710
  138MOL   H20941583   5.987   3.350   7.196 -1.5170  0.4265 -0.1784
  138MOL   H21041584   6.091   3.495   7.226 -0.0858  1.3790  1.8275
  138MOL   H21141585   5.917   3.508   7.205 -0.0590  0.8238  0.0436
  138MOL   C21241586   6.376   3.350   7.535 -0.0657  0.4464 -0.4417
  138MOL   C21341587   6.445   3.458   7.619 -0.4350  0.2727 -0.0883
  138MOL   C21441588   6.356   3.546   7.711  0.1467  0.2394  0.0546
  138MOL   O21541589   6.358   3.535   7.832  0.4271  0.6390 -0.1178
  138MOL   O21641590   6.265   3.619   7.640 -0.3490  0.9422 -0.7030
  138MOL   C21741591   6.162   3.683   7.711 -0.2677  0.2695  0.8549
  138MOL   C21841592   6.152   3.821   7.646 -0.0607 -0.5938 -0.5785
  138MOL   H21941593   6.463   3.290   7.505 -1.5741 -1.3249 -1.3623
  138MOL   H22041594   6.343   3.397   7.442 -1.3780  0.2656 -0.0767
  138MOL   H22141595   6.505   3.415   7.700  0.1970  1.8850  0.3092
  138MOL   H22241596   6.065   3.635   7.700 -0.0336 -0.0423  0.0635
  138MOL   H22341597   6.169   3.699   7.818 -0.5700 -0.9267  1.0577
  138MOL   H22441598   6.096   3.831   7.553 -2.5053  0.6329  0.9836
  138MOL   H22541599   6.249   3.870   7.634 -1.2808  1.6483 -1.6090
  138MOL   H22641600   6.082   3.881   7.704  0.3770 -0.0994 -0.5567
  138MOL   C22741601   6.551   3.546   7.544 -0.2122  0.1757 -0.7207
  138MOL   C22841602   6.629   3.648   7.629  0.2801  0.3809  0.3441
  138MOL   C22941603   6.654   3.774   7.553 -0.6236 -0.6903  0.5732
  138MOL   O23041604   6.687   3.764   7.435  0.1290 -0.2068  0.6233
  138MOL   O23141605   6.626   3.888   7.628 -0.0875 -0.3183 -0.0543
  138MOL   C23241606   6.635   4.020   7.582 -0.6448 -0.0605 -0.2556
  138MOL   C23341607   6.703   4.110   7.685 -0.0496  0.6850 -0.5812
  138MOL   H23441608   6.627   3.485   7.493 -0.6914  0.0413 -1.2802
  138MOL   H23541609   6.490   3.591   7.466 -1.2073 -1.2537 -0.7918
  138MOL   H23641610   6.562   3.686   7.706  1.5118  0.9422  1.1559
  138MOL   H23741611   6.697   4.027   7.493 -0.7802  0.1689 -0.3329
  138MOL   H23841612   6.535   4.058   7.558 -0.1958 -0.5042 -2.9473
  138MOL   H23941613   6.636   4.123   7.771 -0.1145  0.7361 -0.6399
  138MOL   H24041614   6.729   4.206   7.642 -0.5032  0.2232 -1.9148
  138MOL   H24141615   6.794   4.080   7.738  0.5975  1.1612 -1.4309
  138MOL   C24241616   6.750   3.589   7.696 -0.5879 -0.1780 -0.2005
  138MOL   C24341617   6.817   3.657   7.817  0.2072 -0.6937 -0.0766
  138MOL   C24441618   6.911   3.770   7.791  0.1573  0.4360  0.1942
  138MOL   O24541619   6.902   3.876   7.851  0.5064 -0.0992 -0.3165
  138MOL   O24641620   6.994   3.747   7.694 -0.7027 -0.1493  0.2329
  138MOL   C24741621   7.083   3.846   7.656 -1.0006  0.2255  0.7173
  138MOL   C24841622   7.212   3.791   7.588 -0.1955  0.0631  0.0345
  138MOL   H24941623   6.704   3.498   7.736  0.1057 -0.3527  0.1937
  138MOL   H25041624   6.833   3.558   7.633  0.8083 -0.3846  1.6968
  138MOL   H25141625   6.725   3.684   7.870 -0.2333  1.0475 -1.6878
  138MOL   H25241626   7.029   3.912   7.588  1.2557  1.0561 -0.3233
  138MOL   H25341627   7.107   3.907   7.743  2.2079  0.5680 -0.3516
  138MOL   H25441628   7.263   3.719   7.653 -0.9728 -1.0506 -0.5822
  138MOL   H25541629   7.276   3.879   7.583  2.6978 -1.9079  0.8008
  138MOL   H25641630   7.201   3.746   7.489 -0.8698  0.0684  0.1088
  138MOL   C25741631   6.903   3.553   7.894  0.2364 -0.4848 -0.1053
  138MOL   C25841632   6.872   3.542   0.138 -0.3088  0.5403 -0.8828
  138MOL   C25941633   6.726   3.499   0.164  0.3642  0.1410  0.2180
  138MOL   O26041634   6.643   3.565   0.224 -0.0247 -0.2569 -0.0387
  138MOL   O26141635   6.689   3.386   0.100 -0.2972 -0.4861 -0.3414
  138MOL   C26241636   6.562   3.327   0.116 -0.5894  0.1544  0.4008
  138MOL   C26341637   6.563   3.240   0.243 -0.9144 -0.0571 -0.2441
  138MOL   H26441638   6.886   3.453   7.854 -0.5247 -0.5663  0.4065
  138MOL   H26541639   7.010   3.570   7.885  0.2751 -0.1573  0.9303
  138MOL   H26641640   6.945   3.477   0.186 -0.4539  1.3839  0.4986
  138MOL   H26741641   6.481   3.397   0.133 -3.7066 -3.2141  0.1809
  138MOL   H26841642   6.544   3.281   0.018 -1.2166 -1.6642  1.3349
  138MOL   H26941643   6.464   3.199   0.261 -0.7159 -0.7369 -0.6782
  138MOL   H27041644   6.605   3.295   0.327  4.5092 -1.9711 -1.5037
  138MOL   H27141645   6.642   3.167   0.229 -0.2153  0.3583  1.4709
  138MOL   C27241646   6.906   3.676   0.218  0.2718  0.3750 -0.2781
  138MOL   C27341647   6.972   3.659   0.356 -0.1724 -0.6981 -0.1158
  138MOL   C27441648   7.116   3.609   0.350  0.2712  0.0403 -0.0752
  138MOL   O27541649   7.155   3.531   0.259 -0.0965 -0.0730 -0.3178
  138MOL   O27641650   7.187   3.657   0.446 -1.0896  0.4249 -0.1951
  138MOL   C27741651   7.321   3.600   0.450 -0.7383 -0.4707 -0.4243
  138MOL   C27841652   7.359   3.618   0.593 -0.0538 -0.2124 -0.2916
  138MOL   H27941653   6.973   3.745   0.166  0.0687  0.8140  0.0335
  138MOL   H28041654   6.817   3.738   0.231  0.6060  0.7253  0.3849
  138MOL   H28141655   6.981   3.755   0.408 -0.3682 -1.2720  0.9824
  138MOL   H28241656   7.321   3.494   0.424 -1.3781 -0.9993  1.6314
  138MOL   H28341657   7.368   3.653   0.368  0.7379 -2.0516 -0.6255
  138MOL   H28441658   7.308   3.551   0.662 -0.0245  0.1528  0.0877
  138MOL   H28541659   7.338   3.721   0.623 -0.4771 -0.0392 -1.1701
  138MOL   H28641660   7.466   3.600   0.603 -0.0380 -1.2442 -2.1759
  138MOL   C28741661   6.879   3.573   0.452 -0.1471  0.8940 -0.6061
  138MOL   C28841662   6.939   3.526   0.587  0.4118 -0.4767 -0.4417
  138MOL   C28941663   6.953   3.636   0.696  0.2519 -0.4854 -0.1588
  138MOL   O29041664   6.861   3.716   0.709 -0.1081 -0.1709  0.3444
  138MOL   O29141665   7.066   3.632   0.764 -0.1380  0.5687  0.2629
  138MOL   C29241666   7.087   3.704   0.884 -0.3521  0.0230 -0.0104
  138MOL   C29341667   7.038   3.633   1.007 -0.0227 -0.2183  0.1436
  138MOL   H29441668   6.790   3.629   0.480 -0.8333 -0.8312  0.7295
  138MOL   H29541669   6.843   3.483   0.403  2.1850 -1.2600  1.5124
  138MOL   H29641670   6.876   3.446   0.627  0.2280  0.3497  0.9502
  138MOL   H29741671   7.191   3.734   0.899  0.1876 -1.3257 -0.9474
  138MOL   H29841672   7.044   3.804   0.877 -0.3845 -0.1513 -3.2625
  138MOL   H29941673   7.064   3.528   1.000 -2.3548 -0.7644 -0.9000
  138MOL   H30041674   6.929   3.630   1.006 -0.0134 -1.7775  1.5385
  138MOL   H30141675   7.058   3.688   1.099  0.3362  0.1733 -0.1645
  138MOL   H30241676   7.040   3.489   0.569  0.5781 -1.2385  1.9096
  139MOL     C141677   5.635   0.396   5.150  0.4156 -0.2840  0.4474
  139MOL     C241678   5.557   0.423   5.280  0.3087 -0.3270 -0.8236
  139MOL     C341679   5.445   0.520   5.269  0.8975  0.2147  0.4613
  139MOL     O441680   5.425   0.597   5.168 -0.2012 -0.0289 -0.6027
  139MOL     O541681   5.361   0.517   5.369  0.4808 -0.2241  0.3022
  139MOL     C641682   5.253   0.605   5.381 -0.2080 -1.0354  0.4102
  139MOL     C741683   5.210   0.598   5.529 -0.0887  0.0339  0.2768
  139MOL     H841684   5.681   0.298   5.152  1.0226 -0.0048  0.3619
  139MOL     H941685   5.709   0.475   5.135  0.2302 -0.0152  0.9098
  139MOL    H1041686   5.511   0.326   5.300  0.5440 -0.2154  0.2729
  139MOL    H1141687   5.274   0.705   5.343 -1.9218 -0.3807  1.1208
  139MOL    H1241688   5.173   0.587   5.309  2.2488  1.2892 -3.0661
  139MOL    H1341689   5.127   0.665   5.552  1.2226  1.9279 -0.3396
  139MOL    H1441690   5.287   0.626   5.601 -1.8566 -0.6982  2.5084
  139MOL    H1541691   5.186   0.498   5.565 -0.9164  0.2068  0.2129
  139MOL    H1641692   5.558   0.399   5.073 -2.2348  0.5559  3.0452
  139MOL    C1741693   5.657   0.465   5.394 -0.2920  0.0971 -0.7962
  139MOL    C1841694   5.729   0.348   5.462  0.1478 -0.7058  0.4399
  139MOL    C1941695   5.635   0.262   5.551 -0.5194 -0.1078  0.1004
  139MOL    O2041696   5.612   0.299   5.671 -0.0279 -0.2663 -0.1150
  139MOL    O2141697   5.579   0.162   5.489 -0.4528 -0.6573 -0.2718
  139MOL    C2241698   5.475   0.083   5.541 -0.4929  0.3051  0.7015
  139MOL    C2341699   5.524   7.865   5.608 -0.2257  0.4144 -0.9276
  139MOL    H2441700   5.726   0.538   5.353 -0.5373  1.1135  0.5799
  139MOL    H2541701   5.601   0.524   5.466 -1.5139 -0.5089 -1.2264
  139MOL    H2641702   5.763   0.284   5.380 -4.7850  2.5795 -4.5813
  139MOL    H2741703   5.404   0.146   5.596 -0.2660  1.1768  0.0136
  139MOL    H2841704   5.409   0.063   5.456  1.0600 -1.0989 -0.1992
  139MOL    H2941705   5.551   7.799   5.526 -0.9872  1.4002 -1.9822
  139MOL    H3041706   5.444   7.824   5.670  2.0366 -2.2086  0.3861
  139MOL    H3141707   5.612   7.891   5.667 -0.1325  0.8259 -1.2518
  139MOL    C3241708   5.857   0.404   5.547  0.2805  0.3876  0.0816
  139MOL    C3341709   5.954   0.291   5.596 -0.0063 -1.1746  0.7396
  139MOL    C3441710   5.911   0.236   5.732  0.3255  0.3581  0.5388
  139MOL    O3541711   5.918   0.116   5.751 -0.0085  0.0859  0.3044
  139MOL    O3641712   5.862   0.329   5.819 -0.4049  0.4485 -0.1140
  139MOL    C3741713   5.806   0.289   5.937  0.0204  0.0164  0.7194
  139MOL    C3841714   5.727   0.408   6.000  0.4690 -0.7890  0.3225
  139MOL    H3941715   5.906   0.469   5.475  1.5032 -1.3373 -0.6920
  139MOL    H4041716   5.820   0.473   5.623 -0.5092  3.1707 -2.7469
  139MOL    H4141717   5.947   0.203   5.532  0.4534 -0.5754 -0.1410
  139MOL    H4241718   5.743   0.201   5.921 -1.1339  1.4605 -3.3562
  139MOL    H4341719   5.890   0.255   5.997 -0.1200  0.6335  1.2633
  139MOL    H4441720   5.733   0.422   6.108 -0.0561  3.1016 -0.0842
  139MOL    H4541721   5.623   0.406   5.968  0.8519 -1.0750 -0.9310
  139MOL    H4641722   5.769   0.501   5.961 -2.3350 -0.0544 -1.0727
  139MOL    C4741723   6.097   0.348   5.589 -0.0216  0.3337  0.2628
  139MOL    C4841724   6.213   0.260   5.636  0.0415  0.5931 -0.1109
  139MOL    C4941725   6.328   0.350   5.675  0.1500  0.2907 -0.2183
  139MOL    O5041726   6.345   0.384   5.795  0.3260  0.1870  0.4668
  139MOL    O5141727   6.397   0.391   5.568 -0.1604 -0.2003  0.1102
  139MOL    C5241728   6.507   0.484   5.576  0.0960 -0.7780  0.3365
  139MOL    C5341729   6.475   0.611   5.497 -0.5189 -0.0086  0.4203
  139MOL    H5441730   6.118   0.380   5.487 -0.6773  1.6294  0.5216
  139MOL    H5541731   6.086   0.435   5.653 -1.3869  0.7041 -0.4559
  139MOL    H5641732   6.185   0.215   5.732 -0.1046  0.5962 -0.1521
  139MOL    H5741733   6.524   0.525   5.676 -1.3263 -3.0189  1.5191
  139MOL    H5841734   6.600   0.445   5.534  0.9202  0.7412  0.6998
  139MOL    H5941735   6.367   0.624   5.496 -0.7375 -1.5838  1.5092
  139MOL    H6041736   6.497   0.613   5.391 -0.6587 -0.9881  0.3680
  139MOL    H6141737   6.504   0.706   5.541 -1.0663 -0.2618  1.3445
  139MOL    C6241738   6.264   0.156   5.530 -0.1118 -0.1998  0.4279
  139MOL    C6341739   6.335   0.038   5.610  0.2440  0.6687 -0.4126
  139MOL    C6441740   6.431   7.868   5.529 -0.4594  0.1451  0.3722
  139MOL    O6541741   6.542   7.836   5.567  0.3903  0.2708  0.1671
  139MOL    O6641742   6.376   7.822   5.421 -0.3317 -0.3369  0.4509
  139MOL    C6741743   6.433   7.723   5.349  0.2611  0.3579  0.4735
  139MOL    C6841744   6.369   7.729   5.209 -0.7059 -0.3184 -0.6374
  139MOL    H6941745   6.173   0.130   5.475 -0.2189 -0.7329  0.8527
  139MOL    H7041746   6.322   0.199   5.449 -2.2989  3.9279  0.8979
  139MOL    H7141747   6.398   0.089   5.683 -2.6212  1.4667  1.5846
  139MOL    H7241748   6.538   7.747   5.337 -0.4414  2.1598 -2.7787
  139MOL    H7341749   6.409   7.627   5.395  1.6493 -0.6828 -0.9127
  139MOL    H7441750   6.394   7.819   5.152  2.4889  0.1494  1.4095
  139MOL    H7541751   6.262   7.708   5.211 -1.1990  1.7372 -2.7152
  139MOL    H7641752   6.408   7.641   5.160 -0.1415 -0.7928  0.6600
  139MOL    C7741753   6.235   7.850   5.684  0.3086  0.4206 -0.1790
  139MOL    C7841754   6.294   7.767   5.804 -0.1581 -0.1633  0.6850
  139MOL    C7941755   6.366   7.637   5.753 -0.1522  0.3385  0.3405
  139MOL    O8041756   6.342   7.581   5.645  0.1943  0.4047 -0.0804
  139MOL    O8141757   6.458   7.594   5.832  0.4510  0.8548 -0.0069
  139MOL    C8241758   6.560   7.508   5.787  0.0554 -0.5318 -0.0603
  139MOL    C8341759   6.678   7.578   5.701  0.1216 -0.4533  0.4469
  139MOL    H8441760   6.147   0.002   5.707 -0.4762 -0.1373 -1.6843
  139MOL    H8541761   6.192   7.782   5.610  1.6572 -1.1219  0.4130
  139MOL    H8641762   6.365   7.842   5.840  1.7120 -0.9195 -1.2768
  139MOL    H8741763   6.602   7.475   5.882 -1.7155  1.2560  1.3982
  139MOL    H8841764   6.505   7.422   5.749 -1.4550 -0.1347  1.1406
  139MOL    H8941765   6.733   7.662   5.743 -0.6724  0.7092 -0.7795
  139MOL    H9041766   6.650   7.620   5.604 -1.0476 -1.0568  0.5102
  139MOL    H9141767   6.750   7.499   5.680 -1.3366 -1.9426  0.8573
  139MOL    C9241768   6.198   7.738   5.921 -0.3755  0.4164  0.0606
  139MOL    C9341769   6.109   7.855   5.972  0.1156 -0.9862 -0.5142
  139MOL    C9441770   6.192   0.064   6.030  0.1368  0.5673 -1.4416
  139MOL    O9541771   6.313   0.049   6.054 -0.7121  0.1600  0.0324
  139MOL    O9641772   6.123   0.182   6.035 -0.0750  0.5083  0.0363
  139MOL    C9741773   6.196   0.297   6.076  0.0241  0.5870 -0.4163
  139MOL    C9841774   6.112   0.421   6.077  0.7094 -0.3463  0.3541
  139MOL    H9941775   6.140   7.652   5.886  0.7643 -0.3698  0.0688
  139MOL   H10041776   6.263   7.703   6.002 -0.8305 -1.5436 -0.3989
  139MOL   H10141777   6.036   7.892   5.900 -1.2605 -1.6405  0.5169
  139MOL   H10241778   6.233   0.283   6.177  0.1368  1.4238 -0.3418
  139MOL   H10341779   6.274   0.307   6.001 -0.1759  1.1474 -0.5562
  139MOL   H10441780   6.174   0.504   6.110  0.8901 -0.9897  1.6568
  139MOL   H10541781   6.024   0.411   6.142  1.6379 -1.3482  1.4801
  139MOL   H10641782   6.085   0.446   5.975  1.3996 -1.4070 -0.0930
  139MOL   C10741783   6.026   7.802   6.087  0.0933  0.7097  0.3746
  139MOL   C10841784   5.894   7.878   6.116  0.5195  0.4909 -0.8987
  139MOL   C10941785   5.907   0.065   6.234 -0.7051 -0.2137  0.5246
  139MOL   O11041786   5.880   0.181   6.224  0.0060  0.6043 -0.1677
  139MOL   O11141787   5.957   0.009   6.346  0.3684  0.2499  0.2324
  139MOL   C11241788   5.996   0.095   6.456 -0.0567  0.0592 -0.4904
  139MOL   C11341789   6.142   0.139   6.448  0.1687 -0.8477  0.5365
  139MOL   H11441790   5.997   7.699   6.063 -2.9140  1.9682 -1.7219
  139MOL   H11541791   6.075   7.788   6.183  1.3103  2.3694  0.0156
  139MOL   H11641792   5.871   0.029   6.027  1.7591  1.7401 -0.4021
  139MOL   H11741793   5.942   0.189   6.467  0.3412  0.2821 -0.4585
  139MOL   H11841794   5.991   0.046   6.553  0.0673 -1.0937 -1.0582
  139MOL   H11941795   6.204   0.049   6.445 -0.0901 -1.0161  0.2338
  139MOL   H12041796   6.171   0.176   6.547  1.7050 -1.1844  0.2295
  139MOL   H12141797   6.167   0.204   6.364  0.4451 -1.5193  0.0939
  139MOL   C12241798   5.772   7.780   6.155  0.4939 -0.4134  0.2990
  139MOL   C12341799   5.639   7.802   6.076  0.1528  0.3645 -0.0578
  139MOL   C12441800   5.575   0.031   6.089 -0.4992  0.3302  0.0279
  139MOL   O12541801   5.521   0.086   5.993 -0.8232  0.7065 -0.4762
  139MOL   O12641802   5.574   0.076   6.215 -0.3657  0.2981  0.0360
  139MOL   C12741803   5.504   0.195   6.243 -0.6279 -0.2680  0.8579
  139MOL   C12841804   5.518   0.217   6.396 -0.2345  0.1836 -0.0878
  139MOL   H12941805   5.808   7.679   6.136  1.2023  0.1864 -1.6927
  139MOL   H13041806   5.747   7.774   6.261  2.2919 -2.4621  0.6407
  139MOL   H13141807   5.666   7.805   5.970  2.4334 -2.4660  0.3787
  139MOL   H13241808   5.557   0.273   6.189 -0.6524 -0.3101  0.7736
  139MOL   H13341809   5.400   0.200   6.211 -0.9465  1.9280  2.1297
  139MOL   H13441810   5.483   0.127   6.447 -0.2220  1.2254  1.8038
  139MOL   H13541811   5.441   0.290   6.422 -1.4953 -1.2061  0.1780
  139MOL   H13641812   5.618   0.249   6.425 -1.1805  3.2031  0.0356
  139MOL   C13741813   5.542   7.692   6.099 -0.1343  0.6700 -0.0184
  139MOL   C13841814   5.439   7.677   5.980  0.8421 -0.1908 -0.5511
  139MOL   C13941815   5.302   7.741   6.011 -0.0199 -0.1761  0.1947
  139MOL   O14041816   5.272   7.798   6.111  0.1728  1.1293 -0.1942
  139MOL   O14141817   5.223   7.730   5.899  0.0542 -0.3779 -0.2280
  139MOL   C14241818   5.093   7.786   5.889 -0.4364 -0.6830  0.5649
  139MOL   C14341819   5.084   7.883   5.769 -0.2949 -0.1674 -0.1388
  139MOL   H14441820   5.596   7.598   6.106  1.4216  1.5989  0.6422
  139MOL   H14541821   5.488   7.695   6.194 -2.5784  0.6243 -1.3742
  139MOL   H14641822   5.472   7.736   5.895  2.7274 -0.4112 -0.0039
  139MOL   H14741823   5.021   7.706   5.876  1.7111 -2.4229 -1.0032
  139MOL   H14841824   5.060   7.844   5.975 -0.9174  2.6490 -1.8002
  139MOL   H14941825   4.983   0.000   5.738 -0.4659  1.3241  1.5916
  139MOL   H15041826   5.135   7.846   5.680  0.6906  0.2923  0.2281
  139MOL   H15141827   5.140   0.064   5.796 -1.1935  0.0214  1.1923
  139MOL   C15241828   5.427   7.534   5.925 -0.1303  0.3364 -0.6510
  139MOL   C15341829   5.554   7.473   5.873 -0.1042 -0.5268  0.2728
  139MOL   C15441830   5.608   7.557   5.751  0.2600 -0.2773 -0.7017
  139MOL   O15541831   5.546   7.567   5.647  0.0950 -0.4929 -0.3039
  139MOL   O15641832   5.732   7.597   5.767  0.5249  0.2790  0.7383
  139MOL   C15741833   5.800   7.632   5.647  0.0853 -0.1760 -0.0439
  139MOL   C15841834   5.948   7.650   5.663 -0.0459 -0.2489  0.0184
  139MOL   H15941835   5.393   7.461   5.999 -1.2513  2.0061  0.5272
  139MOL   H16041836   5.349   7.529   5.849  0.3964  2.8205 -1.3646
  139MOL   H16141837   5.623   7.476   5.957 -1.1093 -0.5855  1.1155
  139MOL   H16241838   5.791   7.556   5.570 -0.2090  1.7021 -1.9217
  139MOL   H16341839   5.756   7.723   5.606 -1.4959 -0.3696  1.1512
  139MOL   H16441840   5.971   7.714   5.749 -0.5663 -0.1125  0.0611
  139MOL   H16541841   5.995   7.668   5.567  1.2579 -0.7491  0.5486
  139MOL   H16641842   5.988   7.555   5.698 -0.4622 -1.6950 -3.2404
  139MOL   C16741843   5.542   7.328   5.844  0.5027 -0.4446  0.8320
  139MOL   C16841844   5.665   7.242   5.805  0.1422 -0.3976 -0.1667
  139MOL   C16941845   5.699   7.266   5.658  0.7321  0.0133 -0.1334
  139MOL   O17041846   5.810   7.313   5.627  0.4770 -0.0604  0.0747
  139MOL   O17141847   5.591   7.239   5.577 -0.3835 -0.3302 -0.5444
  139MOL   C17241848   5.587   7.282   5.444  0.4815  0.4498  0.0486
  139MOL   C17341849   5.448   7.314   5.389  0.3967  0.5458 -0.1084
  139MOL   H17441850   5.484   7.299   5.932 -0.6316  1.3829  0.7028
  139MOL   H17541851   5.465   7.305   5.769 -0.5299 -2.9538  2.5847
  139MOL   H17641852   5.752   7.282   5.858 -1.7390  1.1469  1.8690
  139MOL   H17741853   5.643   7.375   5.443 -0.8332  1.2647  0.9262
  139MOL   H17841854   5.645   7.213   5.382  0.4418 -0.8706  1.4249
  139MOL   H17941855   5.454   7.347   5.285 -2.0664 -2.0481 -1.1344
  139MOL   H18041856   5.407   7.397   5.447  1.1468  0.6322  0.3160
  139MOL   H18141857   5.386   7.225   5.391 -2.5201  2.5179  0.5467
  139MOL   C18241858   5.646   7.096   5.843 -0.0696 -0.2834  0.1188
  139MOL   C18341859   5.724   7.040   5.963  0.3389 -0.2645 -0.7907
  139MOL   C18441860   5.699   7.128   6.090 -0.0744  0.0534 -0.2380
  139MOL   O18541861   5.595   7.118   6.155 -0.5131  0.2825 -0.3576
  139MOL   O18641862   5.793   7.220   6.108 -0.5657  0.0121 -0.2489
  139MOL   C18741863   5.763   7.329   6.198  0.1007  0.1919  0.0719
  139MOL   C18841864   5.888   7.413   6.226  0.5903 -0.7341 -0.8764
  139MOL   H18941865   5.540   7.082   5.863 -0.8049  0.8194 -2.7391
  139MOL   H19041866   5.657   7.032   5.755 -2.0671  0.4869 -0.7050
  139MOL   H19141867   5.680   6.946   5.995  0.1328 -0.0530 -0.4559
  139MOL   H19241868   5.685   7.397   6.164 -0.0584  0.7145  1.4566
  139MOL   H19341869   5.730   7.285   6.292 -1.3004 -3.6118 -2.0728
  139MOL   H19441870   5.975   7.354   6.256  1.8462  1.7199  0.5041
  139MOL   H19541871   5.858   7.485   6.303 -0.5524 -0.2868 -1.7209
  139MOL   H19641872   5.917   7.476   6.141 -2.3514  1.4278 -0.3613
  139MOL   C19741873   5.874   7.004   5.932 -0.0842 -0.2728 -0.0306
  139MOL   C19841874   5.979   6.988   6.045 -0.2436 -0.6064  0.1988
  139MOL   C19941875   6.103   7.068   6.017 -0.5169 -0.5081  0.0856
  139MOL   O20041876   6.185   7.080   6.102 -0.3690  0.6547  0.0999
  139MOL   O20141877   6.125   7.111   5.893  0.4111  0.4053 -0.7148
  139MOL   C20241878   6.223   7.211   5.872  0.0971  0.4677  0.8334
  139MOL   C20341879   6.370   7.161   5.865  0.2441  0.6223 -0.1517
  139MOL   H20441880   5.879   6.910   5.877  1.6527  1.0985 -2.2543
  139MOL   H20541881   5.914   7.069   5.855 -0.7132  1.5672  1.1818
  139MOL   H20641882   5.940   7.040   6.133  1.5425  0.5441  0.3298
  139MOL   H20741883   6.197   7.258   5.777 -1.7876 -2.7009 -0.3150
  139MOL   H20841884   6.229   7.291   5.946 -1.0966  0.4545  0.9664
  139MOL   H20941885   6.400   7.093   5.784  2.1925  1.4608 -0.1680
  139MOL   H21041886   6.404   7.121   5.960 -1.1401 -2.3730 -0.8726
  139MOL   H21141887   6.428   7.252   5.847 -1.5092  1.5531 -1.2208
  139MOL   C21241888   6.013   6.842   6.083 -0.4169 -0.7459 -0.0750
  139MOL   C21341889   5.893   6.748   6.116  0.6108  0.0762 -0.6401
  139MOL   C21441890   5.803   6.792   6.227  0.0789 -0.1306 -0.2683
  139MOL   O21541891   5.685   6.770   6.216  0.2368 -0.9980  0.2535
  139MOL   O21641892   5.864   6.843   6.335  0.5613  0.1293 -0.8673
  139MOL   C21741893   5.791   6.914   6.426 -0.3359  0.0656 -0.2277
  139MOL   C21841894   5.857   7.047   6.442 -0.5153 -0.3019 -0.1582
  139MOL   H21941895   6.088   6.798   6.018  0.3126 -0.1669  0.3725
  139MOL   H22041896   6.069   6.843   6.177 -0.7454 -2.3059  0.1588
  139MOL   H22141897   5.836   6.751   6.023 -0.0756 -0.5191 -0.2386
  139MOL   H22241898   5.686   6.925   6.400 -0.8157 -0.5829  1.3761
  139MOL   H22341899   5.788   6.863   6.522 -2.8169 -0.6235 -0.6376
  139MOL   H22441900   5.854   7.094   6.343 -1.3111 -1.5715 -0.7475
  139MOL   H22541901   5.963   7.041   6.467 -0.5436  0.0077  0.0365
  139MOL   H22641902   5.808   7.103   6.522  2.0426  1.4625  0.2426
  139MOL   C22741903   5.948   6.602   6.131  0.1932  0.2296  0.0652
  139MOL   C22841904   5.971   6.535   5.996 -0.1956 -0.2568 -0.0615
  139MOL   C22941905   5.844   6.535   5.908  0.3972 -0.1179  0.0926
  139MOL   O23041906   5.851   6.572   5.792  0.2853 -0.0339 -0.0484
  139MOL   O23141907   5.724   6.493   5.961 -0.4582  0.5808  0.3247
  139MOL   C23241908   5.604   6.496   5.890  0.4289 -0.0983  0.3577
  139MOL   C23341909   5.497   6.466   5.994 -0.6450 -0.1986  0.3554
  139MOL   H23441910   6.038   6.611   6.192  0.1373  3.0655 -0.2149
  139MOL   H23541911   5.873   6.550   6.191 -1.2685  1.0032 -1.0715
  139MOL   H23641912   6.050   6.585   5.940 -0.7719  0.4661 -0.2295
  139MOL   H23741913   5.581   6.592   5.844 -0.9432 -0.1016  0.9999
  139MOL   H23841914   5.595   6.425   5.809 -0.7166  0.5927 -0.1337
  139MOL   H23941915   5.488   6.551   6.061 -0.2677  0.1873 -0.0872
  139MOL   H24041916   5.532   6.389   6.062 -0.6336 -0.7225 -0.2351
  139MOL   H24141917   5.399   6.434   5.958 -1.0469  0.1031  1.1729
  139MOL   C24241918   6.031   6.394   6.018  0.4770  0.1341 -0.3076
  139MOL   C24341919   6.082   6.316   5.889  0.1576  0.0456  0.9926
  139MOL   C24441920   6.084   6.158   5.906 -0.0492  0.3529  0.2355
  139MOL   O24541921   6.043   6.088   5.811 -0.5014 -0.5131  0.4135
  139MOL   O24641922   6.119   6.116   6.025 -0.7670 -0.3597 -0.2932
  139MOL   C24741923   6.137   5.976   6.052 -0.1420 -0.0818 -0.4174
  139MOL   C24841924   6.218   5.963   6.183  0.0759  0.1319  0.3520
  139MOL   H24941925   6.095   6.385   6.106  1.7261  0.1349 -1.1985
  139MOL   H25041926   5.954   6.325   6.052  0.1222  0.2625 -0.8327
  139MOL   H25141927   6.001   6.340   5.821 -0.1238  0.8068  1.5933
  139MOL   H25241928   6.037   5.932   6.058 -0.2954  0.3849  0.6096
  139MOL   H25341929   6.205   5.923   5.985  1.1170 -1.9419  2.2199
  139MOL   H25441930   6.305   6.028   6.187  0.1738 -0.0611  1.5615
  139MOL   H25541931   6.265   5.868   6.211  0.2595 -0.1531 -0.9050
  139MOL   H25641932   6.156   5.989   6.268  0.8251 -0.6268  1.1494
  139MOL   C25741933   6.213   6.365   5.836  1.0946 -0.3752  0.0238
  139MOL   C25841934   6.211   6.387   5.684 -0.2545  0.5372 -0.2704
  139MOL   C25941935   6.192   6.260   5.601 -0.0375  0.2385  0.1943
  139MOL   O26041936   6.128   6.253   5.496 -0.2453  0.0627  0.0529
  139MOL   O26141937   6.267   6.162   5.650  0.8406  0.1605 -0.0338
  139MOL   C26241938   6.297   6.039   5.583 -0.5833 -0.0682 -0.1973
  139MOL   C26341939   6.344   5.944   5.690  0.0337 -0.2651  0.5250
  139MOL   H26441940   6.243   6.458   5.884 -1.9971  1.5742 -1.6593
  139MOL   H26541941   6.295   6.298   5.863  0.9692 -0.3228  0.5416
  139MOL   H26641942   6.132   6.456   5.652 -0.6589 -0.2249 -0.9247
  139MOL   H26741943   6.209   5.999   5.532  0.3885  1.4380 -3.1757
  139MOL   H26841944   6.371   6.066   5.508  1.5574  3.3583  2.9435
  139MOL   H26941945   6.354   5.841   5.656  1.1427  0.6173 -1.9644
  139MOL   H27041946   6.273   5.944   5.773  1.7041  2.9715  2.0317
  139MOL   H27141947   6.439   5.979   5.730  0.2645 -0.5983  0.2727
  139MOL   C27241948   6.349   6.459   5.644 -0.2140 -0.4662  0.2600
  139MOL   C27341949   6.330   6.612   5.667 -0.4532  0.6186  0.0070
  139MOL   C27441950   6.250   6.678   5.560  0.5250  0.2825  0.5898
  139MOL   O27541951   6.266   6.639   5.446 -0.4244  0.3230  0.1148
  139MOL   O27641952   6.157   6.770   5.602  0.4983 -0.0334  0.1939
  139MOL   C27741953   6.077   6.836   5.505 -0.5326 -0.6326 -0.4947
  139MOL   C27841954   6.160   6.945   5.446 -0.1284  0.8248 -0.5491
  139MOL   H27941955   6.434   6.409   5.688 -1.1805 -1.1255  1.4083
  139MOL   H28041956   6.375   6.445   5.539  0.0003  1.8354 -0.0151
  139MOL   H28141957   6.267   6.623   5.756  0.1566 -3.0985  0.9900
  139MOL   H28241958   6.050   6.768   5.424 -1.6823  0.3158 -0.9154
  139MOL   H28341959   5.984   6.871   5.550 -1.4226 -3.0728 -0.3479
  139MOL   H28441960   6.113   7.007   5.370 -0.8948 -0.7998 -1.4234
  139MOL   H28541961   6.239   6.899   5.387  1.2615 -0.2778  2.0549
  139MOL   H28641962   6.217   7.006   5.517  0.9466 -0.1861 -0.5260
  139MOL   C28741963   6.468   6.683   5.698  0.2254 -0.1356  0.1211
  139MOL   C28841964   6.530   6.651   5.838 -0.2244  0.5438 -0.4761
  139MOL   C28941965   6.452   6.715   5.952 -0.6852  0.2955  0.0624
  139MOL   O29041966   6.327   6.727   5.941  0.0185 -1.0485  0.0532
  139MOL   O29141967   6.523   6.731   6.068 -0.3346 -0.3032  0.0814
  139MOL   C29241968   6.457   6.769   6.189  0.6541 -0.2592 -0.5768
  139MOL   C29341969   6.437   6.921   6.204  0.4468 -0.1692 -0.4798
  139MOL   H29441970   6.531   6.658   5.612  1.9117  1.8617  0.7172
  139MOL   H29541971   6.452   6.791   5.697  2.5482  0.2388 -1.5611
  139MOL   H29641972   6.522   6.545   5.863  0.1216  0.5743 -0.2312
  139MOL   H29741973   6.364   6.712   6.194 -0.3674  1.2414 -1.7649
  139MOL   H29841974   6.522   6.741   6.271  0.0114  1.0654  0.4025
  139MOL   H29941975   6.431   6.976   6.110 -1.0905  0.8715  0.1999
  139MOL   H30041976   6.509   6.982   6.259 -2.9927  0.9158  3.0455
  139MOL   H30141977   6.347   6.943   6.262  0.5681 -2.3881  0.5878
  139MOL   H30241978   6.637   6.671   5.836 -0.0907 -0.0044  1.0101
  140MOL     C141979   1.369   1.697   5.069  0.0391 -0.3227  0.7970
  140MOL     C241980   1.279   1.689   5.194 -0.4932 -0.0843  0.4967
  140MOL     C341981   1.254   1.832   5.244  0.1356 -0.1402 -0.0145
  140MOL     O441982   1.153   1.886   5.210  0.1627 -0.0893 -0.5123
  140MOL     O541983   1.363   1.883   5.297  0.1296 -0.1444 -1.2208
  140MOL     C641984   1.366   2.015   5.341  0.2951 -0.2153  0.1254
  140MOL     C741985   1.498   2.038   5.414 -0.7210  0.3808 -0.2572
  140MOL     H841986   1.473   1.705   5.099  0.7221 -0.2254 -1.4839
  140MOL     H941987   1.346   1.781   5.004  0.5906 -1.1655 -0.5090
  140MOL    H1041988   1.181   1.649   5.168 -0.8299  2.3591 -2.1411
  140MOL    H1141989   1.351   2.083   5.258  2.8929  0.6163  0.2909
  140MOL    H1241990   1.294   2.030   5.422  0.9985 -1.2637  0.9571
  140MOL    H1341991   1.591   2.030   5.357 -0.7858 -2.3037 -0.0920
  140MOL    H1441992   1.507   1.977   5.504  1.8115  0.0276 -0.6921
  140MOL    H1541993   1.490   2.139   5.452  0.6001  0.6999 -0.7768
  140MOL    H1641994   1.368   1.611   5.002 -0.3678 -0.5688  1.1186
  140MOL    C1741995   1.327   1.584   5.302  1.4610  0.2077  0.4865
  140MOL    C1841996   1.231   1.545   5.412 -0.7185 -0.0588  0.1659
  140MOL    C1941997   1.316   1.493   5.527  0.0096 -0.1456 -0.0052
  140MOL    O2041998   1.406   1.407   5.515  0.8640  0.2672  0.5352
  140MOL    O2141999   1.280   1.542   5.647 -0.9066  0.5864  0.7342
  140MOL    C2242000   1.334   1.495   5.764  0.2801 -0.5162  0.3939
  140MOL    C2342001   1.246   1.376   5.809 -1.2446  0.2878 -0.0152
  140MOL    H2442002   1.356   1.488   5.259 -0.6479  0.2860 -1.1817
  140MOL    H2542003   1.424   1.622   5.335  0.2249  2.0591  2.0489
  140MOL    H2642004   1.194   1.642   5.445  0.7083  0.0724  1.4065
  140MOL    H2742005   1.439   1.476   5.742 -0.0727 -2.0752 -0.0549
  140MOL    H2842006   1.339   1.575   5.837 -2.5455 -0.4355  0.5514
  140MOL    H2942007   1.212   1.311   5.729  2.2764 -0.0208 -1.3812
  140MOL    H3042008   1.160   1.419   5.859 -1.9256 -1.5720  0.4618
  140MOL    H3142009   1.302   1.330   5.891  1.7285  2.8712 -0.5001
  140MOL    C3242010   1.107   1.451   5.380 -0.6375  0.6536 -0.2254
  140MOL    C3342011   0.992   1.469   5.480 -0.0892  0.4323 -0.2782
  140MOL    C3442012   0.875   1.364   5.470  0.0866  0.1376  0.2954
  140MOL    O3542013   0.829   1.320   5.366  0.1672  0.4179  0.4183
  140MOL    O3642014   0.830   1.334   5.583  0.0617  0.3074  0.1555
  140MOL    C3742015   0.714   1.259   5.597 -0.1175 -0.2955  0.2794
  140MOL    C3842016   0.737   1.105   5.604 -0.0597  0.6046 -0.3933
  140MOL    H3942017   1.070   1.467   5.279 -2.7982 -2.0846  0.0532
  140MOL    H4042018   1.135   1.345   5.381  1.1885  1.1302  0.6529
  140MOL    H4142019   1.038   1.440   5.575 -1.3359  0.3773  0.3198
  140MOL    H4242020   0.669   1.287   5.692 -1.1190  0.3521 -0.3829
  140MOL    H4342021   0.633   1.283   5.528 -1.7489 -3.3528  1.0210
  140MOL    H4442022   0.747   1.074   5.708 -0.6799 -1.2618 -0.8840
  140MOL    H4542023   0.816   1.072   5.537 -2.9777 -0.5720 -3.3457
  140MOL    H4642024   0.653   1.051   5.561 -1.1584  2.5974 -0.8073
  140MOL    C4742025   0.934   1.619   5.496 -0.3997 -0.2104  0.4495
  140MOL    C4842026   0.984   1.681   5.628  0.6896  0.5550 -0.4085
  140MOL    C4942027   0.928   1.620   5.761  0.4190 -0.3630  0.1511
  140MOL    O5042028   0.995   1.602   5.863  0.1968 -0.1442 -0.0138
  140MOL    O5142029   0.802   1.594   5.750 -0.4087 -0.4006 -0.0538
  140MOL    C5242030   0.743   1.527   5.860  0.2283  0.7298  0.0052
  140MOL    C5342031   0.598   1.493   5.826  0.0830 -0.1511 -0.2775
  140MOL    H5442032   0.973   1.682   5.416 -0.9300  0.4727  0.7253
  140MOL    H5542033   0.826   1.627   5.485 -0.3766  1.4770  1.3809
  140MOL    H5642034   1.090   1.656   5.628  0.6322  0.2261  1.3421
  140MOL    H5742035   0.795   1.432   5.873 -1.7988 -0.3723  0.3049
  140MOL    H5842036   0.754   1.583   5.953  1.8684 -0.3636  0.4804
  140MOL    H5942037   0.567   1.408   5.886 -1.3831  0.6056  0.0599
  140MOL    H6042038   0.589   1.469   5.720  0.4024 -1.6082  0.0166
  140MOL    H6142039   0.548   1.589   5.839  0.3603  0.1859 -1.5608
  140MOL    C6242040   0.973   1.839   5.636 -0.0711 -0.2252  0.7068
  140MOL    C6342041   1.070   1.913   5.723  0.2015  0.2640 -0.5581
  140MOL    C6442042   1.057   2.069   5.703  0.2757  0.3799  0.8978
  140MOL    O6542043   1.015   2.140   5.795 -0.0308 -0.5365 -0.4610
  140MOL    O6642044   1.103   2.118   5.588  0.1381  0.7306  0.0196
  140MOL    C6742045   1.112   2.263   5.564 -0.5977  0.6521  0.1451
  140MOL    C6842046   1.041   2.278   5.433 -0.2923  0.6076 -0.0274
  140MOL    H6942047   1.004   1.872   5.537 -1.8472 -0.6157  0.0158
  140MOL    H7042048   0.870   1.872   5.646 -0.3750 -0.5041 -1.3191
  140MOL    H7142049   1.032   1.881   5.820  1.0381  2.2314  0.4511
  140MOL    H7242050   1.071   2.320   5.648 -2.1318 -0.8780  0.4815
  140MOL    H7342051   1.212   2.296   5.539 -1.0194  1.2042 -0.8114
  140MOL    H7442052   1.030   2.380   5.398 -0.6272  1.2607  1.9155
  140MOL    H7542053   0.943   2.230   5.439 -0.1268  0.1254 -1.1086
  140MOL    H7642054   1.092   2.220   5.356 -0.9697  0.9860 -0.7641
  140MOL    C7742055   1.214   1.868   5.721 -0.3191 -0.1045  0.2103
  140MOL    C7842056   1.308   1.938   5.824  0.4836 -0.0313 -0.4608
  140MOL    C7942057   1.462   1.936   5.785 -0.0802 -0.4893 -0.1965
  140MOL    O8042058   1.518   2.042   5.756  0.5305 -0.2377  0.8099
  140MOL    O8142059   1.520   1.808   5.785 -0.7770 -0.1490  0.2540
  140MOL    C8242060   1.652   1.800   5.759 -0.6170 -0.6577 -0.0522
  140MOL    C8342061   1.707   1.661   5.793 -0.2774 -0.2606 -1.0366
  140MOL    H8442062   1.231   1.762   5.736  0.7677  0.2043  1.2328
  140MOL    H8542063   1.254   1.885   5.621  2.2484  0.8716  1.3522
  140MOL    H8642064   1.280   2.043   5.829  1.3749  0.1953 -0.0968
  140MOL    H8742065   1.685   1.843   5.664  2.5243 -2.5523  0.1195
  140MOL    H8842066   1.710   1.861   5.828 -0.4164 -1.5860  0.5967
  140MOL    H8942067   1.667   1.615   5.883  1.0867 -0.1741 -0.3675
  140MOL    H9042068   1.813   1.679   5.809 -0.6956  1.0290  0.4094
  140MOL    H9142069   1.683   1.584   5.720  2.2973 -3.3895  1.2601
  140MOL    C9242070   1.295   1.891   5.970  0.4629 -0.5831  0.5687
  140MOL    C9342071   1.189   1.961   6.054 -0.0084 -0.6272 -0.2610
  140MOL    C9442072   1.212   2.120   6.066 -0.7194  0.2816  0.3742
  140MOL    O9542073   1.319   2.176   6.055  0.0871 -0.4414 -0.3464
  140MOL    O9642074   1.100   2.187   6.096  0.4833 -1.0304  0.3315
  140MOL    C9742075   1.091   2.318   6.064  0.5886 -0.2291 -0.8643
  140MOL    C9842076   0.950   2.383   6.082 -0.3916 -0.2634  0.2598
  140MOL    H9942077   1.253   1.791   5.955 -1.9361  0.3306  1.1043
  140MOL   H10042078   1.393   1.883   6.018  0.6947  2.7743  0.7544
  140MOL   H10142079   1.092   1.943   6.008 -0.4074 -0.5591  0.5526
  140MOL   H10242080   1.168   2.368   6.122 -0.1473  1.3181 -1.1703
  140MOL   H10342081   1.116   2.317   5.958  4.1013  1.4216 -0.1260
  140MOL   H10442082   0.951   2.478   6.029  0.4815  0.1956  1.0807
  140MOL   H10542083   0.944   2.408   6.188 -1.1973 -1.7229  0.5805
  140MOL   H10642084   0.862   2.321   6.063 -0.1398 -0.2756 -0.9259
  140MOL   C10742085   1.180   1.897   6.197  0.0521  0.1034  0.4036
  140MOL   C10842086   1.088   1.769   6.200  0.1022  0.2055 -0.1779
  140MOL   C10942087   0.934   1.788   6.180 -0.0837  0.3926  0.8280
  140MOL   O11042088   0.880   1.893   6.143  0.1286 -0.1438  0.3641
  140MOL   O11142089   0.871   1.666   6.204  0.0106 -0.1133 -0.3701
  140MOL   C11242090   0.727   1.665   6.193  0.4977 -0.5210 -0.0961
  140MOL   C11342091   0.654   1.706   6.322  0.6766 -0.1598 -0.7566
  140MOL   H11442092   1.283   1.881   6.229  0.7864  0.8792 -1.4843
  140MOL   H11542093   1.131   1.971   6.259  1.1244  0.5946  0.6765
  140MOL   H11642094   1.109   1.704   6.115 -0.5750  2.3540 -2.0356
  140MOL   H11742095   0.693   1.727   6.110  1.5190  1.5308  0.9900
  140MOL   H11842096   0.686   1.567   6.168 -1.1009  0.0202  0.3110
  140MOL   H11942097   0.659   1.633   6.402  0.5657  1.9110  1.2011
  140MOL   H12042098   0.546   1.719   6.309  0.0151 -3.0396  1.4618
  140MOL   H12142099   0.689   1.802   6.362 -0.7772  0.1876 -0.2481
  140MOL   C12242100   1.119   1.683   6.324  0.0313  0.2194 -0.3842
  140MOL   C12342101   1.108   1.745   6.467 -0.3764  0.2255 -0.3345
  140MOL   C12442102   1.217   1.701   6.570 -0.1453 -0.4287 -0.0725
  140MOL   O12542103   1.191   1.692   6.690 -0.0088 -0.2235  0.8909
  140MOL   O12642104   1.333   1.675   6.513  0.2886  0.0115 -0.3830
  140MOL   C12742105   1.447   1.654   6.595 -0.0594 -0.1344 -0.5311
  140MOL   C12842106   1.566   1.686   6.506 -0.9312 -0.0419 -0.2630
  140MOL   H12942107   1.059   1.592   6.329  0.2911  0.1362  1.5978
  140MOL   H13042108   1.221   1.649   6.305  0.0599  0.4110 -0.5826
  140MOL   H13142109   1.126   1.853   6.472 -2.0957  0.4459  1.4204
  140MOL   H13242110   1.457   1.715   6.684 -0.5511  0.3293 -0.7918
  140MOL   H13342111   1.443   1.549   6.624  2.5120 -0.0974  0.0756
  140MOL   H13442112   1.562   1.791   6.475 -0.1539 -0.5733 -2.2566
  140MOL   H13542113   1.558   1.623   6.417  0.0876  1.4297 -1.4337
  140MOL   H13642114   1.662   1.668   6.553  0.0639  1.3195 -1.6987
  140MOL   C13742115   0.972   1.736   6.535 -0.1757 -0.3289 -0.1568
  140MOL   C13842116   0.930   1.848   6.639 -0.7323  1.2519  0.0079
  140MOL   C13942117   0.846   1.785   6.746  0.3932  0.2652 -0.4643
  140MOL   O14042118   0.796   1.671   6.741 -0.2129  0.1970  0.1682
  140MOL   O14142119   0.847   1.864   6.860  0.2688  0.1015 -0.4574
  140MOL   C14242120   0.775   1.814   6.968  0.3410 -0.1276  0.4308
  140MOL   C14342121   0.800   1.888   7.105 -0.4716 -0.1553 -0.4661
  140MOL   H14442122   0.899   1.741   6.454  0.3859 -0.0718 -0.6511
  140MOL   H14542123   0.962   1.634   6.574 -1.3612 -0.8941 -1.9214
  140MOL   H14642124   1.011   1.888   6.700 -1.4224  2.8029 -0.0827
  140MOL   H14742125   0.668   1.813   6.943  0.5250 -1.2270 -0.3282
  140MOL   H14842126   0.800   1.710   6.987  1.5596 -0.3582 -2.3370
  140MOL   H14942127   0.803   1.995   7.081 -3.8602 -0.0901 -0.8402
  140MOL   H15042128   0.890   1.850   7.153 -0.3911  1.8952  1.0580
  140MOL   H15142129   0.721   1.870   7.178 -1.2917  0.8132 -1.0976
  140MOL   C15242130   0.842   1.962   6.584  0.5748  0.5850 -0.1360
  140MOL   C15342131   0.916   2.041   6.475 -0.5712 -0.2871 -0.3898
  140MOL   C15442132   1.036   2.121   6.526  0.5023 -0.0870 -0.4263
  140MOL   O15542133   1.045   2.148   6.645 -0.2806  0.1051 -0.3094
  140MOL   O15642134   1.127   2.167   6.431 -0.5402 -0.3739  0.5304
  140MOL   C15742135   1.231   2.248   6.468 -0.5187 -0.0987 -0.5377
  140MOL   C15842136   1.357   2.167   6.455 -0.1969  0.0876  1.1534
  140MOL   H15942137   0.751   1.923   6.537  2.3813  0.3306 -3.5899
  140MOL   H16042138   0.805   2.025   6.664 -3.0286 -3.0564  1.2673
  140MOL   H16142139   0.947   1.976   6.393 -4.0849 -1.4919 -0.8628
  140MOL   H16242140   1.238   2.333   6.401  2.7222  0.6479  0.6711
  140MOL   H16342141   1.229   2.264   6.576 -1.0951  1.6262 -0.7899
  140MOL   H16442142   1.436   2.223   6.506 -0.3133 -0.5337  2.0285
  140MOL   H16542143   1.402   2.161   6.356  1.0301 -1.2103  1.7728
  140MOL   H16642144   1.356   2.069   6.502  0.2740  0.0471  1.0875
  140MOL   C16742145   0.819   2.127   6.387  0.4905 -0.2575  0.0718
  140MOL   C16842146   0.733   2.231   6.463 -0.7249  0.1334  0.1814
  140MOL   C16942147   0.589   2.185   6.493  0.8784 -0.1568  0.7989
  140MOL   O17042148   0.567   2.132   6.600  0.1575  0.0824 -0.0255
  140MOL   O17142149   0.512   2.179   6.380 -0.7017  0.3491 -0.0239
  140MOL   C17242150   0.387   2.116   6.386 -0.1164 -0.4571 -0.2013
  140MOL   C17342151   0.319   2.091   6.252 -0.5312 -0.5660  1.2852
  140MOL   H17442152   0.884   2.175   6.314 -0.1539 -1.2137 -1.1580
  140MOL   H17542153   0.754   2.059   6.331  0.0087 -0.2423  0.6115
  140MOL   H17642154   0.780   2.247   6.560  0.0232 -2.0607  0.2190
  140MOL   H17742155   0.413   2.034   6.452 -2.3465 -1.2145 -0.2404
  140MOL   H17842156   0.322   2.176   6.450  0.7734 -0.7705  1.0111
  140MOL   H17942157   0.331   2.171   6.179 -0.0829 -1.4373  0.3930
  140MOL   H18042158   0.214   2.065   6.265 -2.1712  4.8994  0.2702
  140MOL   H18142159   0.369   2.002   6.212  0.6231  0.6408 -0.0223
  140MOL   C18242160   0.730   2.371   6.398 -0.0416  0.4436 -0.2573
  140MOL   C18342161   0.650   2.481   6.476 -0.1476 -0.1141 -0.3021
  140MOL   C18442162   0.568   2.569   6.374 -0.0575  0.0996  0.0511
  140MOL   O18542163   0.444   2.575   6.385 -0.0550  0.3337  0.2491
  140MOL   O18642164   0.648   2.633   6.285  0.4342 -0.5191 -0.1101
  140MOL   C18742165   0.594   2.724   6.189 -0.2911 -0.2149  0.1179
  140MOL   C18842166   0.684   2.720   6.072  0.1078  0.3920 -0.9005
  140MOL   H18942167   0.828   2.410   6.371 -0.2196  2.0382  1.2883
  140MOL   H19042168   0.671   2.351   6.309 -0.0182 -0.7825 -0.0057
  140MOL   H19142169   0.582   2.433   6.546  0.2171  1.7362  1.3971
  140MOL   H19242170   0.492   2.700   6.157 -0.6537  3.6207 -1.9967
  140MOL   H19342171   0.587   2.827   6.226  3.1411  0.7007 -1.5818
  140MOL   H19442172   0.710   2.623   6.029 -3.0127 -0.1538 -1.7208
  140MOL   H19542173   0.772   2.775   6.103  0.2834 -0.8348  0.8215
  140MOL   H19642174   0.653   2.781   5.986 -0.8462 -0.3461 -1.0977
  140MOL   C19742175   0.745   2.577   6.555 -0.0833  0.1204  0.4498
  140MOL   C19842176   0.687   2.622   6.698  1.0917 -0.4211 -0.1711
  140MOL   C19942177   0.653   2.496   6.775 -0.4902 -0.5467 -0.6793
  140MOL   O20042178   0.539   2.465   6.797 -0.1028 -0.2650  0.0492
  140MOL   O20142179   0.753   2.426   6.800 -0.7212 -0.0112 -0.2589
  140MOL   C20242180   0.734   2.314   6.894  0.3462  0.1312 -0.6256
  140MOL   C20342181   0.880   2.286   6.938  0.2745  0.9272 -0.1348
  140MOL   H20442182   0.839   2.526   6.579 -0.2219 -0.9092 -1.1575
  140MOL   H20542183   0.772   2.659   6.488 -0.1434 -0.7042 -0.5789
  140MOL   H20642184   0.769   2.669   6.753 -0.5075  1.7482  0.4568
  140MOL   H20742185   0.669   2.352   6.972 -0.0699 -1.6855 -0.0628
  140MOL   H20842186   0.679   2.236   6.841  0.5607 -0.4407 -0.0089
  140MOL   H20942187   0.873   2.204   7.009 -1.7107  1.4042  0.2673
  140MOL   H21042188   0.929   2.376   6.977 -2.3684  1.9723  0.9101
  140MOL   H21142189   0.941   2.238   6.862 -0.8340  0.5707 -0.8121
  140MOL   C21242190   0.567   2.726   6.696  0.4143 -0.0212 -0.1870
  140MOL   C21342191   0.548   2.822   6.818  0.3335 -0.2186 -0.3030
  140MOL   C21442192   0.445   2.761   6.917 -0.9208 -0.0812 -0.5701
  140MOL   O21542193   0.326   2.762   6.898 -0.1003  0.6721 -0.4454
  140MOL   O21642194   0.502   2.724   7.022 -0.4684  0.3931 -0.0672
  140MOL   C21742195   0.437   2.665   7.129  0.2256  0.2652 -0.0147
  140MOL   C21842196   0.392   2.764   7.233  0.2187 -0.7515 -0.2148
  140MOL   H21942197   0.569   2.793   6.610  0.5887  0.8434  0.4844
  140MOL   H22042198   0.470   2.680   6.675  0.7827  0.5532 -3.3218
  140MOL   H22142199   0.649   2.819   6.858  1.2353  0.1162 -2.4474
  140MOL   H22242200   0.349   2.606   7.100  0.7396 -1.8220  2.5003
  140MOL   H22342201   0.499   2.598   7.188 -0.4030  0.0746  0.4328
  140MOL   H22442202   0.323   2.837   7.192  1.8447 -0.8302 -3.1654
  140MOL   H22542203   0.472   2.827   7.271 -1.9329  2.3061 -0.6154
  140MOL   H22642204   0.346   2.715   7.319  1.1701  1.3352  1.5408
  140MOL   C22742205   0.515   2.965   6.774  0.3058  0.3514 -0.7330
  140MOL   C22842206   0.499   3.076   6.881  0.0146  0.0437  0.0671
  140MOL   C22942207   0.356   3.094   6.934 -0.0934  0.4104 -0.7861
  140MOL   O23042208   0.324   3.067   7.052 -0.2259  0.0427 -0.2408
  140MOL   O23142209   0.273   3.121   6.833  0.7251 -0.3652  0.6564
  140MOL   C23242210   0.134   3.111   6.852 -0.1695 -0.1273 -0.0384
  140MOL   C23342211   0.068   3.043   6.734 -0.4169  0.0386  0.0998
  140MOL   H23442212   0.602   2.984   6.710  1.4423  0.2869  0.7643
  140MOL   H23542213   0.421   2.972   6.721  0.5351  0.1754 -1.1640
  140MOL   H23642214   0.573   3.049   6.957 -0.4919 -0.1369  0.4926
  140MOL   H23742215   0.109   3.054   6.941  0.6587 -0.1540  0.1785
  140MOL   H23842216   0.091   3.211   6.859 -0.3797 -0.1700 -0.6705
  140MOL   H23942217   7.873   3.026   6.762 -0.6268  1.9016  0.5592
  140MOL   H24042218   0.119   2.947   6.725  0.7926  0.5638  1.2072
  140MOL   H24142219   0.086   3.086   6.635  2.7909 -1.1080  0.1200
  140MOL   C24242220   0.552   3.217   6.816  0.4793  0.8951 -0.5330
  140MOL   C24342221   0.707   3.234   6.836 -0.2364  0.0818 -0.0352
  140MOL   C24442222   0.735   3.277   6.977  0.7653  0.1643 -0.4221
  140MOL   O24542223   0.788   3.201   7.062  0.8100  0.5259 -0.3495
  140MOL   O24642224   0.697   3.407   7.000 -0.4703 -0.0692  0.5154
  140MOL   C24742225   0.680   3.461   7.132  0.0952  0.0044 -0.6588
  140MOL   C24842226   0.668   3.616   7.121 -0.6366 -0.0808  0.1671
  140MOL   H24942227   0.533   3.219   6.708 -2.1390 -0.0669 -0.1187
  140MOL   H25042228   0.500   3.297   6.869  0.4881 -0.6310  1.7988
  140MOL   H25142229   0.762   3.140   6.839  1.9703  1.3197 -0.6190
  140MOL   H25242230   0.594   3.416   7.182 -0.4939 -1.7659 -3.1585
  140MOL   H25342231   0.768   3.439   7.193  0.1873 -0.9830 -1.1258
  140MOL   H25442232   0.579   3.632   7.060 -1.6752  0.6698  1.8283
  140MOL   H25542233   0.749   3.663   7.065 -1.3613 -2.0458 -2.6844
  140MOL   H25642234   0.650   3.664   7.217  0.1859  1.7418 -0.5581
  140MOL   C25742235   0.763   3.327   6.727  0.0385  0.5137 -0.9413
  140MOL   C25842236   0.780   3.259   6.591  0.1633  0.5731  0.7582
  140MOL   C25942237   0.838   3.111   6.593 -0.0452 -0.1451 -1.4404
  140MOL   O26042238   0.783   3.020   6.535  0.2526 -0.2696  0.3723
  140MOL   O26142239   0.943   3.088   6.677 -0.1588  0.1958 -0.3703
  140MOL   C26242240   0.996   2.965   6.713  0.2941 -0.4040 -0.3156
  140MOL   C26342241   0.964   2.915   6.860 -0.5498 -0.0835 -0.2819
  140MOL   H26442242   0.704   3.417   6.709  2.0558  2.1771  0.4386
  140MOL   H26542243   0.864   3.352   6.759  0.6471 -2.2278 -0.6367
  140MOL   H26642244   0.677   3.259   6.554  0.3902  1.4760  0.1143
  140MOL   H26742245   0.939   2.894   6.653 -0.2155 -0.0220 -0.2835
  140MOL   H26842246   1.104   2.971   6.698  0.2901 -0.3492 -0.3235
  140MOL   H26942247   0.855   2.909   6.868 -0.4600 -0.8228  0.3970
  140MOL   H27042248   1.009   2.978   6.936 -0.1426  0.4102 -0.9273
  140MOL   H27142249   0.992   2.811   6.875  0.1373  0.2521  0.7794
  140MOL   C27242250   0.874   3.338   6.495 -0.7763  0.7574  0.1355
  140MOL   C27342251   0.818   3.361   6.353  0.2683  0.4764 -0.4686
  140MOL   C27442252   0.696   3.453   6.346 -0.1800 -0.3109 -0.1220
  140MOL   O27542253   0.583   3.422   6.390 -0.0493 -0.0387 -0.0310
  140MOL   O27642254   0.722   3.567   6.287  0.7189  0.1688  0.2898
  140MOL   C27742255   0.617   3.667   6.281 -0.0160  0.2117  0.4756
  140MOL   C27842256   0.558   3.690   6.144  0.2242  0.6753  0.6085
  140MOL   H27942257   0.899   3.429   6.550 -1.6655  1.2562 -0.2626
  140MOL   H28042258   0.970   3.295   6.469  0.7814  3.0175  1.9463
  140MOL   H28142259   0.902   3.407   6.302  1.6484 -2.3734 -0.8559
  140MOL   H28242260   0.526   3.646   6.336 -0.7079 -1.2023 -1.1726
  140MOL   H28342261   0.654   3.758   6.329 -2.0607  0.5059  1.5481
  140MOL   H28442262   0.520   3.593   6.112  1.7317  0.6429 -1.2059
  140MOL   H28542263   0.632   3.712   6.066 -0.6618  0.9889 -0.1564
  140MOL   H28642264   0.471   3.755   6.133 -1.4838 -1.2712  2.4494
  140MOL   C28742265   0.794   3.228   6.273  0.0393 -0.6548 -0.0580
  140MOL   C28842266   0.763   3.247   6.121 -0.0537 -0.6006  0.0839
  140MOL   C28942267   0.789   3.123   6.041  0.5924 -0.3000 -0.3555
  140MOL   O29042268   0.750   3.013   6.086  0.1473 -0.1582 -0.4393
  140MOL   O29142269   0.858   3.143   5.923  0.2923  0.3710  0.2018
  140MOL   C29242270   0.864   3.044   5.822  0.2491  0.3642  0.1393
  140MOL   C29342271   0.735   3.041   5.740 -0.1993 -0.2344 -0.4525
  140MOL   H29442272   0.872   3.155   6.293 -0.6288 -1.5100 -0.5094
  140MOL   H29542273   0.714   3.175   6.325  0.4500  0.3604  1.6247
  140MOL   H29642274   0.656   3.268   6.120  0.2541  1.1407  0.8390
  140MOL   H29742275   0.954   3.055   5.760  1.4249 -0.5460  1.6536
  140MOL   H29842276   0.874   2.945   5.866 -1.0256  0.6210  1.0377
  140MOL   H29942277   0.645   3.019   5.798  1.3018 -2.2400  1.1649
  140MOL   H30042278   0.726   2.961   5.666  0.9827 -0.3303 -0.4913
  140MOL   H30142279   0.725   3.138   5.691 -0.2604 -0.2204 -0.4130
  140MOL   H30242280   0.824   3.329   6.082 -1.1928  1.3301  2.1677
  141MOL     C142281   4.573   3.455   7.459  0.0374 -0.3438  0.4331
  141MOL     C242282   4.540   3.309   7.434 -0.4927  0.1412  0.0942
  141MOL     C342283   4.403   3.266   7.474  0.2759 -0.6279  0.4295
  141MOL     O442284   4.323   3.239   7.393  0.3163  0.6482  0.7689
  141MOL     O542285   4.389   3.243   7.609  0.0497  0.1688  0.6671
  141MOL     C642286   4.265   3.200   7.667 -0.2513  0.3638  0.8292
  141MOL     C742287   4.205   3.295   7.761 -0.9343 -0.8034  0.1852
  141MOL     H842288   4.659   3.462   7.525 -0.4848 -0.1209  1.0939
  141MOL     H942289   4.485   3.489   7.513 -0.0834 -0.3524  0.2418
  141MOL    H1042290   4.546   3.290   7.327 -0.4579  0.7564 -0.0138
  141MOL    H1142291   4.196   3.186   7.583  0.7245  1.6572 -0.2006
  141MOL    H1242292   4.276   3.103   7.716  0.5744  1.1562  2.2490
  141MOL    H1342293   4.284   3.304   7.836 -2.7221  0.8552  1.9189
  141MOL    H1442294   4.111   3.262   7.805 -2.3127  2.6369 -0.0086
  141MOL    H1542295   4.184   3.388   7.709 -1.5870 -1.9772 -1.7128
  141MOL    H1642296   4.595   3.513   7.370 -0.3923 -0.2185  0.4066
  141MOL    C1742297   4.641   3.224   7.513 -0.1024  0.2560 -0.6443
  141MOL    C1842298   4.791   3.241   7.475 -0.9115 -0.3894  0.0789
  141MOL    C1942299   4.835   3.124   7.389  0.1294 -0.2312  0.8089
  141MOL    O2042300   4.818   3.009   7.425 -0.2132 -0.5959 -0.4776
  141MOL    O2142301   4.900   3.163   7.283 -0.3920 -0.3319 -0.2052
  141MOL    C2242302   4.961   3.063   7.193 -0.1966 -0.4982 -0.9519
  141MOL    C2342303   5.108   3.091   7.166 -0.5721  0.7531 -0.0129
  141MOL    H2442304   4.641   3.243   7.620  2.6377 -0.0537 -0.5571
  141MOL    H2542305   4.613   3.118   7.515  0.7108  0.0294 -0.7648
  141MOL    H2642306   4.802   3.330   7.413 -2.0456  0.7626  1.5100
  141MOL    H2742307   4.944   2.964   7.234 -3.0244  0.5754  0.6419
  141MOL    H2842308   4.909   3.066   7.098  1.0718  1.6271 -1.6117
  141MOL    H2942309   5.157   3.102   7.263 -1.7130  0.0091  0.6568
  141MOL    H3042310   5.128   3.172   7.096  1.7850 -0.7942 -1.2194
  141MOL    H3142311   5.157   3.004   7.121 -0.6429  2.0111 -2.6263
  141MOL    C3242312   4.887   3.232   7.608 -0.3579  0.2675  0.5146
  141MOL    C3342313   4.919   3.362   7.676 -0.2033  0.0867 -0.0950
  141MOL    C3442314   5.003   3.452   7.582  0.0264  0.5324  0.1749
  141MOL    O3542315   5.049   3.410   7.472  0.0848 -0.1460  0.1476
  141MOL    O3642316   5.029   3.572   7.636 -0.1079 -0.3439  0.5461
  141MOL    C3742317   5.077   3.674   7.551 -0.9640 -0.4398  0.6984
  141MOL    C3842318   5.213   3.717   7.598 -0.2109  0.7366  0.2758
  141MOL    H3942319   4.835   3.173   7.683  1.5056 -1.2321  0.6742
  141MOL    H4042320   4.982   3.181   7.590 -1.6366 -1.1191 -2.8120
  141MOL    H4142321   4.831   3.424   7.689 -0.2293 -0.2315  1.3563
  141MOL    H4242322   5.068   3.643   7.447  2.3196  3.0457 -0.7543
  141MOL    H4342323   5.014   3.762   7.570  0.3034  0.6268  0.0725
  141MOL    H4442324   5.253   3.780   7.518 -1.0923 -0.4634 -1.1390
  141MOL    H4542325   5.273   3.626   7.604 -0.4641  0.6566  1.6639
  141MOL    H4642326   5.220   3.756   7.700  0.8214  2.1880 -0.3270
  141MOL    C4742327   4.992   3.339   7.814  0.5384  0.4999 -0.1260
  141MOL    C4842328   5.142   3.313   7.818  0.2779 -0.0563 -0.5269
  141MOL    C4942329   5.193   3.181   7.757 -0.0118  0.1361 -0.1577
  141MOL    O5042330   5.299   3.177   7.701 -0.6164 -0.4355  0.8150
  141MOL    O5142331   5.121   3.078   7.786 -0.0437  0.4384  0.5291
  141MOL    C5242332   5.161   2.955   7.732  0.0457 -0.0219  0.6521
  141MOL    C5342333   5.093   2.920   7.597  0.3223 -0.3718 -0.4013
  141MOL    H5442334   4.963   3.428   7.870 -1.9258  0.5876 -1.4577
  141MOL    H5542335   4.943   3.259   7.869  1.2730 -0.4785 -0.8743
  141MOL    H5642336   5.200   3.392   7.769  0.6606  0.0710  0.1284
  141MOL    H5742337   5.268   2.960   7.712 -0.3947 -0.7557 -2.2194
  141MOL    H5842338   5.141   2.873   7.801  0.1310 -1.3289 -0.8349
  141MOL    H5942339   4.986   2.937   7.603  0.0955 -0.9200 -2.4109
  141MOL    H6042340   5.096   2.812   7.578 -0.9459 -0.4245 -0.3381
  141MOL    H6142341   5.126   2.989   7.520 -0.7099 -0.0370 -0.5512
  141MOL    C6242342   5.196   3.330   0.056 -0.9276  0.3873 -0.5164
  141MOL    C6342343   5.346   3.326   0.082  0.3099 -0.0981 -0.7975
  141MOL    C6442344   5.403   3.193   0.133  0.2754 -0.5123  0.0909
  141MOL    O6542345   5.327   3.116   0.186 -0.2812  0.3511  0.1204
  141MOL    O6642346   5.528   3.179   0.110  0.0567 -0.4542 -0.4118
  141MOL    C6742347   5.588   3.048   0.117  0.0639 -1.1985 -0.2994
  141MOL    C6842348   5.743   3.053   0.120  0.3828  0.0391 -0.8830
  141MOL    H6942349   5.149   3.417   0.101  0.2830  0.6537  0.2787
  141MOL    H7042350   5.151   3.252   0.118 -1.2551  1.4195  0.5527
  141MOL    H7142351   5.393   3.328   7.892 -1.8512  0.8140 -1.8281
  141MOL    H7242352   5.552   3.005   0.211 -0.6130  0.9775  0.4745
  141MOL    H7342353   5.567   2.984   0.031 -0.4638 -1.1282 -0.2288
  141MOL    H7442354   5.788   3.127   0.186 -1.1532  0.8482 -0.7285
  141MOL    H7542355   5.767   3.085   0.019  0.2857  0.1758 -0.8629
  141MOL    H7642356   5.795   2.958   0.130  1.6635  0.5971 -2.0751
  141MOL    C7742357   5.408   3.453   0.160 -0.0320  0.0469 -0.3562
  141MOL    C7842358   5.385   3.463   0.314  0.3958  0.0189  0.3329
  141MOL    C7942359   5.236   3.488   0.340 -0.2646  0.1948 -0.2712
  141MOL    O8042360   5.189   3.602   0.335 -0.2550  0.4065 -0.0384
  141MOL    O8142361   5.170   3.380   0.371 -0.0177  0.2809 -0.2022
  141MOL    C8242362   5.034   3.386   0.403  0.4166  0.2781  0.0092
  141MOL    C8342363   5.018   3.428   0.549  0.1540 -0.9419 -0.0062
  141MOL    H8442364   5.517   3.450   0.155  0.0843  0.0576  1.5332
  141MOL    H8542365   5.382   3.549   0.116 -0.0523  0.1037 -0.2198
  141MOL    H8642366   5.420   3.372   0.362  1.3072 -0.0173 -0.3910
  141MOL    H8742367   4.978   3.449   0.334  1.1232  0.2028 -0.6307
  141MOL    H8842368   4.997   3.284   0.388  0.4431  0.2189  0.3471
  141MOL    H8942369   4.915   3.462   0.554  0.5460  0.3793 -0.5381
  141MOL    H9042370   5.082   3.510   0.582 -2.5227  0.1995  2.4745
  141MOL    H9142371   5.034   3.347   0.621  3.7037  1.2806  1.8461
  141MOL    C9242372   5.467   3.578   0.374  0.0349  0.0138  0.0472
  141MOL    C9342373   5.497   3.583   0.531 -0.5398  0.1869 -0.0118
  141MOL    C9442374   5.518   3.443   0.598 -0.0670 -0.1362  0.1303
  141MOL    O9542375   5.629   3.414   0.643  0.4673  0.1941 -0.3393
  141MOL    O9642376   5.396   3.368   0.599  0.2815  0.3149  0.4901
  141MOL    C9742377   5.395   3.234   0.645  0.3413  0.6157  0.0209
  141MOL    C9842378   5.416   3.129   0.533 -0.2319 -0.6696 -0.1295
  141MOL    H9942379   5.569   3.577   0.335  0.9950 -1.5893  2.5272
  141MOL   H10042380   5.425   3.675   0.346 -0.8883  0.1548  1.8561
  141MOL   H10142381   5.590   3.636   0.550 -0.3450 -0.4363  0.8049
  141MOL   H10242382   5.482   3.213   0.708  0.0783 -2.9921 -0.7288
  141MOL   H10342383   5.305   3.209   0.700 -0.1172  1.5147 -0.3144
  141MOL   H10442384   5.442   3.032   0.575 -0.4902  0.1050  1.8706
  141MOL   H10542385   5.511   3.148   0.482  2.3622 -0.9990  4.3655
  141MOL   H10642386   5.320   3.121   0.483  0.2804  0.0994 -1.2602
  141MOL   C10742387   5.386   3.666   0.611  0.1257 -0.0654 -0.7640
  141MOL   C10842388   5.392   3.819   0.596 -0.1522  0.1426 -0.5611
  141MOL   C10942389   5.514   3.873   0.680  1.1904  0.3218 -0.4809
  141MOL   O11042390   5.520   3.868   0.806  0.0700 -0.3366 -0.0033
  141MOL   O11142391   5.597   3.953   0.601  0.3060 -0.0909  0.0367
  141MOL   C11242392   5.715   3.997   0.663 -0.3294  0.0573  0.2388
  141MOL   C11342393   5.806   4.016   0.544 -0.8475  0.4840 -0.3112
  141MOL   H11442394   5.288   3.631   0.578 -0.7254  0.1000  1.4542
  141MOL   H11542395   5.394   3.641   0.717 -0.7756 -1.2123 -0.9535
  141MOL   H11642396   5.409   3.849   0.492  0.5799  3.2405  0.4129
  141MOL   H11742397   5.683   4.087   0.717 -2.5678 -1.4617  1.5010
  141MOL   H11842398   5.758   3.925   0.734  0.7730 -1.4621 -1.9263
  141MOL   H11942399   5.846   3.919   0.512  0.9364  1.3916 -0.9230
  141MOL   H12042400   5.893   4.078   0.567 -0.3508 -0.0818 -0.6390
  141MOL   H12142401   5.747   4.065   0.467  0.2792  1.1706 -0.7451
  141MOL   C12242402   5.263   3.877   0.641  0.4033  0.2293  0.3539
  141MOL   C12342403   5.223   4.015   0.582 -0.4300 -0.2156  0.3733
  141MOL   C12442404   5.316   4.132   0.613  0.8668  0.2753 -0.0294
  141MOL   O12542405   5.398   4.171   0.533 -0.4422 -0.7519 -0.0976
  141MOL   O12642406   5.299   4.186   0.731 -0.1911 -0.0941  0.2489
  141MOL   C12742407   5.400   4.282   0.778  0.6184 -0.3461  0.8114
  141MOL   C12842408   5.344   4.329   0.913  0.7204  0.1806  0.5089
  141MOL   H12942409   5.185   3.804   0.620  1.9808 -1.1552 -0.8817
  141MOL   H13042410   5.258   3.899   0.748 -2.3802 -0.7104  0.4551
  141MOL   H13142411   5.219   4.011   0.473  3.4152  0.0165  0.1384
  141MOL   H13242412   5.491   4.224   0.790 -0.6803 -2.4100  0.8365
  141MOL   H13342413   5.421   4.367   0.712  0.1712 -1.0273 -0.2139
  141MOL   H13442414   5.325   4.247   0.981  0.8203 -0.6435 -0.4521
  141MOL   H13542415   5.246   4.376   0.914  0.3651 -0.5657  1.3574
  141MOL   H13642416   5.413   4.397   0.965  0.7492  0.7063 -0.2106
  141MOL   C13742417   5.076   4.047   0.622 -0.0552  0.2402  0.0694
  141MOL   C13842418   4.964   4.013   0.521  0.4622 -0.4946 -0.4413
  141MOL   C13942419   4.995   4.054   0.376  0.2186  0.2279 -0.2918
  141MOL   O14042420   4.990   3.974   0.282  0.6549  0.0110  0.0980
  141MOL   O14142421   5.009   4.186   0.365  0.3450 -0.4149 -0.2718
  141MOL   C14242422   5.054   4.243   0.246  0.1309  0.0031 -0.1149
  141MOL   C14342423   4.951   4.341   0.192 -0.4708 -0.2814  0.7036
  141MOL   H14442424   5.055   3.985   0.708  0.0309  1.7441  1.1971
  141MOL   H14542425   5.064   4.153   0.644 -3.0115  0.3341 -1.6547
  141MOL   H14642426   4.964   3.905   0.508  1.2339 -0.4885 -0.5536
  141MOL   H14742427   5.150   4.280   0.281 -0.0588 -0.4168  0.8622
  141MOL   H14842428   5.076   4.169   0.169 -1.4978  0.6505 -1.2463
  141MOL   H14942429   5.002   4.379   0.103 -1.7036 -2.0218 -0.7891
  141MOL   H15042430   4.930   4.431   0.249 -2.1458  0.6678 -1.3593
  141MOL   H15142431   4.860   4.293   0.156 -1.2377  0.6879  1.3316
  141MOL   C15242432   4.821   4.049   0.570  0.3494  0.1138  0.2194
  141MOL   C15342433   4.771   4.198   0.576  0.1189 -0.0186 -0.3377
  141MOL   C15442434   4.830   4.288   0.689 -0.0962 -0.4318 -0.3474
  141MOL   O15542435   4.857   4.404   0.668 -0.2397 -0.5046  0.5984
  141MOL   O15642436   4.850   4.225   0.801 -0.2452  0.1218 -0.0732
  141MOL   C15742437   4.907   4.289   0.918  0.2233  0.6665  0.0836
  141MOL   C15842438   4.960   4.179   1.011 -0.4311 -0.6222 -0.1318
  141MOL   H15942439   4.757   3.989   0.505  0.1844  0.9123 -0.3453
  141MOL   H16042440   4.811   4.008   0.671 -1.8053 -1.1254 -0.4615
  141MOL   H16142441   4.795   4.246   0.481 -0.0094 -0.1155 -0.4198
  141MOL   H16242442   4.986   4.362   0.902  1.9045 -1.3387 -0.9991
  141MOL   H16342443   4.824   4.341   0.966 -0.9319  0.2999 -1.4667
  141MOL   H16442444   5.036   4.129   0.950 -0.9821  0.3715 -1.6636
  141MOL   H16542445   4.891   4.103   1.046 -0.7470 -0.5874 -0.6712
  141MOL   H16642446   5.002   4.234   1.095  0.4973 -0.9864 -0.3454
  141MOL   C16742447   4.614   4.217   0.582  0.0425 -1.2680  0.8040
  141MOL   C16842448   4.535   4.139   0.688 -0.7976  0.2923 -0.3738
  141MOL   C16942449   4.507   3.992   0.637  0.6945  0.1699  0.0038
  141MOL   O17042450   4.571   3.895   0.670  0.0808 -0.7875 -0.3336
  141MOL   O17142451   4.412   3.992   0.546 -0.6492 -0.5883  0.4690
  141MOL   C17242452   4.362   3.872   0.493 -0.1196  0.4360  0.1808
  141MOL   C17342453   4.259   3.820   0.601 -0.0489  0.3137 -0.1489
  141MOL   H17442454   4.604   4.325   0.592 -2.6458 -1.4608  0.5100
  141MOL   H17542455   4.574   4.196   0.483 -1.5378  0.7758  0.9731
  141MOL   H17642456   4.592   4.120   0.780  2.3874  2.1790 -1.8525
  141MOL   H17742457   4.312   3.884   0.397  2.1182 -0.4057 -1.1243
  141MOL   H17842458   4.443   3.799   0.484  0.0313  0.8277 -1.9223
  141MOL   H17942459   4.197   3.740   0.561  0.5103  0.7004 -1.8205
  141MOL   H18042460   4.199   3.902   0.639 -1.6323 -0.5700 -0.7023
  141MOL   H18142461   4.311   3.776   0.686 -2.0363 -0.7633  0.5521
  141MOL   C18242462   4.403   4.206   0.727 -0.0221 -0.1241 -0.3664
  141MOL   C18342463   4.405   4.351   0.794 -0.6372  0.1850 -0.2373
  141MOL   C18442464   4.479   4.337   0.922 -0.2763  0.2978 -0.3019
  141MOL   O18542465   4.594   4.381   0.937  0.1284  0.5343 -0.0156
  141MOL   O18642466   4.410   4.274   1.013 -0.3955 -0.1397  0.3283
  141MOL   C18742467   4.466   4.258   1.143 -0.6430 -0.4251 -0.7913
  141MOL   C18842468   4.554   4.126   1.146 -0.1352 -0.0962  0.5028
  141MOL   H18942469   4.351   4.222   0.632  0.3426  1.9761 -0.2281
  141MOL   H19042470   4.345   4.133   0.784 -1.0962  1.5625  0.7431
  141MOL   H19142471   4.459   4.415   0.725 -2.2667  1.7470 -0.1082
  141MOL   H19242472   4.519   4.348   1.174 -0.5941 -0.1457 -1.6545
  141MOL   H19342473   4.386   4.243   1.215  0.0401 -1.4419 -0.2265
  141MOL   H19442474   4.492   4.047   1.104  1.9454 -1.4200 -0.1320
  141MOL   H19542475   4.584   4.112   1.250  2.4759 -0.7928 -0.2908
  141MOL   H19642476   4.639   4.139   1.080 -0.7972  0.1456 -0.3040
  141MOL   C19742477   4.262   4.413   0.812 -0.5359 -0.0396  0.3920
  141MOL   C19842478   4.256   4.567   0.833 -0.1094 -0.0726  0.1028
  141MOL   C19942479   4.308   4.608   0.980 -0.3309  0.2497  0.5782
  141MOL   O20042480   4.250   4.572   1.081 -0.3305 -0.3762  0.1129
  141MOL   O20142481   4.407   4.696   0.981  0.2126  0.2784  0.0571
  141MOL   C20242482   4.445   4.752   1.109 -0.1319  0.8321  0.6296
  141MOL   C20342483   4.363   4.876   1.144 -0.2135  0.4362 -0.6776
  141MOL   H20442484   4.214   4.389   0.717  2.8861  0.6180 -1.5871
  141MOL   H20542485   4.208   4.364   0.893 -1.2125  1.7551  1.0647
  141MOL   H20642486   4.327   4.619   0.769  0.2743 -0.5888  0.0996
  141MOL   H20742487   4.447   4.670   1.182  0.2914  0.3432  0.0776
  141MOL   H20842488   4.543   4.799   1.106 -0.2204  0.9692 -0.4166
  141MOL   H20942489   4.254   4.871   1.145 -0.2349 -0.6052  3.5935
  141MOL   H21042490   4.376   4.964   1.082  0.6477  1.5528  1.0748
  141MOL   H21142491   4.382   4.909   1.246 -2.4168 -0.5416  0.1027
  141MOL   C21242492   4.110   4.613   0.810  0.3134 -0.2330  0.0579
  141MOL   C21342493   4.088   4.765   0.826 -0.0176 -0.4255 -0.2225
  141MOL   C21442494   3.947   4.790   0.876 -0.3430  0.0017  0.3310
  141MOL   O21542495   3.845   4.759   0.814  0.8917 -0.3452 -0.4220
  141MOL   O21642496   3.947   4.851   0.996 -0.4896 -0.1978  0.3995
  141MOL   C21742497   3.827   4.903   1.057  0.5768  0.9428  0.7463
  141MOL   C21842498   3.804   5.049   1.028  0.3871  0.1330  0.2869
  141MOL   H21942499   4.076   4.581   0.711  0.3342  1.1468 -0.4042
  141MOL   H22042500   4.050   4.552   0.877 -0.8818  0.8671 -0.0025
  141MOL   H22142501   4.151   4.803   0.907 -2.6101  1.6251  0.9125
  141MOL   H22242502   3.733   4.853   1.033  1.9264 -0.8485 -0.9973
  141MOL   H22342503   3.831   4.883   1.164  0.5093 -0.4925  0.4859
  141MOL   H22442504   3.714   5.075   1.082  1.1958 -0.9600  2.2159
  141MOL   H22542505   3.787   5.061   0.921  1.5007 -1.6875 -0.1239
  141MOL   H22642506   3.890   5.116   1.039  0.3355  0.4568 -1.1262
  141MOL   C22742507   4.131   4.841   0.706 -0.1366 -0.3892  0.4119
  141MOL   C22842508   4.237   4.951   0.728 -0.3154 -0.2166 -0.0699
  141MOL   C22942509   4.175   5.071   0.806 -0.2786 -0.5282  0.6409
  141MOL   O23042510   4.224   5.107   0.914  0.1775  0.2613  0.6748
  141MOL   O23142511   4.076   5.132   0.744 -0.4021 -0.0706 -0.6177
  141MOL   C23242512   4.031   5.259   0.784  0.4684  0.2889 -0.2155
  141MOL   C23342513   3.967   5.313   0.656 -0.2721  0.6128  0.3388
  141MOL   H23442514   4.164   4.763   0.638 -0.4838  0.4859 -0.7956
  141MOL   H23542515   4.048   4.886   0.652 -1.0159 -1.2009  1.0757
  141MOL   H23642516   4.317   4.901   0.782  1.0748  1.9084 -0.0839
  141MOL   H23742517   3.961   5.233   0.863 -0.0518  4.3966  0.7703
  141MOL   H23842518   4.114   5.320   0.818  0.3864  0.5260 -0.4463
  141MOL   H23942519   3.888   5.256   0.607 -1.0065  2.7320 -1.0359
  141MOL   H24042520   4.030   5.334   0.570  0.4654  0.0357  0.7344
  141MOL   H24142521   3.920   5.409   0.679 -2.1449  0.3608 -2.1875
  141MOL   C24242522   4.297   5.002   0.595  0.2259  0.3220 -0.1328
  141MOL   C24342523   4.442   5.044   0.597 -0.2262  0.2011 -0.3093
  141MOL   C24442524   4.533   4.926   0.653 -0.4208 -0.2577  0.0476
  141MOL   O24542525   4.577   4.923   0.767  0.0050 -0.2373 -0.1857
  141MOL   O24642526   4.562   4.829   0.571  0.0080  0.2294 -0.7502
  141MOL   C24742527   4.638   4.717   0.612 -0.2904  0.0487 -0.1571
  141MOL   C24842528   4.644   4.625   0.486 -0.0520 -0.0543 -0.0668
  141MOL   H24942529   4.292   4.923   0.520  1.7553  0.3831 -0.3124
  141MOL   H25042530   4.235   5.076   0.544 -0.2464 -0.6175 -0.9448
  141MOL   H25142531   4.470   5.052   0.492 -0.2737 -0.8519 -0.4129
  141MOL   H25242532   4.736   4.756   0.637 -0.4433  0.0441  0.4445
  141MOL   H25342533   4.600   4.666   0.700 -1.7027  0.3289 -0.5810
  141MOL   H25442534   4.570   4.545   0.489  0.1589 -0.3010 -1.1668
  141MOL   H25542535   4.735   4.568   0.469 -0.9377 -1.3358 -0.6000
  141MOL   H25642536   4.624   4.663   0.386  2.2106  1.1712 -0.0876
  141MOL   C25742537   4.470   5.180   0.660  0.1201 -0.2137  0.6366
  141MOL   C25842538   4.388   5.300   0.612 -1.0411 -0.1332 -0.3380
  141MOL   C25942539   4.427   5.355   0.473 -1.0432  0.0533  0.3472
  141MOL   O26042540   4.339   5.352   0.384 -0.1721 -0.6097 -0.4844
  141MOL   O26142541   4.557   5.392   0.459  0.3569 -0.8927 -0.2622
  141MOL   C26242542   4.588   5.442   0.335 -0.3695 -0.6109  0.5549
  141MOL   C26342543   4.737   5.485   0.321 -0.1457  0.1545 -0.3346
  141MOL   H26442544   4.447   5.179   0.766 -1.0813  3.5426  0.5114
  141MOL   H26542545   4.577   5.197   0.652  0.2363 -0.3839  1.8093
  141MOL   H26642546   4.285   5.264   0.604 -0.4498 -2.2298  1.2033
  141MOL   H26742547   4.564   5.363   0.264 -3.1568  1.1595 -0.5590
  141MOL   H26842548   4.524   5.526   0.308 -0.4581 -0.5601  0.9252
  141MOL   H26942549   4.797   5.413   0.378 -0.9196 -0.3286 -0.1242
  141MOL   H27042550   4.753   5.588   0.354 -2.3225  0.8272 -1.3001
  141MOL   H27142551   4.765   5.492   0.216 -0.4518  1.4933 -0.3397
  141MOL   C27242552   4.379   5.409   0.719 -0.0644 -0.3425 -0.0083
  141MOL   C27342553   4.500   5.496   0.746  0.0584 -0.0991  0.0470
  141MOL   C27442554   4.609   5.412   0.805 -0.6119 -0.3925  0.2829
  141MOL   O27542555   4.715   5.396   0.744 -0.5279 -0.2512  0.7050
  141MOL   O27642556   4.578   5.365   0.926 -0.0185 -0.2797  0.7720
  141MOL   C27742557   4.654   5.262   0.990  0.3918  1.0241 -0.4683
  141MOL   C27842558   4.565   5.221   1.113 -0.1264 -0.5904  0.4201
  141MOL   H27942559   4.304   5.480   0.683 -0.3864 -0.3014  0.7263
  141MOL   H28042560   4.334   5.373   0.812 -0.4977  1.0461  0.3266
  141MOL   H28142561   4.532   5.540   0.651  1.4987 -2.1051 -0.4398
  141MOL   H28242562   4.679   5.185   0.917 -0.0184  1.5605 -1.1925
  141MOL   H28342563   4.749   5.294   1.032 -1.0744  2.0759  2.1485
  141MOL   H28442564   4.614   5.131   1.150  2.1931  0.3967 -0.1832
  141MOL   H28542565   4.465   5.196   1.079 -0.5351 -0.5992  1.5925
  141MOL   H28642566   4.562   5.301   1.188 -0.1414  2.0093 -2.2696
  141MOL   C28742567   4.473   5.616   0.845  0.0234  0.4010  0.1322
  141MOL   C28842568   4.595   5.704   0.886  0.6035  0.9549  0.3877
  141MOL   C28942569   4.651   5.780   0.768  0.2920 -0.2076  0.8795
  141MOL   O29042570   4.592   5.873   0.723  0.5146  0.1842 -0.0721
  141MOL   O29142571   4.771   5.729   0.731  0.9882 -0.2716 -0.4110
  141MOL   C29242572   4.831   5.770   0.615  0.3298 -0.5497  0.2720
  141MOL   C29342573   4.968   5.701   0.592 -0.6487  0.8471 -0.1767
  141MOL   H29442574   4.397   5.684   0.805 -0.3095  0.1067  0.2652
  141MOL   H29542575   4.433   5.579   0.939  0.9203 -2.0144 -0.4063
  141MOL   H29642576   4.553   5.779   0.953 -0.0473 -0.3035  1.4048
  141MOL   H29742577   4.770   5.723   0.538  1.2197 -0.3879 -0.5468
  141MOL   H29842578   4.843   5.877   0.601  2.4296 -0.2879  3.4907
  141MOL   H29942579   5.049   5.737   0.656 -1.7165  2.1760  0.4365
  141MOL   H30042580   5.006   5.729   0.493  0.9634  1.1162  0.4948
  141MOL   H30142581   4.977   5.593   0.587 -1.1140  0.8256 -0.5095
  141MOL   H30242582   4.682   5.655   0.930 -0.5802 -1.1980  0.3479
  142MOL     C142583   2.801   5.814   0.503 -0.3217 -0.4115 -0.4848
  142MOL     C242584   2.878   5.759   0.379  0.1384 -0.6630  0.1048
  142MOL     C342585   2.846   5.848   0.256 -0.2714 -0.0232 -0.0460
  142MOL     O442586   2.768   5.807   0.172 -0.1449  0.2953  0.5018
  142MOL     O542587   2.895   5.975   0.272  0.1498 -0.4245  0.0105
  142MOL     C642588   2.881   6.075   0.178 -0.4388 -0.3237  0.6101
  142MOL     C742589   3.026   6.122   0.174  0.0351 -0.4501  0.4174
  142MOL     H842590   2.696   5.836   0.485 -0.9815 -1.6100  1.7159
  142MOL     H942591   2.848   5.903   0.545 -2.0412  0.1362  0.3113
  142MOL    H1042592   2.986   5.764   0.394  0.1657  0.5715 -0.4903
  142MOL    H1142593   2.835   6.049   0.082  0.9519 -2.1315  0.3945
  142MOL    H1242594   2.828   6.162   0.215 -1.9479 -0.8355 -0.2831
  142MOL    H1342595   3.052   6.160   0.273  1.2211  2.5391 -0.9751
  142MOL    H1442596   3.041   6.201   0.099  0.6133 -1.2361 -0.3065
  142MOL    H1542597   3.101   6.050   0.140 -0.2635 -1.3186  1.5878
  142MOL    H1642598   2.796   5.758   0.596  1.7308 -0.0071 -0.0997
  142MOL    C1742599   2.864   5.604   0.354  0.4335 -0.1494  0.4564
  142MOL    C1842600   3.000   5.537   0.335 -0.2704 -0.1798  0.4805
  142MOL    C1942601   3.031   5.557   0.187 -0.7451 -0.4042  0.1908
  142MOL    O2042602   3.121   5.632   0.147 -0.1154  0.0761 -0.1874
  142MOL    O2142603   2.962   5.482   0.101  0.3996 -0.3660  0.2581
  142MOL    C2242604   2.962   5.496   7.865  0.4681  0.2119  0.2678
  142MOL    C2342605   2.900   5.624   7.826 -0.4543 -0.5151 -0.0977
  142MOL    H2442606   2.822   5.570   0.449  1.7273 -0.2745  0.9956
  142MOL    H2542607   2.802   5.579   0.268  1.4753 -2.3777  0.3103
  142MOL    H2642608   3.081   5.592   0.384 -1.5684  0.7894  1.5881
  142MOL    H2742609   3.063   5.506   7.825  0.9180 -3.1183  0.4518
  142MOL    H2842610   2.906   5.421   7.809  3.1417 -1.4547 -0.2578
  142MOL    H2942611   2.887   5.635   7.718  2.8319  1.3865 -0.3720
  142MOL    H3042612   2.958   5.706   7.868 -0.3068  0.0131 -1.3132
  142MOL    H3142613   2.805   5.643   7.878 -0.0147  0.1206  0.4900
  142MOL    C3242614   3.007   5.394   0.389  0.2386  0.0947 -0.3695
  142MOL    C3342615   3.019   5.388   0.550  0.0661 -0.0773  0.0418
  142MOL    C3442616   3.145   5.456   0.592 -0.4414 -0.1559  0.1569
  142MOL    O3542617   3.257   5.422   0.551 -0.1007  0.1205 -0.2310
  142MOL    O3642618   3.121   5.555   0.680 -0.2434 -0.1774 -0.2460
  142MOL    C3742619   3.222   5.636   0.734  0.4885  0.5138 -0.3161
  142MOL    C3842620   3.321   5.559   0.834 -0.3927 -0.4143  0.2258
  142MOL    H3942621   2.920   5.336   0.357  1.0142 -0.0691 -2.2118
  142MOL    H4042622   3.098   5.349   0.347  0.8393 -0.8978  1.9204
  142MOL    H4142623   2.944   5.455   0.592  1.8424  0.9378  1.6718
  142MOL    H4242624   3.273   5.685   0.651 -0.6315  0.0509 -1.2903
  142MOL    H4342625   3.161   5.709   0.787  1.3642  0.3065  1.0061
  142MOL    H4442626   3.373   5.623   0.905 -0.4376 -2.1290  1.8579
  142MOL    H4542627   3.404   5.514   0.780  0.7718 -0.0432  1.6811
  142MOL    H4642628   3.270   5.480   0.889  1.5552 -0.9237  1.3564
  142MOL    C4742629   3.015   5.251   0.611 -0.7221  0.7113 -0.7308
  142MOL    C4842630   2.894   5.162   0.582 -0.6958 -0.5597 -0.1951
  142MOL    C4942631   2.759   5.219   0.626  0.7170  0.3570  0.2915
  142MOL    O5042632   2.704   5.193   0.730 -0.0182 -0.2306  0.4038
  142MOL    O5142633   2.713   5.302   0.534  0.0294 -0.3970  0.3644
  142MOL    C5242634   2.583   5.358   0.532  0.0747  1.3046 -0.9089
  142MOL    C5342635   2.480   5.269   0.456  0.4408  0.0849  0.0114
  142MOL    H5442636   3.098   5.190   0.574 -1.4154  0.4574 -1.9001
  142MOL    H5542637   3.029   5.252   0.719 -2.7048 -2.3242 -0.3801
  142MOL    H5642638   2.897   5.158   0.473  2.1421  3.2593 -0.3567
  142MOL    H5742639   2.538   5.365   0.631 -1.5502 -2.1483 -1.3298
  142MOL    H5842640   2.585   5.462   0.501 -3.2254  1.7354  0.1959
  142MOL    H5942641   2.472   5.181   0.520 -0.1082 -0.1175 -0.3270
  142MOL    H6042642   2.514   5.225   0.362  1.2332  0.2918  0.2014
  142MOL    H6142643   2.379   5.311   0.449  0.7508  0.5826 -1.8145
  142MOL    C6242644   2.908   5.016   0.638  0.4356  0.3349  0.5117
  142MOL    C6342645   3.010   4.923   0.571  0.4874  0.0292 -0.6857
  142MOL    C6442646   2.975   4.892   0.420  0.1399  0.2291 -0.0934
  142MOL    O6542647   3.067   4.886   0.340 -0.0036 -0.1393  0.2393
  142MOL    O6642648   2.846   4.871   0.392  0.2999  0.2949  0.6418
  142MOL    C6742649   2.807   4.831   0.262  0.1543 -0.9074 -0.9772
  142MOL    C6842650   2.656   4.831   0.267 -0.0533 -1.0244  0.4534
  142MOL    H6942651   2.930   5.012   0.745  1.6736  2.0328  0.3437
  142MOL    H7042652   2.811   4.972   0.613  0.2661  2.0417 -2.0523
  142MOL    H7142653   3.108   4.970   0.574 -0.5777  2.3138 -0.8991
  142MOL    H7242654   2.847   4.900   0.188  0.5902  1.1884  1.1485
  142MOL    H7342655   2.856   4.738   0.231  0.4596 -0.9038 -0.5019
  142MOL    H7442656   2.620   4.763   0.345  2.1180 -1.3633  1.1948
  142MOL    H7542657   2.621   4.797   0.169  0.3170  0.9560 -0.3729
  142MOL    H7642658   2.610   4.927   0.293  1.0554  0.0492 -1.5036
  142MOL    C7742659   3.008   4.790   0.657  0.0600  1.3974 -0.5089
  142MOL    C7842660   2.874   4.707   0.662 -0.8175  0.4556  0.0568
  142MOL    C7942661   2.782   4.761   0.773 -0.3132 -1.0431 -0.1019
  142MOL    O8042662   2.830   4.787   0.880 -0.4891  0.1953  0.4113
  142MOL    O8142663   2.662   4.803   0.731  0.7055 -0.0355 -0.5129
  142MOL    C8242664   2.578   4.884   0.811 -0.2520 -0.3758  0.4146
  142MOL    C8342665   2.462   4.810   0.872  0.1298  0.1915 -0.4044
  142MOL    H8442666   3.074   4.717   0.610  0.3882  0.3788  1.4947
  142MOL    H8542667   3.056   4.803   0.754  3.2354 -2.4389 -1.4161
  142MOL    H8642668   2.819   4.720   0.569  0.6651 -1.0224 -1.0633
  142MOL    H8742669   2.640   4.925   0.890 -0.1807  1.2808 -0.4702
  142MOL    H8842670   2.540   4.965   0.748 -0.9980 -0.3138  0.9322
  142MOL    H8942671   2.406   4.749   0.801  1.8740  0.1905 -1.8046
  142MOL    H9042672   2.394   4.881   0.920  2.8555  1.6329  1.4549
  142MOL    H9142673   2.495   4.744   0.952 -1.0276  0.1481  0.0513
  142MOL    C9242674   2.890   4.547   0.675  0.1198  0.1929 -0.1138
  142MOL    C9342675   2.883   4.472   0.541  0.0022  0.5411 -0.2512
  142MOL    C9442676   2.746   4.481   0.477 -0.0755  0.0091  1.2792
  142MOL    O9542677   2.740   4.524   0.363 -0.4981 -0.2659 -0.6332
  142MOL    O9642678   2.638   4.437   0.551  0.0334 -0.6709 -0.3307
  142MOL    C9742679   2.506   4.444   0.500 -0.1117  0.0302 -0.3722
  142MOL    C9842680   2.473   4.318   0.415 -0.5213 -0.0965  0.3354
  142MOL    H9942681   2.974   4.507   0.732  0.6322 -0.6925 -1.4764
  142MOL   H10042682   2.812   4.505   0.738 -0.3196 -1.6138 -1.8185
  142MOL   H10142683   2.964   4.525   0.490  1.3365  1.4589  2.6874
  142MOL   H10242684   2.440   4.447   0.586  0.5211  1.6566  0.0881
  142MOL   H10342685   2.498   4.530   0.433 -1.0831 -0.1516 -0.4926
  142MOL   H10442686   2.375   4.333   0.371 -0.8397 -0.4853  0.9054
  142MOL   H10542687   2.471   4.241   0.492  1.1344  0.8451  1.3658
  142MOL   H10642688   2.542   4.286   0.337 -1.7617 -0.4625 -0.6115
  142MOL   C10742689   2.920   4.324   0.558  0.0894  0.6801  0.1998
  142MOL   C10842690   2.928   4.233   0.426 -0.3096 -0.8190  0.4037
  142MOL   C10942691   2.864   4.097   0.438  0.2007  0.0552 -0.5816
  142MOL   O11042692   2.867   4.027   0.541 -0.0074 -0.3873 -0.0698
  142MOL   O11142693   2.795   4.054   0.330 -0.2702  0.5020  0.1081
  142MOL   C11242694   2.721   3.930   0.327  0.1677 -0.4346  0.5206
  142MOL   C11342695   2.577   3.951   0.385 -0.8174 -0.3878  0.1132
  142MOL   H11442696   3.016   4.323   0.609 -0.1966 -1.2758  0.7437
  142MOL   H11542697   2.848   4.276   0.624  0.8877 -1.1056 -0.1830
  142MOL   H11642698   2.870   4.277   0.344 -0.6503 -0.1844  0.9859
  142MOL   H11742699   2.727   3.895   0.225 -1.1518 -0.7284  0.5413
  142MOL   H11842700   2.774   3.849   0.377  0.3942 -1.1906 -0.9236
  142MOL   H11942701   2.568   4.007   0.479  0.4515  0.8761 -0.4934
  142MOL   H12042702   2.529   3.855   0.405  1.5987 -1.1871  2.3141
  142MOL   H12142703   2.519   4.010   0.315  2.7451  0.9234 -1.8358
  142MOL   C12242704   3.066   4.215   0.355 -0.1341  0.1448 -0.5747
  142MOL   C12342705   3.055   4.234   0.202 -0.4447  0.1905  0.3296
  142MOL   C12442706   3.181   4.159   0.142 -0.0487  0.7330 -0.1571
  142MOL   O12542707   3.278   4.136   0.210 -0.4279 -0.4703 -0.3806
  142MOL   O12642708   3.155   4.114   0.019  0.5933  0.3713 -0.1509
  142MOL   C12742709   3.244   4.020   7.870  0.3579 -0.6019 -0.3847
  142MOL   C12842710   3.186   3.975   7.731 -0.5046  0.3459 -0.5684
  142MOL   H12942711   3.138   4.285   0.397 -0.7207  0.8114 -0.6829
  142MOL   H13042712   3.101   4.115   0.381 -0.9184  0.6105  2.5343
  142MOL   H13142713   2.959   4.187   0.184 -1.0979  1.4190  0.6012
  142MOL   H13242714   3.334   4.081   7.863  0.0572 -0.2500 -1.2823
  142MOL   H13342715   3.266   3.936   0.028 -1.2839 -1.0590 -0.4012
  142MOL   H13442716   3.150   4.064   7.679  1.5487  2.5258  1.6324
  142MOL   H13542717   3.106   3.903   7.748 -1.3785  1.4958  0.2872
  142MOL   H13642718   3.266   3.942   7.664 -0.9760 -0.2493 -0.8394
  142MOL   C13742719   3.032   4.380   0.148  0.3243  0.2717 -0.3191
  142MOL   C13842720   2.924   4.369   0.030 -0.6142 -0.3538  0.5659
  142MOL   C13942721   2.939   4.494   7.849 -0.2937 -0.4650 -0.3280
  142MOL   O14042722   2.963   4.486   7.727  0.1490  0.1766 -0.3295
  142MOL   O14142723   2.934   4.618   7.905  0.3540 -0.2699 -0.4473
  142MOL   C14242724   2.973   4.734   7.829  0.0417  0.5909 -0.1086
  142MOL   C14342725   3.124   4.760   7.825  0.7493 -0.1707 -0.1946
  142MOL   H14442726   3.006   4.447   0.231 -3.0489 -1.1046 -0.1753
  142MOL   H14542727   3.126   4.413   0.103  0.3891  0.1752 -0.2551
  142MOL   H14642728   2.963   4.294   7.870 -0.0504 -0.6014  1.1474
  142MOL   H14742729   2.924   4.716   7.734 -0.0891 -0.6404  0.1916
  142MOL   H14842730   2.928   4.829   7.860  0.9766  1.2471 -0.7254
  142MOL   H14942731   3.152   4.800   0.014  1.6584 -0.6229 -0.2664
  142MOL   H15042732   3.147   4.830   7.744  0.3745  2.6555  2.0588
  142MOL   H15142733   3.189   4.676   7.803  2.2062  0.6612  0.8882
  142MOL   C15242734   2.781   4.338   0.074 -0.6326 -0.2561  0.1371
  142MOL   C15342735   2.682   4.317   7.863 -0.0992  0.2649 -0.0905
  142MOL   C15442736   2.536   4.327   0.006  0.1633 -0.3316  0.1299
  142MOL   O15542737   2.455   4.405   7.876  0.4043  0.1232 -0.2837
  142MOL   O15642738   2.506   4.230   0.100  0.0942  0.0225  0.4086
  142MOL   C15742739   2.366   4.179   0.115  0.3691 -0.5720  0.4313
  142MOL   C15842740   2.353   4.072   0.005  0.8208  0.0494  0.3573
  142MOL   H15942741   2.776   4.252   0.140  1.4192  0.5003  1.3471
  142MOL   H16042742   2.742   4.418   0.137  0.3676 -0.7561  1.4167
  142MOL   H16142743   2.702   4.401   7.797  0.2042  0.7229  0.5836
  142MOL   H16242744   2.341   4.133   0.210 -0.0248  0.7800  0.9950
  142MOL   H16342745   2.302   4.267   0.110  0.4905 -0.5461 -1.2183
  142MOL   H16442746   2.420   3.986   0.006 -0.6971 -1.2291 -2.5825
  142MOL   H16542747   2.367   4.111   7.812  1.7677 -0.6394  0.2173
  142MOL   H16642748   2.253   4.031   0.019  0.4919  1.4949  2.4333
  142MOL   C16742749   2.714   4.175   7.795  0.1604  0.1389 -0.2592
  142MOL   C16842750   2.693   4.154   7.649 -0.4607 -0.4871 -0.7869
  142MOL   C16942751   2.668   4.007   7.612  0.0794  0.1372  0.0859
  142MOL   O17042752   2.570   3.969   7.557 -0.2755 -0.5121  0.0243
  142MOL   O17142753   2.778   3.935   7.648  0.3820 -0.5269 -0.4824
  142MOL   C17242754   2.786   3.803   7.615  0.1724 -0.3705  0.8581
  142MOL   C17342755   2.914   3.746   7.672 -0.0552 -0.4941  0.2766
  142MOL   H17442756   2.817   4.153   7.823 -0.6957 -0.7579  2.3288
  142MOL   H17542757   2.667   4.095   7.852  0.1498  1.1180  1.1221
  142MOL   H17642758   2.594   4.198   7.635  0.0309  1.4809  1.5299
  142MOL   H17742759   2.697   3.757   7.657 -0.2121  1.8445  2.5185
  142MOL   H17842760   2.787   3.795   7.506  0.9558 -3.7715  1.0406
  142MOL   H17942761   2.999   3.786   7.616 -0.0901  0.2332  0.7348
  142MOL   H18042762   2.930   3.638   7.675  2.6838 -0.1211  1.9174
  142MOL   H18142763   2.924   3.773   7.777  1.6471 -0.9173  0.2425
  142MOL   C18242764   2.803   4.221   7.569  1.4075 -0.2007  0.1829
  142MOL   C18342765   2.790   4.226   7.419 -0.0955  0.5683 -0.0399
  142MOL   C18442766   2.924   4.249   7.338  0.3049 -0.8863 -0.1125
  142MOL   O18542767   2.948   4.162   7.257  0.3652 -0.5603 -0.1059
  142MOL   O18642768   2.988   4.374   7.352 -0.0448 -0.3315 -0.2572
  142MOL   C18742769   3.075   4.419   7.246 -0.2009 -0.1647  0.2066
  142MOL   C18842770   2.984   4.470   7.134 -0.5312 -0.1245 -0.2995
  142MOL   H18942771   2.811   4.318   7.617 -3.1377  0.6549 -0.6373
  142MOL   H19042772   2.895   4.164   7.586  0.0915 -1.9353  1.6658
  142MOL   H19142773   2.752   4.129   7.386  1.5253  0.0263 -0.3571
  142MOL   H19242774   3.148   4.491   7.282 -0.7117  0.5441 -0.1620
  142MOL   H19342775   3.133   4.333   7.211  0.0029  1.3539 -3.3386
  142MOL   H19442776   2.919   4.546   7.177 -1.7004 -1.0349 -0.4431
  142MOL   H19542777   2.926   4.389   7.089  1.5902 -1.8356 -0.0467
  142MOL   H19642778   3.054   4.511   7.061 -1.3819 -0.1885 -1.1504
  142MOL   C19742779   2.689   4.336   7.373  0.2085  0.3772 -0.2575
  142MOL   C19842780   2.541   4.287   7.340  0.6438 -0.5021 -0.0189
  142MOL   C19942781   2.538   4.235   7.191  0.0049 -0.2930 -0.4991
  142MOL   O20042782   2.491   4.303   7.097 -0.2054  0.7001  0.2171
  142MOL   O20142783   2.592   4.105   7.192  0.4177  0.3876  0.2351
  142MOL   C20242784   2.581   4.017   7.074  0.4250 -0.8786  0.2193
  142MOL   C20342785   2.712   4.051   6.991 -0.4454  0.4784  0.5297
  142MOL   H20442786   2.693   4.419   7.444  0.6183  0.5066 -0.4335
  142MOL   H20542787   2.727   4.382   7.282  2.2250 -1.1133 -0.2157
  142MOL   H20642788   2.529   4.202   7.407 -1.1706 -1.0617 -1.0314
  142MOL   H20742789   2.569   3.910   7.088 -2.6016 -0.7284 -0.8643
  142MOL   H20842790   2.496   4.054   7.017 -0.4833 -0.7653  1.6303
  142MOL   H20942791   2.720   3.999   6.896 -1.4159  0.6625  0.3372
  142MOL   H21042792   2.807   4.034   7.041  0.8696 -2.8828 -2.9200
  142MOL   H21142793   2.707   4.157   6.963 -1.9371  0.2280 -0.2089
  142MOL   C21242794   2.430   4.394   7.382  0.3430 -0.6855 -0.6785
  142MOL   C21342795   2.285   4.350   7.378 -0.0387  0.2034 -0.7074
  142MOL   C21442796   2.199   4.479   7.339 -0.4602  0.1588 -0.5508
  142MOL   O21542797   2.134   4.550   7.422 -0.4761  0.1230  0.1338
  142MOL   O21642798   2.219   4.506   7.204 -0.0566 -0.0948 -0.0940
  142MOL   C21742799   2.132   4.607   7.155 -0.7953  0.0589  0.3095
  142MOL   C21842800   2.182   4.639   7.014  0.1557  0.0793 -0.3165
  142MOL   H21942801   2.467   4.453   7.466  1.1451 -1.7780 -0.2623
  142MOL   H22042802   2.446   4.465   7.301 -0.2361  0.1773 -0.0576
  142MOL   H22142803   2.280   4.283   7.292  2.5202  0.8647 -1.4055
  142MOL   H22242804   2.030   4.571   7.144 -0.0322 -2.9279  2.5072
  142MOL   H22342805   2.108   4.699   7.209 -0.3555  0.0522  0.5177
  142MOL   H22442806   2.179   4.544   6.960 -1.1762  0.5119 -1.0311
  142MOL   H22542807   2.283   4.679   7.021  0.3642 -0.6430  0.9211
  142MOL   H22642808   2.124   4.710   6.955 -0.4811 -0.2494 -0.0910
  142MOL   C22742809   2.246   4.288   7.512  0.4230  0.3212  0.2581
  142MOL   C22842810   2.119   4.196   7.505  0.0425 -0.0129 -0.7225
  142MOL   C22942811   2.058   4.177   7.647 -0.5040  0.2131 -0.3564
  142MOL   O23042812   2.115   4.208   7.753 -0.1756  0.4726  0.0254
  142MOL   O23142813   1.939   4.111   7.649 -0.0585  0.5094  0.2932
  142MOL   C23242814   1.866   4.099   7.774 -0.6437 -0.3062  0.2362
  142MOL   C23342815   1.906   3.982   7.855 -0.6711  0.1689 -0.2635
  142MOL   H23442816   2.328   4.227   7.550 -1.0180 -1.1372  1.0768
  142MOL   H23542817   2.234   4.368   7.585  0.5546  0.1617  0.4563
  142MOL   H23642818   2.040   4.245   7.446 -0.4195 -0.5755 -0.5786
  142MOL   H23742819   1.879   4.189   7.835  4.4794  0.1970 -1.4275
  142MOL   H23842820   1.766   4.083   7.733 -0.8059  0.1568  0.4439
  142MOL   H23942821   1.844   3.976   0.036  1.4209 -0.6438  1.1750
  142MOL   H24042822   2.006   4.002   7.896 -1.4354 -0.4496  1.9984
  142MOL   H24142823   1.895   3.887   7.802  1.1461 -0.6227  0.7025
  142MOL   C24242824   2.158   4.058   7.442  0.0649  0.7116 -0.3083
  142MOL   C24342825   2.045   3.998   7.359  0.3809 -0.0431  0.0531
  142MOL   C24442826   2.016   3.853   7.400 -0.1283 -0.3178  0.2297
  142MOL   O24542827   2.082   3.757   7.365  0.0181  0.0343 -0.0484
  142MOL   O24642828   1.914   3.849   7.486  0.4127  0.0670  0.5896
  142MOL   C24742829   1.871   3.734   7.541  0.1215  0.3322  0.1926
  142MOL   C24842830   1.727   3.744   7.585  0.0598  0.0054  0.1517
  142MOL   H24942831   2.249   4.071   7.385  1.0482 -0.4465  0.9713
  142MOL   H25042832   2.173   3.984   7.521 -0.0046 -0.9225 -1.7897
  142MOL   H25142833   1.958   4.059   7.384 -0.5269 -0.4434 -1.9387
  142MOL   H25242834   1.873   3.656   7.465  2.0912  1.6584 -1.1626
  142MOL   H25342835   1.933   3.708   7.627  0.4087 -0.9667 -0.3873
  142MOL   H25442836   1.689   3.655   7.634  0.0925 -0.5547 -0.8268
  142MOL   H25542837   1.661   3.770   7.502  0.6081  1.4005  0.1335
  142MOL   H25642838   1.724   3.831   7.650 -0.2053  0.6842 -0.7496
  142MOL   C25742839   2.075   4.007   7.208 -0.4833  0.1720  0.3462
  142MOL   C25842840   2.059   4.146   7.146  0.6108  0.1477  0.2278
  142MOL   C25942841   1.913   4.184   7.115 -0.6056  0.0555  0.3644
  142MOL   O26042842   1.810   4.109   7.107 -0.4007 -0.0781 -0.4115
  142MOL   O26142843   1.908   4.313   7.098 -0.4710  0.1260  0.4866
  142MOL   C26242844   1.788   4.371   7.054 -0.3421 -0.0443  0.0751
  142MOL   C26342845   1.772   4.376   6.904  0.0557 -0.0668 -0.1849
  142MOL   H26442846   2.171   3.957   7.196 -2.1106 -2.7869 -0.7316
  142MOL   H26542847   2.006   3.949   7.147  1.5283 -0.3395 -1.5339
  142MOL   H26642848   2.076   4.220   7.225  0.5184  0.5046 -0.0843
  142MOL   H26742849   1.699   4.326   7.098 -0.7485  1.5754  0.9508
  142MOL   H26842850   1.788   4.475   7.088 -1.1389 -0.1625  0.4429
  142MOL   H26942851   1.854   4.428   6.854  1.8752 -1.7715  0.9709
  142MOL   H27042852   1.673   4.420   6.888 -0.2686 -1.1301 -1.1628
  142MOL   H27142853   1.772   4.277   6.858 -1.0771  0.6044 -1.7123
  142MOL   C27242854   2.159   4.180   7.032 -1.0644 -0.0112  0.2904
  142MOL   C27342855   2.154   4.092   6.904  0.0774 -0.3605 -0.2213
  142MOL   C27442856   2.179   3.948   6.928  0.2382  0.0092 -0.3557
  142MOL   O27542857   2.088   3.862   6.930  0.7782  0.1276  0.2797
  142MOL   O27642858   2.306   3.925   6.949 -0.2312 -0.3153 -0.7408
  142MOL   C27742859   2.367   3.799   6.922  0.0815  0.8883  0.5869
  142MOL   C27842860   2.428   3.814   6.783 -0.4583 -0.2164  1.0978
  142MOL   H27942861   2.140   4.286   7.012 -1.4103  0.1672  1.5103
  142MOL   H28042862   2.258   4.171   7.075 -1.5750 -2.3616  1.0171
  142MOL   H28142863   2.048   4.103   6.880  0.0566  1.3607  0.6100
  142MOL   H28242864   2.449   3.781   6.992 -0.5129 -2.2843  0.5214
  142MOL   H28342865   2.297   3.716   6.913  0.5711  0.4743  0.5733
  142MOL   H28442866   2.349   3.814   6.709  0.2174 -1.9433  0.3527
  142MOL   H28542867   2.498   3.736   6.755 -0.5762 -0.2562  0.9178
  142MOL   H28642868   2.486   3.907   6.783  0.0374 -0.5224  0.6634
  142MOL   C28742869   2.249   4.137   6.787  0.3031  0.9141 -0.3544
  142MOL   C28842870   2.175   4.138   6.650 -0.1381 -0.4532  0.3218
  142MOL   C28942871   2.078   4.252   6.640  0.2403 -0.7029 -0.5229
  142MOL   O29042872   2.102   4.361   6.696  0.1428 -0.2841  0.1924
  142MOL   O29142873   1.976   4.223   6.556  0.1527  0.4501  0.0439
  142MOL   C29242874   1.901   4.330   6.506 -0.0086 -0.3486 -0.0029
  142MOL   C29342875   1.823   4.281   6.382 -0.3186 -0.7738  0.1595
  142MOL   H29442876   2.299   4.228   6.821 -0.7523  1.6639 -0.8140
  142MOL   H29542877   2.334   4.072   6.765  0.4670  1.2322 -0.6660
  142MOL   H29642878   2.253   4.160   6.578 -1.2631  1.1324 -0.4501
  142MOL   H29742879   1.837   4.360   6.588 -0.0529  0.0248 -0.1732
  142MOL   H29842880   1.965   4.415   6.482  0.5389 -1.1480 -1.4345
  142MOL   H29942881   1.884   4.218   6.317 -0.3952 -1.2893  0.5845
  142MOL   H30042882   1.799   4.365   6.317 -0.7117  0.9711  2.5064
  142MOL   H30142883   1.725   4.234   6.395 -1.4659  0.9977 -1.6990
  142MOL   H30242884   2.124   4.044   6.628 -1.3905 -0.4521  2.9431
  143MOL     C142885   4.325   5.676   2.776  0.8375 -0.9004  0.1282
  143MOL     C242886   4.454   5.630   2.852  0.4064 -0.2667  0.4613
  143MOL     C342887   4.562   5.675   2.758  0.3454 -0.3158 -0.4526
  143MOL     O442888   4.617   5.602   2.679 -1.0534 -0.1642  0.3032
  143MOL     O542889   4.589   5.803   2.771  0.2619 -0.3535  0.5708
  143MOL     C642890   4.705   5.864   2.722 -0.7288 -0.6017 -0.5735
  143MOL     C742891   4.825   5.873   2.822  0.4823  0.8771 -0.0554
  143MOL     H842892   4.322   5.784   2.766  1.6867 -0.7730  1.2100
  143MOL     H942893   4.233   5.639   2.821 -0.7241 -0.3434 -2.4862
  143MOL    H1042894   4.448   5.682   2.948  0.5669 -0.7818  0.7520
  143MOL    H1142895   4.743   5.809   2.636  2.1829 -2.0497  1.5263
  143MOL    H1242896   4.685   5.968   2.695  1.9498 -0.2252 -1.3135
  143MOL    H1342897   4.856   5.773   2.852  1.0756  0.7927 -0.9284
  143MOL    H1442898   4.804   5.932   2.911 -0.2074 -0.0288  0.3954
  143MOL    H1542899   4.906   5.923   2.769 -0.6440  1.2660 -1.4756
  143MOL    H1642900   4.310   5.626   2.680  1.8850 -0.6177 -0.1862
  143MOL    C1742901   4.452   5.474   2.873 -0.0565 -0.1715 -0.3150
  143MOL    C1842902   4.413   5.434   3.019  0.1269 -0.0768  0.0125
  143MOL    C1942903   4.519   5.469   3.128  0.5818  1.2037  0.2086
  143MOL    O2042904   4.493   5.482   3.245 -0.5614 -0.5599 -0.8372
  143MOL    O2142905   4.637   5.499   3.080 -0.4214  0.4505 -0.3818
  143MOL    C2242906   4.747   5.532   3.169 -1.0396 -0.2402  0.3853
  143MOL    C2342907   4.857   5.599   3.087 -0.7643  1.0056 -0.3760
  143MOL    H2442908   4.376   5.430   2.808  0.3532  2.3807 -2.6487
  143MOL    H2542909   4.547   5.426   2.849  1.0433  1.4939  0.5464
  143MOL    H2642910   4.319   5.484   3.042 -0.2462 -0.6384 -0.2658
  143MOL    H2742911   4.699   5.607   3.232 -1.3631  1.7976 -2.1767
  143MOL    H2842912   4.779   5.450   3.234  1.2536 -0.0835 -0.5010
  143MOL    H2942913   4.829   5.696   3.045  1.0883  2.2042  1.1093
  143MOL    H3042914   4.896   5.541   3.003 -2.5212  2.6288 -2.3855
  143MOL    H3142915   4.932   5.648   3.148  0.6263  2.5606 -3.2656
  143MOL    C3242916   4.390   5.285   3.017 -0.4503 -0.4080 -0.6804
  143MOL    C3342917   4.336   5.221   3.145 -0.2363 -0.7500 -0.2933
  143MOL    C3442918   4.329   5.067   3.146 -1.2261  0.0047 -0.6406
  143MOL    O3542919   4.321   4.997   3.248  0.3178  0.8400 -0.4212
  143MOL    O3642920   4.320   5.022   3.014  0.4290 -0.1868 -0.0990
  143MOL    C3742921   4.338   4.883   2.999  0.5238 -0.2812 -0.2646
  143MOL    C3842922   4.224   4.792   3.001  0.2702 -0.0432  0.1785
  143MOL    H3942923   4.314   5.259   2.943 -0.0809 -1.6712 -0.6174
  143MOL    H4042924   4.485   5.240   2.987 -1.6075 -2.8209 -0.8220
  143MOL    H4142925   4.410   5.251   3.220 -1.3732  1.6443 -0.0847
  143MOL    H4242926   4.372   4.865   2.897  0.1177 -0.3584 -0.3852
  143MOL    H4342927   4.411   4.839   3.067 -0.4520 -0.7913  0.4618
  143MOL    H4442928   4.158   4.805   3.087  1.0726 -0.2890  0.8353
  143MOL    H4542929   4.248   4.685   3.003  0.3280 -0.0246  0.3909
  143MOL    H4642930   4.174   4.816   2.907 -0.2391  0.9392  0.6955
  143MOL    C4742931   4.199   5.274   3.192  0.3565 -0.1015 -0.7104
  143MOL    C4842932   4.147   5.237   3.329 -0.1717  0.4926  0.8323
  143MOL    C4942933   4.004   5.294   3.353  0.8500 -0.0828  0.1747
  143MOL    O5042934   3.911   5.218   3.391 -0.2965  0.0111  0.6588
  143MOL    O5142935   3.996   5.426   3.335  0.2226  0.3984 -0.0261
  143MOL    C5242936   3.869   5.494   3.347 -0.3973 -0.5376  0.4699
  143MOL    C5342937   3.837   5.553   3.209 -0.0986  0.1242 -0.6458
  143MOL    H5442938   4.200   5.382   3.179 -0.3138 -0.1051 -0.7902
  143MOL    H5542939   4.129   5.229   3.121 -0.1115  0.3517 -0.5383
  143MOL    H5642940   4.133   5.129   3.330 -0.8657  0.5368 -1.3747
  143MOL    H5742941   3.792   5.424   3.380  0.3744 -0.7486  1.8819
  143MOL    H5842942   3.897   5.564   3.426 -2.0773  0.5055  0.1569
  143MOL    H5942943   3.815   5.475   3.136  0.2830 -0.2933 -0.3160
  143MOL    H6042944   3.914   5.619   3.171 -1.5866  2.4795  0.2910
  143MOL    H6142945   3.749   5.615   3.227 -0.6600 -0.2592 -2.0596
  143MOL    C6242946   4.243   5.298   3.439 -0.2121 -0.0248  0.0405
  143MOL    C6342947   4.297   5.196   3.538 -0.1274  0.4407 -0.4830
  143MOL    C6442948   4.178   5.113   3.600  0.4209  0.2768  0.2169
  143MOL    O6542949   4.173   4.994   3.577 -0.0512 -0.0792 -0.2503
  143MOL    O6642950   4.097   5.190   3.677  0.3283 -0.6432 -0.0488
  143MOL    C6742951   3.980   5.130   3.716  0.5932 -0.1598  0.5636
  143MOL    C6842952   3.916   5.193   3.842  0.1384 -0.1887  0.1900
  143MOL    H6942953   4.330   5.342   3.391 -0.4524 -0.9077 -1.2472
  143MOL    H7042954   4.193   5.379   3.493 -1.3395 -0.6224 -0.0990
  143MOL    H7142955   4.345   5.110   3.492  1.9858  0.8809  0.8224
  143MOL    H7242956   3.914   5.130   3.630 -0.8257  1.4430  1.6286
  143MOL    H7342957   3.995   5.024   3.735 -1.5242 -1.2381 -3.2247
  143MOL    H7442958   3.997   5.204   3.915  1.1867  0.1078 -1.0102
  143MOL    H7542959   3.837   5.127   3.878 -0.9010  0.7016 -0.4560
  143MOL    H7642960   3.866   5.285   3.815  1.4173  0.8965  1.4420
  143MOL    C7742961   4.396   5.255   3.644 -0.1494 -0.9315 -0.4623
  143MOL    C7842962   4.531   5.301   3.572  0.0358 -0.5311  0.0706
  143MOL    C7942963   4.602   5.188   3.503 -0.8043 -0.7892  0.0535
  143MOL    O8042964   4.681   5.113   3.565  0.4477  0.1949 -0.3179
  143MOL    O8142965   4.585   5.191   3.372 -0.1540  0.0919  1.0400
  143MOL    C8242966   4.654   5.102   3.288  0.7246  0.2957  0.1351
  143MOL    C8342967   4.781   5.148   3.223  0.3092 -0.4917 -0.4799
  143MOL    H8442968   4.352   5.343   3.690 -1.5188 -1.8802  0.0631
  143MOL    H8542969   4.411   5.191   3.730  2.3117  0.6979  0.3723
  143MOL    H8642970   4.509   5.372   3.492  0.6783 -1.1513 -0.6611
  143MOL    H8742971   4.676   5.016   3.350 -0.8123 -0.7784 -0.7666
  143MOL    H8842972   4.581   5.067   3.215 -1.1766 -0.8540  2.5090
  143MOL    H8942973   4.812   5.056   3.175 -0.7560 -0.2809 -1.6099
  143MOL    H9042974   4.853   5.183   3.297 -0.6769  1.2265 -0.2920
  143MOL    H9142975   4.765   5.220   3.142 -1.5621  2.9185  2.7617
  143MOL    C9242976   4.628   5.392   3.651  0.1813 -0.1259 -0.6332
  143MOL    C9342977   4.659   5.344   3.795  0.1783  0.5829 -0.1734
  143MOL    C9442978   4.556   5.390   3.902 -0.0450  0.3560 -0.3298
  143MOL    O9542979   4.493   5.493   3.882 -0.5634 -0.5786 -0.6287
  143MOL    O9642980   4.541   5.312   4.011 -0.0957 -0.4685  0.0101
  143MOL    C9742981   4.425   5.333   4.097  0.9140 -0.1836 -0.2784
  143MOL    C9842982   4.433   5.247   4.223  0.2063  0.2708 -0.7387
  143MOL    H9942983   4.721   5.403   3.595  1.1904 -0.1504  1.0084
  143MOL   H10042984   4.595   5.496   3.644 -2.1423 -0.9016 -1.8670
  143MOL   H10142985   4.666   5.236   3.785  1.5900  0.3424  2.9014
  143MOL   H10242986   4.406   5.436   4.126 -3.7152 -1.5695  2.2018
  143MOL   H10342987   4.336   5.316   4.037  0.5640  0.9476 -0.0933
  143MOL   H10442988   4.521   5.284   4.276 -0.0672 -1.5154  0.9843
  143MOL   H10542989   4.461   5.146   4.196  0.8754  0.9123 -2.5442
  143MOL   H10642990   4.345   5.253   4.287  0.8974  0.4649  0.2056
  143MOL   C10742991   4.801   5.398   3.845  0.0389  0.2558  0.2221
  143MOL   C10842992   4.865   5.314   3.958  0.0616  0.2899  0.4303
  143MOL   C10942993   4.973   5.385   4.037 -0.0073 -0.0949 -0.2835
  143MOL   O11042994   5.040   5.479   3.994  0.4160  0.1495  0.2506
  143MOL   O11142995   4.981   5.336   4.161  0.5202  0.2311  0.2359
  143MOL   C11242996   5.080   5.368   4.258 -0.2817 -0.1169 -0.3909
  143MOL   C11342997   5.016   5.338   4.406  0.3232 -0.5637  0.8655
  143MOL   H11442998   4.860   5.392   3.753  0.3081 -0.6602  0.4542
  143MOL   H11542999   4.796   5.503   3.873 -0.7124  0.1364  0.5446
  143MOL   H11643000   4.788   5.281   4.028  0.9043 -1.6613  0.4829
  143MOL   H11743001   5.170   5.310   4.240  1.3101  1.2765  2.6380
  143MOL   H11843002   5.106   5.471   4.235  1.1315 -0.2245  0.6628
  143MOL   H11943003   5.027   5.231   4.424  1.6954 -0.9141 -1.7419
  143MOL   H12043004   4.915   5.377   4.418 -0.1056 -1.2553 -0.4589
  143MOL   H12143005   5.074   5.381   4.487 -0.7302  1.8715  0.3739
  143MOL   C12243006   4.925   5.191   3.888 -0.0420  0.0483  0.5376
  143MOL   C12343007   4.943   5.066   3.980  0.0800 -0.4851 -0.2117
  143MOL   C12443008   5.087   5.045   4.034 -0.1546 -0.3442 -0.1281
  143MOL   O12543009   5.113   5.037   4.155  0.1235  0.2054  0.2973
  143MOL   O12643010   5.185   5.049   3.942 -0.4960 -0.3599 -0.1588
  143MOL   C12743011   5.319   5.003   3.972  0.7360  0.4314 -0.3258
  143MOL   C12843012   5.329   4.848   3.948  0.0955  0.0023 -0.3945
  143MOL   H12943013   4.876   5.169   3.793  2.6101  0.3803 -0.9540
  143MOL   H13043014   5.018   5.226   3.843 -0.7232 -0.9110 -1.6803
  143MOL   H13143015   4.874   5.069   4.064 -0.3130 -1.4713 -0.4822
  143MOL   H13243016   5.385   5.055   3.902 -0.2124 -0.9305 -2.2527
  143MOL   H13343017   5.356   5.024   4.073  1.1651 -2.3582  0.1385
  143MOL   H13443018   5.435   4.824   3.946  0.6181  2.1245  0.7574
  143MOL   H13543019   5.303   4.823   3.845  0.3326 -1.0450 -0.2129
  143MOL   H13643020   5.267   4.792   4.018 -0.3613  0.6374 -0.2881
  143MOL   C13743021   4.909   4.936   3.902 -0.0481  0.5670 -0.7477
  143MOL   C13843022   4.876   4.820   4.002 -0.3041 -0.6390 -0.9124
  143MOL   C13943023   4.904   4.678   3.940 -1.2729  0.3599 -0.1962
  143MOL   O14043024   4.934   4.670   3.821 -0.3535  0.4735  0.0171
  143MOL   O14143025   4.915   4.585   4.031 -0.0571 -0.1575  0.1724
  143MOL   C14243026   4.921   4.448   3.990 -0.5470 -0.0728  0.3577
  143MOL   C14343027   4.812   4.353   4.029 -0.1872  0.2343 -0.0623
  143MOL   H14443028   4.824   4.945   3.834 -0.5504 -1.8060 -0.4754
  143MOL   H14543029   4.994   4.908   3.839  0.6902  1.0587  0.0250
  143MOL   H14643030   4.948   4.844   4.081 -1.0627  0.3624 -0.5214
  143MOL   H14743031   4.951   4.430   3.887 -0.0230  0.8052  0.3592
  143MOL   H14843032   5.012   4.404   4.031  0.3660  1.1681 -0.3239
  143MOL   H14943033   4.719   4.407   4.010  1.1681  2.8562  0.5779
  143MOL   H15043034   4.817   4.329   4.136  1.9747  0.7848 -0.0140
  143MOL   H15143035   4.816   4.256   3.980  0.5279  0.2874 -0.1174
  143MOL   C15243036   4.740   4.829   4.079  0.4380  0.5401 -1.0210
  143MOL   C15343037   4.617   4.777   4.007 -0.1093 -0.2047 -0.0996
  143MOL   C15443038   4.555   4.874   3.904 -0.1838  0.9952 -0.1243
  143MOL   O15543039   4.543   4.992   3.924 -0.2585 -0.7496 -0.2264
  143MOL   O15643040   4.533   4.809   3.777 -0.7694 -0.1965  0.5122
  143MOL   C15743041   4.469   4.886   3.672 -0.1721 -0.1995  0.3533
  143MOL   C15843042   4.522   4.830   3.535 -0.0724 -0.4371  0.7446
  143MOL   H15943043   4.750   4.760   4.163 -0.9967  0.4146 -0.9579
  143MOL   H16043044   4.717   4.924   4.127 -0.5692 -0.2132  0.0057
  143MOL   H16143045   4.646   4.691   3.946 -0.3072  0.1790 -0.7404
  143MOL   H16243046   4.360   4.879   3.683 -0.2031  0.8163  0.7657
  143MOL   H16343047   4.504   4.989   3.676 -1.6302  0.2596  1.9450
  143MOL   H16443048   4.496   4.728   3.506 -1.4317  0.5576 -1.6746
  143MOL   H16543049   4.631   4.831   3.527 -0.0131  0.6851  1.5318
  143MOL   H16643050   4.491   4.876   3.441 -1.2246 -1.2481  0.7172
  143MOL   C16743051   4.501   4.741   4.106 -0.1905  0.1914 -0.1124
  143MOL   C16843052   4.461   4.593   4.128 -0.4986  0.2804 -0.7438
  143MOL   C16943053   4.405   4.519   4.008  0.1657  0.3081 -0.5152
  143MOL   O17043054   4.474   4.431   3.957 -0.5463 -0.0414  0.1167
  143MOL   O17143055   4.279   4.552   3.970  0.5065 -0.0114 -0.0449
  143MOL   C17243056   4.217   4.469   3.866  0.1946  0.5351 -0.1144
  143MOL   C17343057   4.164   4.545   3.745 -0.0628 -0.3232  0.0858
  143MOL   H17443058   4.523   4.799   4.196 -1.6601  0.2929  0.1987
  143MOL   H17543059   4.407   4.789   4.080  0.5126  1.1829 -0.8389
  143MOL   H17643060   4.557   4.542   4.140 -1.3222 -1.6755 -2.1993
  143MOL   H17743061   4.284   4.392   3.830 -0.9572 -0.0889 -0.9242
  143MOL   H17843062   4.137   4.410   3.910 -0.9908  1.1775 -1.3773
  143MOL   H17943063   4.108   4.636   3.768  1.4280  0.3036  1.3412
  143MOL   H18043064   4.114   4.479   3.675 -2.4159 -0.1699  1.5718
  143MOL   H18143065   4.248   4.588   3.691 -2.4654 -0.3903 -3.8362
  143MOL   C18243066   4.383   4.582   4.258  0.4149  0.2179 -0.0112
  143MOL   C18343067   4.461   4.595   4.385 -0.1773 -0.2736  0.4961
  143MOL   C18443068   4.557   4.471   4.399  0.1885 -0.6020  0.1239
  143MOL   O18543069   4.677   4.481   4.393  0.4183  0.5770  0.2291
  143MOL   O18643070   4.494   4.353   4.425 -0.0018  0.5537  0.1374
  143MOL   C18743071   4.573   4.246   4.477  0.0453  0.1855  0.2007
  143MOL   C18843072   4.483   4.131   4.518  0.9918 -0.3395  0.0822
  143MOL   H18943073   4.301   4.653   4.245  0.8281  0.6703 -0.1754
  143MOL   H19043074   4.330   4.488   4.268  0.3416  0.1733 -0.8475
  143MOL   H19143075   4.531   4.678   4.382  1.7299 -1.8889 -0.6875
  143MOL   H19243076   4.655   4.210   4.415  0.0623 -1.6566  1.2642
  143MOL   H19343077   4.633   4.285   4.559  1.2868  1.5832 -1.3496
  143MOL   H19443078   4.419   4.173   4.594 -0.5739  0.6374 -1.7362
  143MOL   H19543079   4.538   4.044   4.556 -0.1290 -1.6926 -1.3116
  143MOL   H19643080   4.424   4.104   4.431  1.3739 -0.3391 -0.1807
  143MOL   C19743081   4.371   4.612   4.507  0.3642  0.0130 -0.5811
  143MOL   C19843082   4.425   4.698   4.623 -0.4496  0.3173 -0.2216
  143MOL   C19943083   4.518   4.622   4.722 -0.0377 -0.3320 -0.2950
  143MOL   O20043084   4.624   4.671   4.755  0.4539 -0.0360 -0.6509
  143MOL   O20143085   4.464   4.519   4.777 -0.5002 -0.3853  0.9885
  143MOL   C20243086   4.544   4.424   4.851 -0.8638  0.2114 -0.1062
  143MOL   C20343087   4.440   4.353   4.933 -0.1033  0.5464 -0.0378
  143MOL   H20443088   4.271   4.643   4.479  1.5012  1.4235 -3.2538
  143MOL   H20543089   4.344   4.515   4.549  0.2630  0.1404 -0.3564
  143MOL   H20643090   4.493   4.764   4.570  0.0202 -1.1452 -1.4803
  143MOL   H20743091   4.595   4.356   4.783  1.2593  1.2570  0.3840
  143MOL   H20843092   4.615   4.461   4.925 -1.9619  0.5212  0.8003
  143MOL   H20943093   4.391   4.412   5.010  0.0050  0.4478  0.1076
  143MOL   H21043094   4.493   4.278   4.991 -0.3925 -0.1475 -0.6551
  143MOL   H21143095   4.367   4.296   4.875 -0.6223  0.5190  0.6383
  143MOL   C21243096   4.318   4.779   4.696  0.3545 -0.1853 -0.0732
  143MOL   C21343097   4.350   4.874   4.808 -0.3239  0.4310  0.7488
  143MOL   C21443098   4.229   4.926   4.875 -0.6046  0.4107 -0.2034
  143MOL   O21543099   4.187   5.040   4.848  1.3464 -0.3014 -0.1445
  143MOL   O21643100   4.177   4.839   4.959  0.2521 -0.8081  0.5511
  143MOL   C21743101   4.095   4.897   5.068 -0.4801  0.2464  1.1138
  143MOL   C21843102   4.071   4.794   5.178  0.2099  0.5500  0.0879
  143MOL   H21943103   4.259   4.822   4.615 -0.3067  1.1415  1.1002
  143MOL   H22043104   4.248   4.711   4.744  1.9083 -1.4727  0.4013
  143MOL   H22143105   4.408   4.824   4.885  1.0171 -1.1807 -1.2518
  143MOL   H22243106   4.140   4.980   5.122 -0.9960  0.6592  0.9135
  143MOL   H22343107   4.005   4.935   5.020 -0.1339 -0.3496 -0.0233
  143MOL   H22443108   3.968   4.816   5.206  0.4590  1.5293  0.2573
  143MOL   H22543109   4.135   4.809   5.265  0.6886 -0.3561 -0.1023
  143MOL   H22643110   4.071   4.689   5.150 -1.6032  0.7821 -0.8850
  143MOL   C22743111   4.457   4.984   4.774  0.2467  0.1380 -0.0161
  143MOL   C22843112   4.454   5.052   4.635  0.1712 -0.6768  0.3764
  143MOL   C22943113   4.550   5.014   4.517  0.5342 -0.2958  0.1558
  143MOL   O23043114   4.509   4.960   4.418  0.4118 -0.3675  0.0561
  143MOL   O23143115   4.683   5.047   4.540  0.2387 -0.0317 -0.1261
  143MOL   C23243116   4.773   5.023   4.433 -0.3033 -0.4223 -0.1812
  143MOL   C23343117   4.833   4.888   4.452 -0.4131 -0.2065  0.1337
  143MOL   H23443118   4.444   5.066   4.846  0.1652 -0.5157  0.7218
  143MOL   H23543119   4.559   4.949   4.788  0.6611  0.9398 -1.0002
  143MOL   H23643120   4.359   5.014   4.597  0.4033 -0.2842 -0.6050
  143MOL   H23743121   4.721   5.012   4.338 -1.0073  0.6974  0.0750
  143MOL   H23843122   4.842   5.106   4.420 -2.7981  1.6686 -0.4686
  143MOL   H23943123   4.889   4.850   4.367  1.0230  0.4001  0.7920
  143MOL   H24043124   4.749   4.824   4.479  2.1151 -3.3369  0.8818
  143MOL   H24143125   4.903   4.891   4.536 -0.3219 -0.3543  0.0629
  143MOL   C24243126   4.426   5.208   4.639 -0.6840  0.3904  0.3029
  143MOL   C24343127   4.546   5.311   4.632  0.3314  0.2700  0.9101
  143MOL   C24443128   4.647   5.308   4.754  0.3953 -0.4390 -0.4153
  143MOL   O24543129   4.607   5.262   4.865 -0.4913  0.0550 -0.3066
  143MOL   O24643130   4.766   5.362   4.732 -0.0132 -0.5094  0.7894
  143MOL   C24743131   4.862   5.359   4.835 -0.0400 -0.3722  0.2105
  143MOL   C24843132   4.988   5.418   4.778  0.0182  0.0796 -0.1332
  143MOL   H24943133   4.381   5.220   4.541 -2.6047  0.8266  1.2139
  143MOL   H25043134   4.358   5.229   4.721  1.1044  2.1245  1.3886
  143MOL   H25143135   4.611   5.294   4.546 -1.6337 -0.6935 -0.4117
  143MOL   H25243136   4.840   5.413   4.928  1.7014  2.9798 -1.2300
  143MOL   H25343137   4.879   5.257   4.868  1.5805 -0.5766 -1.1821
  143MOL   H25443138   4.961   5.518   4.745  0.5088 -0.1576 -1.2878
  143MOL   H25543139   5.034   5.365   4.695 -0.6425 -1.1495  0.2761
  143MOL   H25643140   5.071   5.423   4.849  2.3304 -4.0879 -2.3485
  143MOL   C25743141   4.491   5.451   4.634  0.7925 -0.0200  0.5781
  143MOL   C25843142   4.586   5.560   4.568  0.0624  0.5762  0.1244
  143MOL   C25943143   4.629   5.671   4.663  0.1595 -0.3359 -0.2433
  143MOL   O26043144   4.750   5.695   4.681  0.1594 -0.2232 -0.2364
  143MOL   O26143145   4.525   5.728   4.735  0.2724 -0.6232  0.3824
  143MOL   C26243146   4.558   5.813   4.852 -0.4508  0.2043  0.1923
  143MOL   C26343147   4.504   5.744   4.976  0.0033  1.0383 -0.3265
  143MOL   H26443148   4.393   5.454   4.586  0.7942  2.5400  0.6565
  143MOL   H26543149   4.470   5.479   4.737 -3.8007  0.4979 -0.3811
  143MOL   H26643150   4.676   5.507   4.538 -0.5509 -0.5315  0.2095
  143MOL   H26743151   4.666   5.822   4.860 -0.3190 -1.4561  0.4068
  143MOL   H26843152   4.505   5.909   4.855 -0.3990  0.2423 -0.1226
  143MOL   H26943153   4.525   5.799   5.068 -0.0600  0.6810 -0.0988
  143MOL   H27043154   4.547   5.646   4.995 -0.9270  0.4415 -1.2624
  143MOL   H27143155   4.399   5.724   4.957  0.0667 -1.9020  2.0709
  143MOL   C27243156   4.515   5.609   4.442  0.1907  0.8350  0.0871
  143MOL   C27343157   4.602   5.696   4.342  0.0156 -0.4749  0.2739
  143MOL   C27443158   4.510   5.795   4.263  0.3911  0.1742 -0.5007
  143MOL   O27543159   4.494   5.905   4.306  0.3211 -0.9681 -0.5424
  143MOL   O27643160   4.449   5.745   4.158 -0.7054 -0.1171  0.1181
  143MOL   C27743161   4.372   5.834   4.085 -0.5001 -0.4679  0.6178
  143MOL   C27843162   4.430   5.840   3.945 -0.0049 -0.7745 -0.2873
  143MOL   H27943163   4.469   5.524   4.391  1.1235  1.0536 -1.1387
  143MOL   H28043164   4.428   5.660   4.484  1.3277  0.5356  2.9609
  143MOL   H28143165   4.662   5.766   4.399 -0.6798  2.2204 -2.2209
  143MOL   H28243166   4.276   5.785   4.066  0.7282 -3.3233  1.4820
  143MOL   H28343167   4.359   5.935   4.124  0.8286  0.8833 -2.3102
  143MOL   H28443168   4.390   5.928   3.896 -1.7581 -0.8701  0.9104
  143MOL   H28543169   4.427   5.748   3.887  1.0905 -1.2140  0.3432
  143MOL   H28643170   4.536   5.867   3.948  0.3498 -1.8111 -2.6965
  143MOL   C28743171   4.678   5.601   4.249  0.2503  0.5712 -0.5647
  143MOL   C28843172   4.754   5.673   4.132 -0.0934  0.0427  0.7338
  143MOL   C28943173   4.846   5.785   4.185 -0.2551 -0.4089  0.2275
  143MOL   O29043174   4.823   5.899   4.159  0.0957  0.0475 -0.1287
  143MOL   O29143175   4.946   5.737   4.256 -0.1512 -0.2135 -0.3704
  143MOL   C29243176   5.046   5.817   4.322 -0.0891 -0.5069 -0.2871
  143MOL   C29343177   5.139   5.725   4.400 -0.2341 -0.5515  0.1184
  143MOL   H29443178   4.753   5.545   4.304  1.7435  1.3567 -1.7723
  143MOL   H29543179   4.605   5.535   4.202  0.6982  0.5289 -1.1981
  143MOL   H29643180   4.810   5.602   4.071  0.5424  1.6904 -0.6462
  143MOL   H29743181   5.098   5.881   4.251  0.8064 -1.5418 -0.5668
  143MOL   H29843182   5.005   5.889   4.393 -1.5799  0.3030 -1.9184
  143MOL   H29943183   5.089   5.651   4.462  0.7002 -0.9893  0.3646
  143MOL   H30043184   5.196   5.789   4.467  0.9682 -0.3696 -1.0380
  143MOL   H30143185   5.210   5.676   4.333  4.3274  2.6535  2.3242
  143MOL   H30243186   4.685   5.734   4.074 -1.9106 -0.3335  2.4594
  144MOL     C143187   5.286   4.538   4.294 -0.7721  0.5786 -0.3648
  144MOL     C243188   5.444   4.566   4.304 -0.9835  0.1914  0.3041
  144MOL     C343189   5.499   4.540   4.438 -0.3132 -0.3735  0.1667
  144MOL     O443190   5.561   4.437   4.470  0.0813 -0.1271 -0.1941
  144MOL     O543191   5.462   4.636   4.524  0.7916 -0.3740 -0.3438
  144MOL     C643192   5.466   4.614   4.664 -1.2289  0.1017  0.3166
  144MOL     C743193   5.534   4.730   4.746 -0.2600  0.2421  0.2183
  144MOL     H843194   5.280   4.472   4.208 -0.1805  0.2024 -0.1188
  144MOL     H943195   5.225   4.627   4.275  3.0412  3.0635 -1.4929
  144MOL    H1043196   5.494   4.483   4.253  1.8135  1.8881  0.1448
  144MOL    H1143197   5.365   4.600   4.704 -0.7731  1.6127  2.0412
  144MOL    H1243198   5.518   4.521   4.688  1.6563  0.9152 -2.4822
  144MOL    H1343199   5.481   4.818   4.710  2.1094  1.5131 -0.2170
  144MOL    H1443200   5.641   4.725   4.725 -0.2329 -2.3914  0.7977
  144MOL    H1543201   5.516   4.725   4.853 -1.3156  0.5360  0.0556
  144MOL    H1643202   5.254   4.475   4.377  0.9530 -2.4033 -1.8920
  144MOL    C1743203   5.498   4.691   4.229  0.3667  0.1315  0.5054
  144MOL    C1843204   5.651   4.700   4.207  0.1783 -0.4080  0.8491
  144MOL    C1943205   5.694   4.835   4.148  0.6643  0.2464 -0.8123
  144MOL    O2043206   5.624   4.904   4.076 -0.2093 -0.1856  0.3058
  144MOL    O2143207   5.826   4.862   4.175  0.1101  0.0010 -0.2844
  144MOL    C2243208   5.878   4.986   4.137  0.0984 -0.5009  0.1512
  144MOL    C2343209   6.034   4.976   4.138  0.1472 -0.2230  0.2461
  144MOL    H2443210   5.457   4.689   4.128  2.1580 -0.4523 -0.2264
  144MOL    H2543211   5.457   4.777   4.281 -1.6532 -1.5354  1.7610
  144MOL    H2643212   5.679   4.694   4.312 -1.2927  0.1515  1.2827
  144MOL    H2743213   5.848   5.005   4.034  1.7380 -0.8054 -0.4125
  144MOL    H2843214   5.842   5.054   4.215  1.3471 -1.6917  1.8011
  144MOL    H2943215   6.085   4.951   4.230  0.6844 -1.2158 -0.3177
  144MOL    H3043216   6.074   5.072   4.104 -0.8428 -0.2125 -0.9454
  144MOL    H3143217   6.069   4.904   4.064  2.3481  1.5038 -0.4441
  144MOL    C3243218   5.713   4.584   4.112 -0.5619 -0.3916  0.1260
  144MOL    C3343219   5.803   4.489   4.195 -0.6283  0.3621  0.2016
  144MOL    C3443220   5.938   4.561   4.211  0.4885 -0.2397  0.0516
  144MOL    O3543221   5.963   4.633   4.310  0.4474 -0.6054  0.5687
  144MOL    O3643222   6.026   4.548   4.102 -0.3281 -1.2055 -0.0507
  144MOL    C3743223   6.157   4.604   4.110 -0.1372 -0.3575  0.9540
  144MOL    C3843224   6.269   4.498   4.099  0.3179 -0.0920  0.2478
  144MOL    H3943225   5.630   4.525   4.075 -0.5118 -0.7921  0.6448
  144MOL    H4043226   5.765   4.608   4.019  0.5274 -0.5396  0.6824
  144MOL    H4143227   5.760   4.483   4.295 -1.4901 -0.8403 -0.2380
  144MOL    H4243228   6.165   4.672   4.025 -1.9431 -0.2917  0.8192
  144MOL    H4343229   6.182   4.668   4.195  2.0976  1.0273 -0.6721
  144MOL    H4443230   6.362   4.555   4.086  1.4610 -1.6742  1.3270
  144MOL    H4543231   6.254   4.428   4.017 -0.5762  1.1050 -0.6201
  144MOL    H4643232   6.287   4.445   4.192 -1.0041 -1.3322 -0.2012
  144MOL    C4743233   5.819   4.345   4.152 -0.6054  0.0379 -0.2667
  144MOL    C4843234   5.880   4.240   4.252 -0.0768  0.3212 -0.2454
  144MOL    C4943235   6.029   4.209   4.223  0.3022  0.5969 -0.1280
  144MOL    O5043236   6.115   4.212   4.315  0.2152 -0.6217  0.5798
  144MOL    O5143237   6.055   4.169   4.090  0.7340 -0.6460  0.2206
  144MOL    C5243238   6.192   4.146   4.059 -0.1771  0.4248 -0.2952
  144MOL    C5343239   6.234   3.998   4.093 -0.0162  0.0300 -0.2451
  144MOL    H5443240   5.718   4.309   4.132 -1.3390  1.3109  1.0448
  144MOL    H5543241   5.878   4.344   4.060 -1.2475  1.0721 -0.7053
  144MOL    H5643242   5.874   4.286   4.350  0.6754 -0.2464  0.0735
  144MOL    H5743243   6.210   4.182   3.958 -1.1272  0.3231 -0.5055
  144MOL    H5843244   6.263   4.202   4.120  1.4406 -1.5919 -0.2688
  144MOL    H5943245   6.235   3.968   4.198  1.2869  0.6804 -0.0617
  144MOL    H6043246   6.337   3.991   4.056  0.2720  0.6037  0.4417
  144MOL    H6143247   6.170   3.926   4.042  0.7101 -0.5161 -0.4023
  144MOL    C6243248   5.795   4.103   4.231 -0.3957  0.2453 -1.1827
  144MOL    C6343249   5.839   3.998   4.332 -0.2701  0.6586 -0.1326
  144MOL    C6443250   5.807   3.855   4.286  0.4522 -0.0294 -0.0505
  144MOL    O6543251   5.895   3.788   4.236 -0.0207  0.3725  0.2114
  144MOL    O6643252   5.680   3.821   4.305  0.2477 -0.1378  0.1956
  144MOL    C6743253   5.645   3.685   4.287  0.1042 -0.0988 -0.4181
  144MOL    C6843254   5.637   3.610   4.421 -0.2354 -0.5266 -0.0043
  144MOL    H6943255   5.689   4.126   4.233 -0.0578  1.8185  1.5021
  144MOL    H7043256   5.814   4.061   4.132  0.2171 -3.0261  0.2560
  144MOL    H7143257   5.946   3.998   4.349 -0.6075  3.5931  2.5312
  144MOL    H7243258   5.545   3.692   4.246 -0.5896 -0.7686  1.1115
  144MOL    H7343259   5.690   3.629   4.205  1.2141  0.4502 -0.1926
  144MOL    H7443260   5.726   3.547   4.431  0.1807  0.1372  0.4940
  144MOL    H7543261   5.546   3.550   4.419 -0.3696 -0.3146 -1.9854
  144MOL    H7643262   5.630   3.668   4.513 -1.4638  0.5564 -0.7590
  144MOL    C7743263   5.778   4.022   4.477  0.1483  0.2415 -0.2875
  144MOL    C7843264   5.862   3.949   4.590 -0.1758 -0.0857 -0.4343
  144MOL    C7943265   5.774   3.910   4.707 -0.0082 -1.2765  0.5733
  144MOL    O8043266   5.710   3.985   4.772 -0.2468  0.7019  0.7088
  144MOL    O8143267   5.798   3.783   4.734  0.5456 -0.0241 -0.1213
  144MOL    C8243268   5.782   3.726   4.867  0.8406  0.1383 -0.2372
  144MOL    C8343269   5.642   3.670   4.878 -0.0600 -0.6441  0.3512
  144MOL    H8443270   5.774   4.130   4.494 -0.8702 -0.2023  2.5076
  144MOL    H8543271   5.673   3.993   4.482 -0.5921  2.3221 -2.3425
  144MOL    H8643272   5.891   3.862   4.532  0.4599  0.8882 -1.6014
  144MOL    H8743273   5.858   3.647   4.872 -1.3734 -2.0145  0.5917
  144MOL    H8843274   5.811   3.795   4.945 -4.0592 -0.8641  2.6678
  144MOL    H8943275   5.626   3.598   4.797 -0.5972 -0.4335  0.2697
  144MOL    H9043276   5.556   3.737   4.870  0.8676  0.6503  1.0797
  144MOL    H9143277   5.625   3.602   4.962  0.5794 -1.6289 -0.3116
  144MOL    C9243278   5.976   4.039   4.641 -0.0328 -0.2582 -0.7971
  144MOL    C9343279   6.076   3.987   4.749 -0.1308  0.7058 -0.0027
  144MOL    C9443280   6.164   4.109   4.801 -0.1403 -0.4539 -0.5841
  144MOL    O9543281   6.174   4.125   4.922  0.1375  0.2152 -0.5941
  144MOL    O9643282   6.217   4.175   4.702 -0.2254  0.6319 -0.0405
  144MOL    C9743283   6.273   4.304   4.723  0.2261  0.4200 -0.5307
  144MOL    C9843284   6.178   4.416   4.677 -0.0371  0.1983  0.9048
  144MOL    H9943285   6.039   4.062   4.555  1.5138 -0.8165  0.1505
  144MOL   H10043286   5.926   4.127   4.681  0.5825 -0.8032  1.2428
  144MOL   H10143287   6.006   3.947   4.823 -0.0832 -1.8555 -1.2526
  144MOL   H10243288   6.304   4.321   4.826 -1.0969  1.3536 -0.2778
  144MOL   H10343289   6.365   4.307   4.665 -0.3065  0.7197 -1.3659
  144MOL   H10443290   6.155   4.424   4.571 -2.1105 -1.3296  1.2090
  144MOL   H10543291   6.236   4.507   4.688 -1.0647  0.9330  0.3153
  144MOL   H10643292   6.087   4.410   4.737 -0.6715 -0.5050 -0.1176
  144MOL   C10743293   6.171   3.878   4.693 -1.1273  0.0902 -0.4618
  144MOL   C10843294   6.264   3.825   4.793  0.8497 -0.0263  0.0017
  144MOL   C10943295   6.364   3.725   4.730 -0.4004  0.3377 -0.3067
  144MOL   O11043296   6.344   3.601   4.739 -0.5108 -0.0420 -0.0984
  144MOL   O11143297   6.475   3.779   4.668  0.3926  0.0791  0.4657
  144MOL   C11243298   6.579   3.697   4.620 -0.1171 -0.1710  0.1352
  144MOL   C11343299   6.708   3.701   4.702  0.3157 -1.3664 -0.2421
  144MOL   H11443300   6.110   3.796   4.656  0.8498 -1.2337 -0.8850
  144MOL   H11543301   6.215   3.923   4.604 -0.4143  0.3116  0.0004
  144MOL   H11643302   6.328   3.906   4.828 -0.6869  2.4760 -2.8044
  144MOL   H11743303   6.541   3.602   4.583 -2.5100  0.0955  1.7638
  144MOL   H11843304   6.606   3.745   4.526 -0.7447 -1.7595 -0.8673
  144MOL   H11943305   6.688   3.748   4.798  0.8055 -0.5598 -0.5285
  144MOL   H12043306   6.786   3.759   4.653 -0.7134  0.6162  0.3744
  144MOL   H12143307   6.732   3.602   4.739 -0.7384 -1.4006  0.3706
  144MOL   C12243308   6.194   3.783   4.929  0.0032  0.3414  0.7250
  144MOL   C12343309   6.291   3.743   5.039 -0.0616 -0.2108  0.6059
  144MOL   C12443310   6.205   3.678   5.156 -0.3537  0.0961 -0.0667
  144MOL   O12543311   6.209   3.556   5.181  0.1678  0.0537 -0.0774
  144MOL   O12643312   6.132   3.773   5.226 -0.0920 -0.7097 -0.1755
  144MOL   C12743313   6.040   3.737   5.332 -0.2665  0.4925  0.2448
  144MOL   C12843314   6.064   3.851   5.426  0.2965  0.2937 -0.0041
  144MOL   H12943315   6.123   3.857   4.965 -1.0043  0.0579 -0.6308
  144MOL   H13043316   6.129   3.699   4.904 -1.9242  2.1337 -0.4561
  144MOL   H13143317   6.357   3.663   5.003 -1.1007 -0.9441  0.2895
  144MOL   H13243318   5.937   3.726   5.298 -0.1089  0.4095 -0.2123
  144MOL   H13343319   6.062   3.644   5.385 -1.6197 -1.1263 -1.8970
  144MOL   H13443320   5.998   3.840   5.512  1.0586 -1.3407  0.3995
  144MOL   H13543321   6.039   3.945   5.378 -0.3579  0.7765  1.2748
  144MOL   H13643322   6.170   3.842   5.449  0.3439 -1.7870 -0.8649
  144MOL   C13743323   6.368   3.857   5.097 -0.3188 -0.0969  0.1688
  144MOL   C13843324   6.507   3.869   5.030  0.2615 -0.1302 -0.4056
  144MOL   C13943325   6.604   3.762   5.084  0.2872 -0.5704 -0.1848
  144MOL   O14043326   6.724   3.758   5.047 -0.0024  0.4288 -0.3704
  144MOL   O14143327   6.549   3.685   5.178 -0.1818 -0.0412 -0.8782
  144MOL   C14243328   6.620   3.587   5.259 -0.0250  0.1059 -0.1525
  144MOL   C14343329   6.547   3.467   5.309  0.2948 -0.6867 -0.0528
  144MOL   H14443330   6.331   3.956   5.069  0.1774 -0.0638 -0.3919
  144MOL   H14543331   6.381   3.842   5.204 -0.6215  1.3750  0.4199
  144MOL   H14643332   6.498   3.852   4.923 -0.4320  2.6785 -0.8224
  144MOL   H14743333   6.719   3.574   5.216 -0.2158  1.4582 -1.0215
  144MOL   H14843334   6.637   3.646   5.349  1.6635 -0.6999  0.0706
  144MOL   H14943335   6.455   3.495   5.361  0.5163 -0.9218  0.4688
  144MOL   H15043336   6.604   3.420   5.389  0.9346 -0.1685 -0.2053
  144MOL   H15143337   6.524   3.392   5.233  2.7805 -2.4797  0.8802
  144MOL   C15243338   6.563   4.009   5.046 -0.3784  0.4964 -0.5551
  144MOL   C15343339   6.522   4.107   4.928 -0.1164 -0.1177 -0.1015
  144MOL   C15443340   6.582   4.068   4.796 -0.4368 -0.5247 -0.6441
  144MOL   O15543341   6.689   4.011   4.790  0.2750  0.3180 -0.0288
  144MOL   O15643342   6.507   4.104   4.691 -0.2429 -0.0916  0.1624
  144MOL   C15743343   6.555   4.080   4.561 -0.4343 -0.0623  0.6046
  144MOL   C15843344   6.457   4.104   4.440 -0.3661 -0.1276 -0.1092
  144MOL   H15943345   6.545   4.063   5.139 -0.2864 -0.9140  0.2997
  144MOL   H16043346   6.671   3.992   5.040 -0.5477 -0.3635 -1.3281
  144MOL   H16143347   6.413   4.111   4.927 -0.0843  1.1133  0.3083
  144MOL   H16243348   6.645   4.140   4.550 -1.1812  0.8877 -0.4656
  144MOL   H16343349   6.602   3.982   4.554 -1.9920 -0.8086  0.3543
  144MOL   H16443350   6.426   4.207   4.456 -0.7505 -0.1457 -0.7404
  144MOL   H16543351   6.379   4.028   4.438 -1.9363  1.4543  0.2696
  144MOL   H16643352   6.507   4.098   4.344  0.1098  0.7136  0.0782
  144MOL   C16743353   6.564   4.253   4.949  0.7576 -0.7836  0.1585
  144MOL   C16843354   6.715   4.268   4.984 -0.8333 -0.2449  0.4091
  144MOL   C16943355   6.753   4.258   5.136 -0.3160 -0.3801 -0.5404
  144MOL   O17043356   6.852   4.195   5.177  0.3048 -0.1344  0.2686
  144MOL   O17143357   6.676   4.325   5.221  0.0018  0.7120 -0.0609
  144MOL   C17243358   6.726   4.362   5.352  0.0424  0.0550  0.3540
  144MOL   C17343359   6.610   4.437   5.422  0.1257  0.3671  0.4929
  144MOL   H17443360   6.529   4.316   4.868  2.1329  0.7045  0.6936
  144MOL   H17543361   6.506   4.290   5.034  0.8513  0.8479 -0.4687
  144MOL   H17643362   6.764   4.182   4.938 -0.0167  0.9383 -0.9527
  144MOL   H17743363   6.756   4.279   5.416  0.0145 -0.9618 -0.9373
  144MOL   H17843364   6.811   4.429   5.343 -0.7881  1.1239  0.4476
  144MOL   H17943365   6.646   4.480   5.515 -0.2488  1.5026  0.1211
  144MOL   H18043366   6.523   4.372   5.436  1.0621 -1.4764 -1.8989
  144MOL   H18143367   6.584   4.525   5.363  0.8852  0.4298  0.2542
  144MOL   C18243368   6.783   4.388   4.917  0.3073  0.1858  0.8562
  144MOL   C18343369   6.819   4.367   4.769  0.4697 -0.7389 -0.4466
  144MOL   C18443370   6.928   4.263   4.746  0.0218 -0.1831  0.1720
  144MOL   O18543371   7.040   4.264   4.806  1.0824 -0.3805  0.6051
  144MOL   O18643372   6.880   4.179   4.653 -0.2229  0.3815 -0.1288
  144MOL   C18743373   6.961   4.078   4.598  0.1969  0.4451 -0.1116
  144MOL   C18843374   7.060   4.114   4.489 -0.0880  0.4876  0.1426
  144MOL   H18943375   6.715   4.472   4.929  0.1525  0.1857 -0.0194
  144MOL   H19043376   6.869   4.413   4.979  0.0427 -0.3259  1.4393
  144MOL   H19143377   6.729   4.327   4.721 -1.3927  2.8639 -0.1054
  144MOL   H19243378   7.009   4.026   4.681  0.3147 -0.3581 -0.6764
  144MOL   H19343379   6.892   4.000   4.566 -0.5034  1.0090  0.0316
  144MOL   H19443380   7.105   4.021   4.455 -0.7724 -1.0291  3.1842
  144MOL   H19543381   7.137   4.185   4.520 -0.9167  2.0212 -1.2381
  144MOL   H19643382   7.002   4.152   4.405  1.1161  0.2333 -0.8245
  144MOL   C19743383   6.860   4.501   4.706 -0.2324 -0.7147  0.2352
  144MOL   C19843384   6.735   4.589   4.678 -0.0434  0.4075  0.3929
  144MOL   C19943385   6.650   4.531   4.565 -0.4007 -0.0746  0.8165
  144MOL   O20043386   6.526   4.526   4.580 -0.1808  0.0373 -0.0478
  144MOL   O20143387   6.717   4.486   4.459 -0.4956 -0.6842  0.3558
  144MOL   C20243388   6.653   4.414   4.349  0.0586  0.1839  1.0924
  144MOL   C20343389   6.759   4.318   4.284  0.0291  0.0790  0.3969
  144MOL   H20443390   6.938   4.545   4.768  0.6379 -1.5525 -0.2394
  144MOL   H20543391   6.903   4.480   4.608 -1.5018  1.3353 -0.7974
  144MOL   H20643392   6.676   4.574   4.769 -0.8641  0.6016 -0.0954
  144MOL   H20743393   6.574   4.355   4.396 -1.1988  0.3480 -0.7557
  144MOL   H20843394   6.614   4.471   4.265  0.2253  0.1985  1.0244
  144MOL   H20943395   6.851   4.374   4.267 -0.1634  0.3910  0.3794
  144MOL   H21043396   6.718   4.267   4.196 -2.1328  0.6297  1.0616
  144MOL   H21143397   6.783   4.236   4.351 -2.3673 -0.7285  0.3239
  144MOL   C21243398   6.761   4.740   4.657  0.5813  0.0600  0.3161
  144MOL   C21343399   6.858   4.780   4.551  0.1778 -0.1514  0.2344
  144MOL   C21443400   6.981   4.861   4.594  0.5091  0.3418 -1.3204
  144MOL   O21543401   7.097   4.835   4.566  0.5899  0.7078 -0.1986
  144MOL   O21643402   6.952   4.964   4.669  0.0935  0.3656 -0.0374
  144MOL   C21743403   7.056   5.054   4.712 -0.2836 -0.0103  0.2178
  144MOL   C21843404   6.978   5.186   4.745  0.1573 -0.0485  0.6945
  144MOL   H21943405   6.671   4.794   4.629  0.7385  0.3354  0.3382
  144MOL   H22043406   6.782   4.780   4.756 -0.1303 -0.9828  0.8968
  144MOL   H22143407   6.890   4.690   4.499 -0.1487  0.6475 -1.3538
  144MOL   H22243408   7.102   5.008   4.800  0.4014  0.6318  0.2064
  144MOL   H22343409   7.130   5.072   4.634 -0.7677  0.2824 -0.1768
  144MOL   H22443410   7.038   5.274   4.770 -0.2811  0.4869 -0.1191
  144MOL   H22543411   6.927   5.182   4.841 -1.1215  1.0456  0.0843
  144MOL   H22643412   6.911   5.211   4.663  2.5716  0.9245 -1.0509
  144MOL   C22743413   6.790   4.854   4.426  0.2318 -0.3320 -0.6761
  144MOL   C22843414   6.876   4.867   4.301 -0.1195 -0.1166 -0.0393
  144MOL   C22943415   6.892   5.015   4.261  0.1690  0.3462 -0.0051
  144MOL   O23043416   6.841   5.058   4.160 -0.1845 -0.1417 -0.0233
  144MOL   O23143417   6.966   5.083   4.352 -0.3920  1.1461 -0.0801
  144MOL   C23243418   6.976   5.219   4.326  0.9265  0.2915 -0.1211
  144MOL   C23343419   7.087   5.256   4.234 -0.0083  0.6654 -0.0085
  144MOL   H23443420   6.697   4.807   4.396 -0.7916  1.0797  0.1769
  144MOL   H23543421   6.747   4.950   4.456 -0.7799 -0.9664 -0.0630
  144MOL   H23643422   6.977   4.838   4.329 -0.2113  1.1143  1.6711
  144MOL   H23743423   6.881   5.265   4.298  2.8476  3.4106 -1.7037
  144MOL   H23843424   6.999   5.271   4.419  3.5603  0.8224 -1.0485
  144MOL   H23943425   7.103   5.363   4.247 -0.0542  0.5301  1.2814
  144MOL   H24043426   7.037   5.229   4.141  0.2806 -1.1494  0.3455
  144MOL   H24143427   7.175   5.192   4.242  0.2388  0.9618 -0.3670
  144MOL   C24243428   6.839   4.771   4.190  0.1240 -0.4427 -0.2486
  144MOL   C24343429   6.938   4.751   4.071 -0.9881 -0.1607 -0.1095
  144MOL   C24443430   6.886   4.643   3.974 -1.0307 -0.6823  0.6815
  144MOL   O24543431   6.848   4.674   3.858  0.2193  0.2614 -0.0583
  144MOL   O24643432   6.877   4.519   4.037 -0.3870  0.0115  0.1176
  144MOL   C24743433   6.822   4.412   3.963  0.2222  0.8243  0.5284
  144MOL   C24843434   6.670   4.420   3.941  1.0445 -0.0727 -0.1486
  144MOL   H24943435   6.807   4.674   4.227  2.7012 -1.3735 -0.3235
  144MOL   H25043436   6.752   4.824   4.151  0.1458  2.2012  3.1363
  144MOL   H25143437   6.940   4.839   4.007 -2.6673 -1.7816 -2.4808
  144MOL   H25243438   6.878   4.405   3.870  0.0238  0.2143  0.4482
  144MOL   H25343439   6.849   4.319   4.014 -0.6352  0.8054  0.9538
  144MOL   H25443440   6.625   4.451   4.034 -0.7944 -0.0281 -1.0416
  144MOL   H25543441   6.633   4.326   3.898 -0.9753  0.3289  0.6748
  144MOL   H25643442   6.633   4.497   3.874  0.3514  0.4965  0.8764
  144MOL   C25743443   7.083   4.717   4.108 -0.4433 -0.0238  0.2626
  144MOL   C25843444   7.175   4.843   4.115  0.1117  0.6114 -0.0512
  144MOL   C25943445   7.186   4.920   3.986 -0.5107 -0.2801 -0.1026
  144MOL   O26043446   7.186   5.044   3.983  0.7606  0.1771 -0.5678
  144MOL   O26143447   7.195   4.837   3.879 -0.1049  0.0139  0.3319
  144MOL   C26243448   7.201   4.895   3.752  0.0169 -0.2619 -0.7083
  144MOL   C26343449   7.063   4.890   3.696  0.2739 -0.0493  0.2633
  144MOL   H26443450   7.075   4.659   4.199  0.7777 -3.0826 -1.4863
  144MOL   H26543451   7.132   4.657   4.031 -0.6188  1.1904 -0.8215
  144MOL   H26643452   7.131   4.906   4.192 -1.0640 -3.1782  2.5372
  144MOL   H26743453   7.247   4.993   3.756 -0.9597  0.1070  2.2521
  144MOL   H26843454   7.254   4.831   3.680  3.4087  1.0105  0.5567
  144MOL   H26943455   6.999   4.951   3.760  0.0170 -1.1494  1.0647
  144MOL   H27043456   7.025   4.789   3.689 -0.0080 -0.0095  1.1591
  144MOL   H27143457   7.058   4.928   3.594 -0.6044  0.9936  0.6805
  144MOL   C27243458   7.315   4.795   4.170 -0.3005 -1.0195  0.8803
  144MOL   C27343459   7.417   4.904   4.213  0.2406  0.3455  0.8563
  144MOL   C27443460   7.561   4.877   4.154 -0.3477  0.6378 -0.6098
  144MOL   O27543461   7.606   4.964   4.087  0.3298  0.0457 -0.0022
  144MOL   O27643462   7.615   4.758   4.174  0.3958  0.1514 -0.0510
  144MOL   C27743463   7.752   4.728   4.161  0.3027  0.0359 -0.2135
  144MOL   C27843464   7.822   4.734   4.300  0.2962 -0.4419 -0.3678
  144MOL   H27943465   7.296   4.734   4.259 -0.3663  1.3555  2.5555
  144MOL   H28043466   7.360   4.728   4.097  0.6583 -1.4166  1.8128
  144MOL   H28143467   7.373   4.991   4.163  1.4379  0.5209  0.0990
  144MOL   H28243468   7.762   4.625   4.126  0.4524  1.0243 -3.2241
  144MOL   H28343469   7.796   4.800   4.092 -1.0299 -0.8385 -2.0028
  144MOL   H28443470   7.838   4.840   4.321 -0.5650 -0.3828  0.0447
  144MOL   H28543471   0.013   4.691   4.297  0.6318  0.3133 -0.0126
  144MOL   H28643472   7.761   4.684   4.375 -0.4268 -0.2502 -0.8145
  144MOL   C28743473   7.409   4.943   4.360 -0.0108  0.0114 -0.7020
  144MOL   C28843474   7.459   4.842   4.471 -0.1059 -0.0093 -0.3342
  144MOL   C28943475   7.433   4.891   4.619  0.4353  0.0041  0.1861
  144MOL   O29043476   7.465   5.006   4.651 -0.1322  0.5603 -0.5264
  144MOL   O29143477   7.376   4.802   4.704 -0.0297 -0.0151 -0.6100
  144MOL   C29243478   7.350   4.828   4.843  0.9843 -0.5196  0.9070
  144MOL   C29343479   7.467   4.775   4.922  0.2319 -0.6455  0.6944
  144MOL   H29443480   7.463   5.037   4.368 -0.7109  0.4073 -0.5415
  144MOL   H29543481   7.305   4.970   4.381 -0.0074 -1.5459  1.4722
  144MOL   H29643482   7.394   4.755   4.459 -1.3074  0.6365  1.3327
  144MOL   H29743483   7.341   4.934   4.869 -1.2941 -0.6595  0.8401
  144MOL   H29843484   7.263   4.771   4.876 -1.9448  1.0130 -3.5831
  144MOL   H29943485   7.557   4.836   4.914 -0.4281  0.4860  1.8162
  144MOL   H30043486   7.493   4.679   4.878  2.1388  0.5810 -0.9315
  144MOL   H30143487   7.432   4.759   5.024  1.0269 -2.2256  0.7425
  144MOL   H30243488   7.556   4.793   4.460 -0.0516  0.8299 -4.3421
  145MOL     C143489   4.351   6.792   4.316 -0.2642 -0.8445  0.2184
  145MOL     C243490   4.397   6.937   4.347  0.1587  0.0388 -0.1352
  145MOL     C343491   4.496   6.939   4.466  0.7009  0.2462  0.4067
  145MOL     O443492   4.499   6.845   4.547  0.0414 -0.8521 -0.0788
  145MOL     O543493   4.574   7.050   4.460 -0.3219 -0.2617  0.9315
  145MOL     C643494   4.664   7.078   4.562  0.6826  0.0019  0.0829
  145MOL     C743495   4.725   7.216   4.534 -0.2680 -0.2284  0.1727
  145MOL     H843496   4.291   6.798   4.226 -1.6434 -1.5423  1.0729
  145MOL     H943497   4.307   6.741   4.402  1.2154  1.3031  2.3141
  145MOL    H1043498   4.454   6.971   4.260 -0.6091  0.1597 -0.5987
  145MOL    H1143499   4.611   7.078   4.657 -0.7905 -1.4555 -0.7139
  145MOL    H1243500   4.742   7.003   4.566  0.8038  0.1503  0.4736
  145MOL    H1343501   4.649   7.291   4.556 -0.3863  0.0616 -1.1654
  145MOL    H1443502   4.769   7.224   4.434  1.0476  0.8533  0.8168
  145MOL    H1543503   4.806   7.241   4.603 -1.4587  2.8692  0.5497
  145MOL    H1643504   4.427   6.720   4.284  0.5923  1.2157 -2.4983
  145MOL    C1743505   4.272   7.025   4.380  0.6384 -0.2148  0.0496
  145MOL    C1843506   4.191   7.093   4.265 -0.8411 -0.3992  0.0548
  145MOL    C1943507   4.277   7.190   4.186  0.0574 -0.1468  0.4548
  145MOL    O2043508   4.292   7.176   4.063 -0.1074  0.4092 -0.2090
  145MOL    O2143509   4.336   7.285   4.263  0.1662 -0.0093  0.9300
  145MOL    C2243510   4.418   7.379   4.198  0.4443  0.1780 -0.2833
  145MOL    C2343511   4.559   7.382   4.243  0.0423  0.0839 -0.0815
  145MOL    H2443512   4.208   6.959   4.440  0.9191  0.1234  0.7204
  145MOL    H2543513   4.298   7.107   4.446  2.3539 -0.0074 -0.8702
  145MOL    H2643514   4.173   7.010   4.196  1.0275 -1.5644  0.9244
  145MOL    H2743515   4.418   7.362   4.091 -2.5318 -1.1604 -0.1038
  145MOL    H2843516   4.370   7.477   4.204 -2.8783 -1.3418 -1.2703
  145MOL    H2943517   4.616   7.470   4.213  3.6773 -1.9196  0.5836
  145MOL    H3043518   4.619   7.297   4.209  0.8495  1.0922 -1.2414
  145MOL    H3143519   4.547   7.391   4.351 -0.2611  2.6121 -0.3134
  145MOL    C3243520   4.051   7.142   4.318 -0.0275 -0.4150  0.1277
  145MOL    C3343521   3.940   7.050   4.376  0.3223 -0.6219 -0.1236
  145MOL    C3443522   3.901   6.949   4.264  0.5917  0.5080 -0.2264
  145MOL    O3543523   3.792   6.947   4.206 -0.4180  0.3550 -0.5077
  145MOL    O3643524   3.996   6.853   4.253  0.5966  0.9656  0.0219
  145MOL    C3743525   3.973   6.742   4.167  0.2063 -0.6605 -0.4592
  145MOL    C3843526   3.898   6.638   4.238 -0.8305  0.0403  0.6007
  145MOL    H3943527   4.080   7.215   4.394 -3.3306 -0.4856  1.5690
  145MOL    H4043528   4.009   7.204   4.239 -0.7956 -0.2072  0.6869
  145MOL    H4143529   3.980   6.991   4.459 -0.1406 -1.2166 -0.3172
  145MOL    H4243530   3.920   6.778   4.079 -0.8665  0.7429  0.7279
  145MOL    H4343531   4.068   6.699   4.137  2.5242  2.1707  2.4094
  145MOL    H4443532   3.861   6.556   4.176  0.2372 -0.0221  0.0318
  145MOL    H4543533   3.812   6.690   4.279 -1.0851  2.5410 -2.8644
  145MOL    H4643534   3.964   6.607   4.319 -0.5595 -1.6288 -0.2428
  145MOL    C4743535   3.808   7.118   4.431  0.2796 -0.2379  0.1980
  145MOL    C4843536   3.830   7.232   4.537 -0.1040  0.2776  0.1126
  145MOL    C4943537   3.886   7.188   4.675 -0.3074  0.3439  0.3759
  145MOL    O5043538   3.972   7.253   4.739  0.1174 -0.3980 -0.1034
  145MOL    O5143539   3.832   7.074   4.718  0.6212 -0.9409 -0.4778
  145MOL    C5243540   3.867   7.029   4.846  0.7878  0.4731  0.4715
  145MOL    C5343541   3.778   6.905   4.881 -0.2749 -0.0238  0.2333
  145MOL    H5443542   3.747   7.155   4.349  1.4780  1.8304  0.1983
  145MOL    H5543543   3.747   7.035   4.469  0.2421  0.3712  1.4949
  145MOL    H5643544   3.905   7.300   4.496  0.0363  0.3053  0.4125
  145MOL    H5743545   3.976   7.019   4.849  1.0022  2.9580  4.7687
  145MOL    H5843546   3.848   7.115   4.910  1.3123  0.7023  0.3228
  145MOL    H5943547   3.806   6.850   4.970  2.1944  1.6729  0.5719
  145MOL    H6043548   3.774   6.844   4.791 -1.0051  0.1650  0.1389
  145MOL    H6143549   3.679   6.941   4.908 -0.2142 -0.7595  1.4337
  145MOL    C6243550   3.706   7.328   4.564  0.2023  0.6421  0.5254
  145MOL    C6343551   3.729   7.481   4.553 -0.3124 -0.1482 -0.7072
  145MOL    C6443552   3.747   7.518   4.406 -0.3402  0.0500  0.0271
  145MOL    O6543553   3.862   7.543   4.362 -0.0812 -0.2323  0.5452
  145MOL    O6643554   3.628   7.534   4.339  0.2230  0.0546 -0.2108
  145MOL    C6743555   3.613   7.588   4.207 -0.2464 -0.6248  0.6015
  145MOL    C6843556   3.470   7.610   4.197  0.2339  0.6634  0.3904
  145MOL    H6943557   3.623   7.300   4.499 -1.2652  0.0286  2.6189
  145MOL    H7043558   3.664   7.301   4.661 -0.2183 -5.1421 -1.0675
  145MOL    H7143559   3.635   7.528   4.581 -0.6358 -0.5418 -1.1404
  145MOL    H7243560   3.663   7.685   4.197  0.4342 -0.7872  2.2301
  145MOL    H7343561   3.669   7.528   4.136  0.0250 -1.0868  1.1967
  145MOL    H7443562   3.436   7.670   4.281 -0.0033 -1.4034  1.8196
  145MOL    H7543563   3.421   7.512   4.203 -0.8138  1.1815  0.4718
  145MOL    H7643564   3.441   7.663   4.106 -0.8957  0.5683  0.6850
  145MOL    C7743565   3.830   7.539   4.655 -0.1185 -0.3466 -0.2376
  145MOL    C7843566   3.793   7.682   4.691 -0.3845  0.3537 -0.3376
  145MOL    C7943567   3.918   7.765   4.736 -0.2299  0.1422  0.3939
  145MOL    O8043568   3.922   7.878   4.691  0.6106 -0.3229  0.4293
  145MOL    O8143569   4.005   7.705   4.824 -0.2378 -0.2152  0.4566
  145MOL    C8243570   4.126   7.762   4.860  0.5120  0.3701 -0.5230
  145MOL    C8343571   4.126   7.823   5.001 -0.2155  0.1696  0.0145
  145MOL    H8443572   3.827   7.491   4.752  1.7123  0.9853  0.5009
  145MOL    H8543573   3.930   7.537   4.613  0.6838 -1.7570  1.6958
  145MOL    H8643574   3.762   7.720   4.594  0.6984  1.0805 -0.4033
  145MOL    H8743575   4.195   7.678   4.861 -0.9496 -0.8551  0.6129
  145MOL    H8843576   4.161   7.836   4.788 -2.5342  1.8911 -0.5029
  145MOL    H8943577   4.062   7.763   5.066 -2.6973  0.0368 -2.4156
  145MOL    H9043578   4.086   0.015   5.015 -1.7027 -0.6525  1.9726
  145MOL    H9143579   4.224   7.815   5.047 -0.0012 -2.3947 -0.7844
  145MOL    C9243580   3.682   7.696   4.795 -0.2535 -0.5334 -0.0241
  145MOL    C9343581   3.609   7.832   4.796  0.4334  0.3212  0.2059
  145MOL    C9443582   3.662   0.022   4.902 -0.3706 -0.3207 -0.6830
  145MOL    O9543583   3.713   0.127   4.881 -0.0209 -0.4236  0.0486
  145MOL    O9643584   3.654   7.879   5.035 -0.6404  0.4318 -0.1733
  145MOL    C9743585   3.751   0.003   5.132  0.2478 -0.0406  0.9600
  145MOL    C9843586   3.703   0.113   5.223  0.8868 -0.0720 -0.9097
  145MOL    H9943587   3.616   7.611   4.777  1.1848 -1.2855 -1.8914
  145MOL   H10043588   3.727   7.673   4.892 -0.1453 -3.7628 -0.7858
  145MOL   H10143589   3.635   7.868   4.696  2.2260 -2.1412 -0.2543
  145MOL   H10243590   3.766   7.821   5.192  0.1735  1.0502  2.6559
  145MOL   H10343591   3.847   0.028   5.086 -0.3805  0.1874 -0.2393
  145MOL   H10443592   3.782   0.127   5.298 -1.0866 -2.0781  1.6459
  145MOL   H10543593   3.619   0.072   5.279  0.3253  1.6810 -0.4266
  145MOL   H10643594   3.683   0.205   5.168 -0.4568 -1.1395 -2.2259
  145MOL   C10743595   3.456   7.812   4.799  0.4751 -0.7766 -0.4672
  145MOL   C10843596   3.353   0.020   4.779  0.1252 -0.0145  0.3209
  145MOL   C10943597   3.344   0.126   4.885 -0.3197  0.4070 -0.1969
  145MOL   O11043598   3.364   0.096   5.004 -0.6296 -0.3322 -0.4138
  145MOL   O11143599   3.335   0.251   4.841 -0.5961  0.0286  0.1376
  145MOL   C11243600   3.346   0.359   4.926 -0.2172  0.0636  0.1194
  145MOL   C11343601   3.209   0.402   4.995 -1.0129 -0.1788  0.5199
  145MOL   H11443602   3.436   7.733   4.726  0.0056  0.2016 -1.4146
  145MOL   H11543603   3.426   7.770   4.894  0.3588  0.3716  0.0060
  145MOL   H11643604   3.399   0.069   4.693 -0.8275 -0.9758 -0.7622
  145MOL   H11743605   3.407   0.331   5.013  0.1193 -1.2656 -0.5330
  145MOL   H11843606   3.383   0.447   4.875 -0.0757  0.5866  1.1143
  145MOL   H11943607   3.142   0.442   4.919  0.1346  1.2938  0.2576
  145MOL   H12043608   3.232   0.479   5.069  2.2467 -2.2925  1.8481
  145MOL   H12143609   3.156   0.318   5.039  1.5019 -2.1454 -0.0852
  145MOL   C12243610   3.210   7.873   4.729 -1.1281 -0.0026  0.6776
  145MOL   C12343611   3.144   7.770   4.836 -0.6962 -0.1496  0.2685
  145MOL   C12443612   3.188   7.627   4.808 -0.1454  0.1371  0.2556
  145MOL   O12543613   3.240   7.569   4.900  0.2800 -0.1897  0.0253
  145MOL   O12643614   3.167   7.581   4.678  0.7280 -0.1581  0.0336
  145MOL   C12743615   3.232   7.457   4.639  0.2658 -0.4818 -0.4182
  145MOL   C12843616   3.293   7.484   4.502  0.1581  0.1168 -0.0977
  145MOL   H12943617   3.144   0.050   4.715 -1.2574  0.0905  1.8311
  145MOL   H13043618   3.218   7.827   4.630 -2.0863  1.2184  0.0169
  145MOL   H13143619   3.173   7.783   4.940 -1.0902  1.9647  0.1335
  145MOL   H13243620   3.316   7.433   4.704 -0.4172 -0.0851  0.6266
  145MOL   H13343621   3.169   7.369   4.644 -1.4759  0.7769  0.3311
  145MOL   H13443622   3.347   7.403   4.452 -0.3414 -0.9434  1.0380
  145MOL   H13543623   3.353   7.572   4.522 -0.5728 -0.1939  3.8514
  145MOL   H13643624   3.223   7.516   4.424 -2.4902 -2.0988  1.2766
  145MOL   C13743625   2.992   7.777   4.834 -0.4332  0.6408 -0.2442
  145MOL   C13843626   2.913   7.715   4.955  0.6199 -0.1501 -0.7217
  145MOL   C13943627   2.764   7.684   4.924 -0.3260  0.3109  0.6158
  145MOL   O14043628   2.710   7.574   4.943 -0.2407 -0.0867 -0.3952
  145MOL   O14143629   2.708   7.794   4.873  0.0316 -0.7152 -0.3952
  145MOL   C14243630   2.573   7.779   4.854  0.0941 -0.3186  0.0771
  145MOL   C14343631   2.514   0.015   4.841 -0.1593  0.4396  0.0244
  145MOL   H14443632   2.957   7.880   4.830  1.4853  1.2878 -0.4772
  145MOL   H14543633   2.957   7.725   4.744  0.7524  0.1977 -0.4573
  145MOL   H14643634   2.947   7.614   4.977 -0.2224 -0.9211 -2.8968
  145MOL   H14743635   2.550   7.719   4.766 -0.8993  0.9758 -0.5677
  145MOL   H14843636   2.532   7.732   4.943 -1.2291  0.4206 -0.1162
  145MOL   H14943637   2.416   0.015   4.792  0.1055 -0.5643 -0.5174
  145MOL   H15043638   2.588   0.076   4.791 -0.0591  0.9393  0.7734
  145MOL   H15143639   2.497   0.042   4.945 -1.8808 -0.5246  0.0228
  145MOL   C15243640   2.925   7.789   5.098 -0.3602 -0.2981 -0.1105
  145MOL   C15343641   3.049   7.733   5.182 -0.2101  0.6212 -0.3331
  145MOL   C15443642   3.004   7.629   5.281 -0.1132 -0.8183 -0.1197
  145MOL   O15543643   2.994   7.654   5.402 -0.4264  0.1067  0.2637
  145MOL   O15643644   2.997   7.508   5.224  0.1737  0.0003 -0.2806
  145MOL   C15743645   2.969   7.398   5.311  0.4777 -0.3754  0.3397
  145MOL   C15843646   3.093   7.340   5.370  0.0324 -0.3492 -0.3384
  145MOL   H15943647   2.949   7.893   5.073 -1.4196 -0.0872 -0.2748
  145MOL   H16043648   2.829   7.809   5.145 -0.3517  1.5899 -0.8356
  145MOL   H16143649   3.109   7.671   5.115  0.9487  0.6608  0.6427
  145MOL   H16243650   2.902   7.434   5.388  1.2055 -1.2777  1.4099
  145MOL   H16343651   2.920   7.319   5.254 -2.1536  1.1702  0.3929
  145MOL   H16443652   3.144   7.274   5.299  1.6849 -0.0983  0.5918
  145MOL   H16543653   3.083   7.286   5.464  1.9449  2.1415  1.3939
  145MOL   H16643654   3.169   7.413   5.399 -0.0555 -1.2294  2.2155
  145MOL   C16743655   3.132   7.851   5.250 -0.7280  0.0745  0.1932
  145MOL   C16843656   3.269   7.809   5.315  1.0481  0.8123 -0.3389
  145MOL   C16943657   3.333   0.012   5.392  0.6674  0.0486 -0.3477
  145MOL   O17043658   3.327   0.016   5.517  0.6413 -0.3154  0.2287
  145MOL   O17143659   3.388   0.104   5.315  0.1580 -0.1310 -0.3167
  145MOL   C17243660   3.419   0.231   5.364 -0.3404 -0.2294 -0.2827
  145MOL   C17343661   3.284   0.312   5.375  0.0423  0.2858 -0.5394
  145MOL   H17443662   3.160   0.011   5.169 -2.0898 -0.4498 -0.7470
  145MOL   H17543663   3.081   0.012   5.317  1.9599  0.9498  1.3667
  145MOL   H17643664   3.255   7.732   5.390  1.5945 -1.4593 -2.4877
  145MOL   H17743665   3.481   0.230   5.453 -1.4183  1.6307  0.5028
  145MOL   H17843666   3.483   0.283   5.293 -0.5111  1.8547  1.0616
  145MOL   H17943667   3.234   0.335   5.282 -1.1450  2.5810  0.6282
  145MOL   H18043668   3.289   0.414   5.413  2.2363 -0.7374  2.1347
  145MOL   H18143669   3.216   0.262   5.445  1.7703 -1.4212 -0.0202
  145MOL   C18243670   3.365   7.746   5.207 -0.4837  0.2044 -0.3699
  145MOL   C18343671   3.387   7.593   5.220  0.1672 -0.6886  0.9192
  145MOL   C18443672   3.451   7.563   5.354  0.1479  0.5901 -0.6707
  145MOL   O18543673   3.388   7.491   5.431 -0.6110 -0.0965  0.0312
  145MOL   O18643674   3.575   7.618   5.373  0.7540  0.6427 -0.0250
  145MOL   C18743675   3.656   7.565   5.477 -0.2017  0.1650 -0.1098
  145MOL   C18843676   3.774   7.485   5.423  0.8742 -0.7252 -0.5386
  145MOL   H18943677   3.333   7.756   5.103 -0.0686  0.1994 -0.4986
  145MOL   H19043678   3.460   7.798   5.218 -1.3231  1.2528  2.4851
  145MOL   H19143679   3.294   7.538   5.201 -0.4068  1.1225 -1.6499
  145MOL   H19243680   3.692   7.646   5.541  2.2523  0.0928 -1.3325
  145MOL   H19343681   3.591   7.500   5.535 -1.2661 -0.2309 -1.6953
  145MOL   H19443682   3.823   7.441   5.510 -0.6772  1.1220  1.3309
  145MOL   H19543683   3.842   7.546   5.363  1.1998 -0.6154 -0.0661
  145MOL   H19643684   3.739   7.412   5.350  1.5678 -1.9316  0.3147
  145MOL   C19743685   3.488   7.551   5.104  0.2462  0.3242  0.8012
  145MOL   C19843686   3.530   7.404   5.100  0.5184  0.2158 -0.1921
  145MOL   C19943687   3.665   7.387   5.032 -0.0501 -0.0779 -0.4531
  145MOL   O20043688   3.670   7.362   4.908 -0.2091  0.1723 -0.0765
  145MOL   O20143689   3.771   7.411   5.111  0.0609 -0.6010 -0.1237
  145MOL   C20243690   3.899   7.403   5.048  0.4842 -0.0813  0.0718
  145MOL   C20343691   3.994   7.485   5.138 -0.3856  0.1202 -0.3552
  145MOL   H20443692   3.458   7.590   5.007  0.4684  1.7393  1.2973
  145MOL   H20543693   3.577   7.611   5.123  0.2126  0.0575  1.8374
  145MOL   H20643694   3.544   7.390   5.207 -0.0672  0.3204 -0.1036
  145MOL   H20743695   3.927   7.298   5.043  0.7652  0.0241 -0.6894
  145MOL   H20843696   3.896   7.444   4.947 -0.0598  0.4856  0.3095
  145MOL   H20943697   4.088   7.510   5.091 -0.0018 -2.3440 -0.9869
  145MOL   H21043698   4.025   7.441   5.233  0.0483 -0.5916 -0.8216
  145MOL   H21143699   3.950   7.581   5.163 -3.2529 -1.3139  0.3949
  145MOL   C21243700   3.424   7.314   5.040 -0.3762  0.2706 -0.2310
  145MOL   C21343701   3.457   7.161   5.044  0.1366 -0.2224 -0.2788
  145MOL   C21443702   3.375   7.096   4.935  0.5125  0.2993  0.0164
  145MOL   O21543703   3.265   7.041   4.961 -0.2921 -0.4741  0.4471
  145MOL   O21643704   3.435   7.093   4.818  0.2947  0.2367  0.1602
  145MOL   C21743705   3.372   7.036   4.707  0.2267  0.1121 -0.3050
  145MOL   C21843706   3.468   7.059   4.592 -0.7067 -0.2821  0.7557
  145MOL   H21943707   3.328   7.316   5.091 -0.6822 -1.7199 -0.6692
  145MOL   H22043708   3.407   7.349   4.938  1.6836 -0.7248 -0.9408
  145MOL   H22143709   3.564   7.160   5.025  0.4045 -0.2057  1.1616
  145MOL   H22243710   3.344   6.931   4.716  1.7632 -0.3885 -1.3192
  145MOL   H22343711   3.278   7.088   4.685 -0.7569 -1.5884 -0.1983
  145MOL   H22443712   3.572   7.038   4.617  0.0309  3.2988  0.9543
  145MOL   H22543713   3.465   7.158   4.546  0.0454  1.3821  4.1274
  145MOL   H22643714   3.442   6.987   4.515  2.5862 -0.1169 -0.5784
  145MOL   C22743715   3.450   7.086   5.185 -0.4583  0.0673  0.6898
  145MOL   C22843716   3.541   6.960   5.205 -1.1438 -0.1273  0.0778
  145MOL   C22943717   3.473   6.828   5.163  0.7393  0.2356  0.2559
  145MOL   O23043718   3.388   6.764   5.221  0.5728 -0.3454  0.1977
  145MOL   O23143719   3.545   6.774   5.064 -0.3282  0.0317 -0.4658
  145MOL   C23243720   3.521   6.640   5.012 -0.8977  0.0598 -0.0936
  145MOL   C23343721   3.573   6.616   4.873  0.3455 -0.4363 -0.0849
  145MOL   H23443722   3.458   7.149   5.274  0.2638  0.1222  0.5945
  145MOL   H23543723   3.348   7.058   5.209 -0.5836  2.2667  2.9516
  145MOL   H23643724   3.635   6.991   5.161 -1.6618  2.5728  0.8048
  145MOL   H23743725   3.572   6.566   5.074 -0.7339 -0.1127 -0.4305
  145MOL   H23843726   3.417   6.606   5.011 -0.8321 -0.4553  3.6479
  145MOL   H23943727   3.533   6.521   4.836 -1.6231 -0.5386  2.1546
  145MOL   H24043728   3.680   6.632   4.858  0.4178  1.1696  1.9165
  145MOL   H24143729   3.533   6.697   4.813  1.2583  1.1908  1.4691
  145MOL   C24243730   3.581   6.946   5.350  0.6236  0.2014 -0.0161
  145MOL   C24343731   3.686   6.834   5.384 -0.3303  0.2697  0.1247
  145MOL   C24443732   3.708   6.811   5.532 -0.5261  0.9042 -0.3776
  145MOL   O24543733   3.708   6.694   5.569  0.2844  0.4946  0.2184
  145MOL   O24643734   3.721   6.919   5.613 -0.1661 -0.1897  0.2166
  145MOL   C24743735   3.733   6.907   5.756 -0.1069 -0.3397  0.4124
  145MOL   C24843736   3.860   6.972   5.807  0.1629  0.2810  0.6311
  145MOL   H24943737   3.613   7.043   5.386 -0.6586  0.7510 -0.3183
  145MOL   H25043738   3.495   6.931   5.415 -0.3130  0.8344 -1.0902
  145MOL   H25143739   3.645   6.740   5.347 -1.9831 -0.2447  3.1052
  145MOL   H25243740   3.653   6.963   5.803 -0.0261  0.7397 -0.7241
  145MOL   H25343741   3.719   6.804   5.790  1.3636 -0.2112  1.4525
  145MOL   H25443742   3.860   7.080   5.821  0.6330  0.3952 -0.2531
  145MOL   H25543743   3.944   6.945   5.743 -0.8745 -2.7869  0.4721
  145MOL   H25643744   3.885   6.925   5.903  2.3108  0.6496  0.2779
  145MOL   C25743745   3.814   6.865   5.311 -0.0087 -0.4973  0.0611
  145MOL   C25843746   3.919   6.758   5.332  0.4710  1.2575  0.5850
  145MOL   C25943747   4.061   6.828   5.344  0.7965  0.2639 -0.0680
  145MOL   O26043748   4.139   6.833   5.250 -0.2389  0.2204 -0.2478
  145MOL   O26143749   4.078   6.887   5.455 -0.7974  0.6863 -0.1695
  145MOL   C26243750   4.197   6.963   5.486 -0.1641  0.4869  0.5192
  145MOL   C26343751   4.159   7.103   5.536 -0.0497  0.7370  0.1170
  145MOL   H26443752   3.804   6.882   5.204  1.0480  1.6713  0.2663
  145MOL   H26543753   3.842   6.961   5.355 -1.6662 -0.4729  1.0928
  145MOL   H26643754   3.896   6.707   5.426  1.3087  3.0063  1.7757
  145MOL   H26743755   4.253   6.916   5.566  0.1908  2.7360  1.6182
  145MOL   H26843756   4.271   6.966   5.406  0.5403  1.5820  1.2035
  145MOL   H26943757   4.137   7.166   5.450  2.7735  1.1234 -0.3729
  145MOL   H27043758   4.235   7.145   5.601 -0.9486  0.1546  1.5726
  145MOL   H27143759   4.075   7.096   5.605 -0.7069 -0.2182 -0.7482
  145MOL   C27243760   3.900   6.650   5.215 -0.2082 -0.2905 -0.0966
  145MOL   C27343761   3.950   6.499   5.224 -0.1382 -0.1896  0.5827
  145MOL   C27443762   3.880   6.426   5.343 -1.1681 -0.2773  0.7235
  145MOL   O27543763   3.937   6.397   5.449 -0.0836  0.2555  0.1549
  145MOL   O27643764   3.752   6.396   5.315 -1.2087  0.5181  0.2142
  145MOL   C27743765   3.668   6.361   5.417  0.5133  0.2455 -0.1514
  145MOL   C27843766   3.533   6.311   5.373 -0.1299 -0.2229 -0.3747
  145MOL   H27943767   3.792   6.639   5.208  0.0407 -1.8812 -1.8099
  145MOL   H28043768   3.937   6.700   5.125 -0.5789 -1.8957 -1.1432
  145MOL   H28143769   3.912   6.446   5.137 -1.5829  0.8038  0.5817
  145MOL   H28243770   3.714   6.281   5.477 -2.2855 -0.1873  1.5205
  145MOL   H28343771   3.648   6.449   5.477  0.1340  0.7888 -1.0805
  145MOL   H28443772   3.458   6.285   5.448  0.6303 -1.3528  0.0208
  145MOL   H28543773   3.555   6.224   5.311  3.2434  0.4794 -0.2791
  145MOL   H28643774   3.491   6.387   5.309 -0.8896 -1.0256 -0.8426
  145MOL   C28743775   4.107   6.500   5.239 -0.2319 -0.2895 -0.0886
  145MOL   C28843776   4.174   6.369   5.195 -0.1830 -0.3695 -0.1467
  145MOL   C28943777   4.322   6.353   5.255  0.5636  0.5881  0.7666
  145MOL   O29043778   4.337   6.272   5.339 -0.1736 -0.3560  0.0819
  145MOL   O29143779   4.404   6.432   5.187 -0.4473  0.5914  0.3134
  145MOL   C29243780   4.549   6.442   5.231  0.4694 -0.2134  0.4509
  145MOL   C29343781   4.564   6.546   5.331 -0.0229 -0.8225  0.2019
  145MOL   H29443782   4.144   6.582   5.178 -0.5082 -2.3678 -3.1804
  145MOL   H29543783   4.130   6.526   5.342 -0.2436  0.7838 -0.3558
  145MOL   H29643784   4.115   6.304   5.259  1.3911 -2.2490 -0.5630
  145MOL   H29743785   4.591   6.349   5.271  1.6649  0.2338  0.2601
  145MOL   H29843786   4.597   6.451   5.133 -0.3571 -0.1024  0.0556
  145MOL   H29943787   4.666   6.571   5.361 -0.2050 -0.2086  0.3312
  145MOL   H30043788   4.499   6.516   5.413 -1.0048 -0.7235 -0.5244
  145MOL   H30143789   4.521   6.639   5.292  0.4305 -1.8365 -2.8464
  145MOL   H30243790   4.154   6.341   5.091  0.0166 -1.7927  0.1908
  146MOL     C143791   6.295   7.732   3.999  0.3316  0.2647  0.4598
  146MOL     C243792   6.426   7.733   3.923  0.7639 -0.6190 -0.1589
  146MOL     C343793   6.398   7.805   3.789 -0.5834 -0.6238 -0.0878
  146MOL     O443794   6.294   7.860   3.760  0.2894  0.0235  0.1597
  146MOL     O543795   6.519   7.814   3.727 -0.0966  0.0266  0.1474
  146MOL     C643796   6.527   7.879   3.601  0.2557  0.3475 -0.6902
  146MOL     C743797   6.572   0.124   3.616 -0.7418  0.4378  0.1383
  146MOL     H843798   6.344   7.707   4.093  3.3653  2.7504 -0.4063
  146MOL     H943799   6.223   7.655   3.971 -0.2116  1.6708 -2.2101
  146MOL    H1043800   6.496   7.791   3.984  0.9572  0.6140 -1.5131
  146MOL    H1143801   6.592   7.822   3.534  0.1279 -0.3619 -0.2125
  146MOL    H1243802   6.428   7.868   3.555  0.3551 -0.9040 -0.6191
  146MOL    H1343803   6.553   0.175   3.522 -0.5234 -0.3407 -0.3334
  146MOL    H1443804   6.678   0.142   3.635 -0.0649 -0.8598 -2.2577
  146MOL    H1543805   6.511   0.161   3.699 -0.2274 -0.4306  0.9224
  146MOL    H1643806   6.238   7.824   4.010 -0.1964  0.0984 -0.7116
  146MOL    C1743807   6.487   7.594   3.901  0.2298 -0.2829 -0.1201
  146MOL    C1843808   6.573   7.542   4.010 -0.2216  0.3311  0.3165
  146MOL    C1943809   6.704   7.612   4.021 -0.0254  0.0552 -0.7078
  146MOL    O2043810   6.746   7.635   4.133  0.0689 -0.1030 -0.5725
  146MOL    O2143811   6.763   7.654   3.900  0.0703 -0.2580 -0.7049
  146MOL    C2243812   6.872   7.743   3.910 -0.5189  0.2763  0.2233
  146MOL    C2343813   6.877   7.824   3.777 -0.2847  0.4682  0.0153
  146MOL    H2443814   6.408   7.519   3.890  0.8333 -0.5797 -2.8412
  146MOL    H2543815   6.543   7.581   3.808 -0.2445 -1.6415 -0.2267
  146MOL    H2643816   6.520   7.569   4.101  1.1946  0.5042  1.1140
  146MOL    H2743817   6.857   7.816   3.990 -1.7779  0.0392  0.2229
  146MOL    H2843818   6.968   7.697   3.932  0.6659  2.2606 -0.6316
  146MOL    H2943819   6.778   7.862   3.751 -0.4264  0.1684  0.1225
  146MOL    H3043820   6.914   7.764   3.694  0.5089  0.1089  0.6199
  146MOL    H3143821   6.949   7.903   3.799  1.4189 -1.0869  0.1472
  146MOL    C3243822   6.604   7.391   3.992 -0.4575  0.8014  0.0098
  146MOL    C3343823   6.572   7.300   4.116 -0.1009 -0.2140 -0.5923
  146MOL    C3443824   6.422   7.282   4.135 -0.0765 -0.7298 -0.5288
  146MOL    O3543825   6.359   7.313   4.241  0.7699  0.5749 -0.5627
  146MOL    O3643826   6.365   7.228   4.032 -0.2923  0.3260 -0.4589
  146MOL    C3743827   6.228   7.216   4.019  0.1765 -0.0571  0.0580
  146MOL    C3843828   6.174   7.344   3.953 -0.3997 -0.6015  0.0166
  146MOL    H3943829   6.548   7.348   3.909  1.8495 -1.7728 -0.2949
  146MOL    H4043830   6.709   7.375   3.969 -0.4716 -2.1254  1.7087
  146MOL    H4143831   6.607   7.198   4.103  1.9940  0.1294  1.9486
  146MOL    H4243832   6.210   7.140   3.942 -1.9879  0.0691  0.4061
  146MOL    H4343833   6.178   7.205   4.115 -1.5317 -0.6211 -0.8721
  146MOL    H4443834   6.227   7.368   3.862 -2.7665 -0.3896 -1.3429
  146MOL    H4543835   6.171   7.427   4.023 -0.8313 -1.0079  0.4860
  146MOL    H4643836   6.069   7.328   3.928 -0.4387 -2.1750  1.0912
  146MOL    C4743837   6.641   7.350   4.244 -0.3490 -0.6157  0.1360
  146MOL    C4843838   6.670   7.240   4.358  0.1054 -0.0052  0.6949
  146MOL    C4943839   6.739   7.309   4.469  0.0138  0.2780 -0.4594
  146MOL    O5043840   6.805   7.248   4.553 -0.9031 -0.2259  0.0396
  146MOL    O5143841   6.711   7.442   4.475 -0.2133  0.3489  0.1273
  146MOL    C5243842   6.735   7.519   4.588 -0.1831 -0.5919  0.3071
  146MOL    C5343843   6.606   7.543   4.668 -0.0006  0.1934  0.4917
  146MOL    H5443844   6.738   7.388   4.211 -0.9064  0.5718 -0.1796
  146MOL    H5543845   6.581   7.433   4.282  1.1862 -0.3009  1.8918
  146MOL    H5643846   6.576   7.210   4.406 -0.1297 -3.7157 -1.9073
  146MOL    H5743847   6.807   7.475   4.657 -2.1140 -0.0223  2.7790
  146MOL    H5843848   6.768   7.616   4.551  2.5835 -1.9256 -0.7951
  146MOL    H5943849   6.625   7.606   4.755  0.6255 -0.4725  0.8482
  146MOL    H6043850   6.559   7.452   4.706 -2.4949 -0.0646 -3.0003
  146MOL    H6143851   6.528   7.589   4.608  1.4739 -0.4646 -2.0245
  146MOL    C6243852   6.748   7.114   4.312  0.3342  0.8499  0.2587
  146MOL    C6343853   6.898   7.127   4.257 -0.3450  0.5910 -0.6103
  146MOL    C6443854   6.903   7.169   4.106  0.5561  0.0363 -0.6618
  146MOL    O6543855   6.901   7.283   4.075  0.4310  0.4413 -0.3381
  146MOL    O6643856   6.920   7.068   4.023  0.4630  0.8246 -0.3656
  146MOL    C6743857   6.955   7.094   3.888 -0.1999 -0.0312  0.3468
  146MOL    C6843858   7.102   7.108   3.863  0.1634 -0.0578  0.6959
  146MOL    H6943859   6.752   7.047   4.398 -2.3890 -0.4500 -0.5751
  146MOL    H7043860   6.681   7.073   4.238  1.4259  0.4170 -0.4990
  146MOL    H7143861   6.947   7.212   4.306 -2.3980  0.6381  1.4496
  146MOL    H7243862   6.907   7.013   3.833  0.0321  0.8885 -1.2561
  146MOL    H7343863   6.907   7.188   3.860 -0.5868 -0.5416 -0.7501
  146MOL    H7443864   7.161   7.030   3.911 -0.7308  0.0110  1.9220
  146MOL    H7543865   7.123   7.203   3.914 -2.2932  0.4085  0.8924
  146MOL    H7643866   7.135   7.110   3.759 -1.4167 -1.5245  0.1477
  146MOL    C7743867   6.982   7.001   4.278 -0.0647  0.3460  0.1363
  146MOL    C7843868   7.133   7.020   4.259 -0.7227 -0.3888  0.6692
  146MOL    C7943869   7.189   6.877   4.254 -0.8049  0.1929 -0.3551
  146MOL    O8043870   7.260   6.830   4.344  0.2410  0.2657 -0.1802
  146MOL    O8143871   7.155   6.807   4.142 -0.5161 -0.0161 -0.8089
  146MOL    C8243872   7.211   6.675   4.122 -0.1265  0.2355  0.1884
  146MOL    C8343873   7.337   6.686   4.034  0.2097 -0.7855  0.8197
  146MOL    H8443874   6.960   6.976   4.382  0.6194 -1.2201 -0.0755
  146MOL    H8543875   6.944   6.924   4.211  1.5454 -0.7972  0.4951
  146MOL    H8643876   7.138   7.046   4.153 -1.4545 -2.6305  0.0446
  146MOL    H8743877   7.241   6.618   4.210 -0.0417  0.2850  0.1915
  146MOL    H8843878   7.133   6.610   4.081  1.3050 -1.5600  0.2396
  146MOL    H8943879   7.396   6.595   4.023 -0.8392 -1.3969  0.0738
  146MOL    H9043880   7.409   6.760   4.066 -0.6899  0.5829 -0.2456
  146MOL    H9143881   7.303   6.714   3.934  0.6433 -1.0130  0.6078
  146MOL    C9243882   7.207   7.120   4.346 -0.0512 -0.0679  0.1625
  146MOL    C9343883   7.332   7.181   4.274 -0.5662 -0.3188  0.5134
  146MOL    C9443884   7.303   7.283   4.165 -0.5453  0.1420 -0.0305
  146MOL    O9543885   7.354   7.268   4.051  0.0820  0.1849 -0.1247
  146MOL    O9643886   7.231   7.381   4.214  0.0105 -0.6641  0.4700
  146MOL    C9743887   7.174   7.464   4.119 -0.0789 -0.9943 -0.1078
  146MOL    C9843888   7.062   7.538   4.201 -0.5022  0.5696  0.6791
  146MOL    H9943889   7.144   7.202   4.378  0.1606 -0.0643  0.5728
  146MOL   H10043890   7.227   7.069   4.441  2.0202 -0.9229 -0.6966
  146MOL   H10143891   7.367   7.244   4.356  2.1390  1.6460 -2.0333
  146MOL   H10243892   7.243   7.523   4.059 -0.9591  1.0166  0.8110
  146MOL   H10343893   7.121   7.405   4.044  0.3871 -1.3918 -0.1257
  146MOL   H10443894   6.985   7.464   4.224  0.9319 -0.3775  2.5284
  146MOL   H10543895   7.022   7.610   4.129  0.1501 -1.0840 -1.4164
  146MOL   H10643896   7.108   7.575   4.292  1.8117  0.8793 -0.5630
  146MOL   C10743897   7.466   7.103   4.260  0.0290 -0.6491 -0.2805
  146MOL   C10843898   7.517   7.039   4.391  0.2406 -1.1907  0.3575
  146MOL   C10943899   7.547   7.138   4.505 -0.4292  0.2451  0.0002
  146MOL   O11043900   7.491   7.151   4.613 -0.1746  0.2496 -0.2621
  146MOL   O11143901   7.660   7.209   4.465 -0.1146 -0.0166  0.6534
  146MOL   C11243902   7.733   7.298   4.553  0.5964 -0.0932 -0.1153
  146MOL   C11343903   7.878   7.256   4.509 -0.1163 -1.0530 -0.6416
  146MOL   H11443904   7.439   7.019   4.196 -0.8979  0.3706 -1.2378
  146MOL   H11543905   7.541   7.166   4.212  0.6793  0.3678  1.9672
  146MOL   H11643906   7.438   6.978   4.435  1.0890 -1.5070  1.4789
  146MOL   H11743907   7.718   7.402   4.523 -1.0969 -0.1094  0.6294
  146MOL   H11843908   7.717   7.280   4.659 -0.0293  0.0310 -0.1861
  146MOL   H11943909   7.893   7.160   4.559 -1.3589 -0.8969  0.0478
  146MOL   H12043910   0.038   7.334   4.543 -2.7532  1.2546 -0.5175
  146MOL   H12143911   7.880   7.246   4.401 -0.9997 -1.9574 -0.5751
  146MOL   C12243912   7.628   6.936   4.363  0.1673  0.4249 -0.1178
  146MOL   C12343913   7.673   6.842   4.480 -0.5392  0.7826 -0.0942
  146MOL   C12443914   7.787   6.743   4.438 -0.4163  0.0451 -0.1557
  146MOL   O12543915   7.902   6.750   4.480 -0.3228  0.1212 -0.0024
  146MOL   O12643916   7.733   6.653   4.357 -0.0410  0.0438 -0.3394
  146MOL   C12743917   7.816   6.563   4.274  0.1648 -1.8056 -0.2107
  146MOL   C12843918   7.793   6.592   4.133 -0.1729  0.3260 -0.0924
  146MOL   H12943919   7.582   6.872   4.288 -0.8272  1.6561 -0.5698
  146MOL   H13043920   7.713   6.989   4.320 -0.2271 -0.2441 -1.7617
  146MOL   H13143921   7.725   6.905   4.553  1.8358  0.3151 -1.3298
  146MOL   H13243922   0.016   6.570   4.284  0.0341  0.9721 -0.3179
  146MOL   H13343923   7.794   6.466   4.317  3.3689 -3.1130 -1.3750
  146MOL   H13443924   7.695   6.550   4.108 -0.1871  0.9336 -1.0937
  146MOL   H13543925   7.869   6.539   4.076  1.0781  0.8930  1.0213
  146MOL   H13643926   7.792   6.699   4.111  0.0966  0.8164  2.2420
  146MOL   C13743927   7.558   6.770   4.557  0.2746 -0.2066  0.1066
  146MOL   C13843928   7.593   6.724   4.703  0.5038 -0.1844 -1.0288
  146MOL   C13943929   7.521   6.588   4.721  0.5053  0.6683  0.7693
  146MOL   O14043930   7.584   6.478   4.712  0.5837  0.2079  0.2670
  146MOL   O14143931   7.391   6.600   4.747  0.0846 -0.4256 -0.1262
  146MOL   C14243932   7.299   6.490   4.736 -0.1385 -0.3955  0.1262
  146MOL   C14343933   7.225   6.487   4.871 -0.3099  0.5284 -0.0732
  146MOL   H14443934   7.467   6.829   4.562  0.1842 -0.3329 -0.0332
  146MOL   H14543935   7.513   6.692   4.495 -1.0092  0.0035  0.7738
  146MOL   H14643936   7.696   6.689   4.709  0.8092  1.0134  1.0409
  146MOL   H14743937   7.234   6.501   4.649 -0.8202  0.8866  0.7772
  146MOL   H14843938   7.349   6.394   4.725 -0.2838 -0.4231 -0.2714
  146MOL   H14943939   7.146   6.562   4.858 -4.0569 -3.2413  0.0539
  146MOL   H15043940   7.297   6.504   4.951 -0.8972  3.8347 -0.1670
  146MOL   H15143941   7.168   6.398   4.897  0.4266  0.1046  0.0975
  146MOL   C15243942   7.553   6.820   4.820 -0.3066  0.7800 -0.1858
  146MOL   C15343943   7.656   6.941   4.834  0.5302  0.1292  0.6567
  146MOL   C15443944   7.799   6.902   4.867  0.1699 -0.0367 -0.3950
  146MOL   O15543945   7.886   6.969   4.822  0.0684 -0.2043  0.6187
  146MOL   O15643946   7.808   6.802   4.959 -0.2592  0.5150  0.7783
  146MOL   C15743947   0.019   6.767   5.020  0.0334  0.2287 -0.1196
  146MOL   C15843948   0.036   6.833   5.159 -0.1859 -0.2107 -0.0433
  146MOL   H15943949   7.455   6.861   4.796 -1.2399 -0.2903  1.7334
  146MOL   H16043950   7.530   6.768   4.912 -1.1381  1.8723  0.2321
  146MOL   H16143951   7.666   6.994   4.739 -0.6332 -0.5232  0.1550
  146MOL   H16243952   0.014   6.660   5.039 -1.1296  0.6717  2.3037
  146MOL   H16343953   0.111   6.790   4.965 -0.1103 -1.3116 -1.0450
  146MOL   H16443954   7.853   6.826   5.218 -0.8880  3.8128 -0.4961
  146MOL   H16543955   0.049   6.939   5.140  1.0926 -0.7648 -2.4833
  146MOL   H16643956   0.112   6.789   5.223 -0.7636 -0.1315  0.7007
  146MOL   C16743957   7.590   7.049   4.927  0.0828  0.6247  0.2066
  146MOL   C16843958   7.576   7.014   5.076 -0.0977  0.5200 -0.1810
  146MOL   C16943959   7.448   6.936   5.103  0.2132  0.3139  1.0784
  146MOL   O17043960   7.456   6.817   5.140 -0.6042  0.7593  0.1650
  146MOL   O17143961   7.331   7.012   5.089  0.2204  0.2282 -0.5058
  146MOL   C17243962   7.212   6.966   5.137  0.3904 -0.4307  0.1614
  146MOL   C17343963   7.149   6.871   5.029  0.2430  0.4002  0.1738
  146MOL   H17443964   7.650   7.139   4.912  1.0522 -0.3137 -1.8037
  146MOL   H17543965   7.498   7.093   4.888 -0.5296 -0.1911  0.7174
  146MOL   H17643966   7.665   6.959   5.109 -0.1146  0.0778 -0.8623
  146MOL   H17743967   7.234   6.919   5.233  0.3735 -0.8494 -0.0407
  146MOL   H17843968   7.140   7.046   5.156  0.3410 -0.9012  2.0994
  146MOL   H17943969   7.142   6.929   4.937  0.4789  2.2371  1.2895
  146MOL   H18043970   7.046   6.845   5.055  0.1648  0.1927 -0.3449
  146MOL   H18143971   7.201   6.776   5.014  2.1153  1.4170  0.0238
  146MOL   C18243972   7.577   7.154   5.155 -0.4183 -0.1174 -0.0847
  146MOL   C18343973   7.542   7.155   5.305  0.1084  0.0144 -0.1851
  146MOL   C18443974   7.539   7.294   5.365 -0.2347  0.4139  0.1796
  146MOL   O18543975   7.530   7.397   5.300  0.3001  0.0139 -0.6168
  146MOL   O18643976   7.523   7.290   5.494 -0.5631 -0.2994 -0.4830
  146MOL   C18743977   7.534   7.408   5.575 -0.2988 -0.7653  0.1427
  146MOL   C18843978   7.576   7.364   5.716 -0.4033 -0.0630  0.0531
  146MOL   H18943979   7.677   7.197   5.154 -0.1658 -0.7017 -0.0050
  146MOL   H19043980   7.508   7.221   5.105  1.1779 -0.3079 -2.6423
  146MOL   H19143981   7.439   7.122   5.321  0.0728 -1.3434 -2.9253
  146MOL   H19243982   7.611   7.476   5.537 -0.5084  0.4380  1.8225
  146MOL   H19343983   7.438   7.458   5.580  0.3669  0.3130  2.2959
  146MOL   H19443984   7.661   7.296   5.712 -1.0413 -0.8724  0.0419
  146MOL   H19543985   7.492   7.314   5.765  0.5544 -0.7253  1.0393
  146MOL   H19643986   7.599   7.451   5.777  1.6254  1.5458 -2.8878
  146MOL   C19743987   7.643   7.056   5.389 -0.1185  0.4059  0.1494
  146MOL   C19843988   7.562   6.960   5.483  0.1173  0.1225 -0.0760
  146MOL   C19943989   7.560   7.018   5.624  0.2220 -0.5562 -0.0020
  146MOL   O20043990   7.455   7.057   5.675  0.3404 -0.4136 -0.0182
  146MOL   O20143991   7.686   7.012   5.680  0.5724  0.0208 -0.2411
  146MOL   C20243992   7.687   7.014   5.827  0.2348  0.6163  0.5561
  146MOL   C20343993   7.804   6.924   5.869  0.0494  0.4489 -0.0443
  146MOL   H20443994   7.719   7.008   5.328 -2.8811 -1.3595 -2.0328
  146MOL   H20543995   7.709   7.118   5.450  0.8897 -1.1857  0.7121
  146MOL   H20643996   7.457   6.954   5.454 -0.2238 -0.5366  1.2444
  146MOL   H20743997   7.712   7.118   5.850 -1.8863  1.2224  0.2163
  146MOL   H20843998   7.592   6.992   5.875  0.2852  0.1758  0.4603
  146MOL   H20943999   7.821   6.942   5.975 -1.1845 -0.1749  0.2613
  146MOL   H21044000   7.898   6.961   5.829  0.4933 -0.7628 -0.1417
  146MOL   H21144001   7.795   6.818   5.848  1.3019  0.7158 -2.1140
  146MOL   C21244002   7.593   6.807   5.487  0.0159  0.5039 -0.0605
  146MOL   C21344003   7.492   6.717   5.562  0.2320 -0.5628 -0.3063
  146MOL   C21444004   7.550   6.587   5.612  0.7477  0.3156  0.3429
  146MOL   O21544005   7.597   6.505   5.526 -0.0562 -0.2045 -0.1840
  146MOL   O21644006   7.546   6.566   5.746  0.3469 -0.2181  0.2326
  146MOL   C21744007   7.590   6.441   5.798 -0.0622 -0.1104 -0.1061
  146MOL   C21844008   7.672   6.488   5.915 -0.1463  0.3200  0.8371
  146MOL   H21944009   7.591   6.774   5.383  1.3080  0.9183 -0.2282
  146MOL   H22044010   7.693   6.784   5.524  0.9802 -1.8191 -3.7917
  146MOL   H22144011   7.466   6.771   5.654 -1.6759 -1.5104 -0.2512
  146MOL   H22244012   7.509   6.379   5.836  1.2992 -0.4906  2.2848
  146MOL   H22344013   7.642   6.373   5.731 -1.7173 -2.8323  1.2862
  146MOL   H22444014   7.631   6.565   5.980  1.9715  2.6799 -0.5051
  146MOL   H22544015   7.759   6.548   5.887  0.4172 -0.2185  1.3990
  146MOL   H22644016   7.701   6.399   5.971  0.2875  0.4665  0.8491
  146MOL   C22744017   7.356   6.704   5.490  0.2336 -0.1514 -0.1994
  146MOL   C22844018   7.229   6.653   5.576 -0.0162 -0.3614  0.2783
  146MOL   C22944019   7.190   6.758   5.685  0.2967 -0.4019  0.8275
  146MOL   O23044020   7.102   6.837   5.659 -0.4920 -0.0919  0.0039
  146MOL   O23144021   7.260   6.747   5.798 -0.2171  0.3242 -0.6545
  146MOL   C23244022   7.278   6.856   5.888  0.7095  0.3295 -0.4194
  146MOL   C23344023   7.353   6.812   6.008 -0.1156 -0.7609  0.3498
  146MOL   H23444024   7.323   6.800   5.450 -1.8362 -1.0023 -0.6045
  146MOL   H23544025   7.362   6.637   5.405 -0.8420  0.0665 -0.4529
  146MOL   H23644026   7.142   6.648   5.509  0.9976 -0.1843 -1.0820
  146MOL   H23744027   7.323   6.939   5.834 -1.5932  2.0242  0.1817
  146MOL   H23844028   7.177   6.891   5.910  0.0797 -0.4385 -1.9598
  146MOL   H23944029   7.458   6.805   5.980  0.0296  0.6386  0.4868
  146MOL   H24044030   7.301   6.728   6.054  0.1621 -0.6988  0.7810
  146MOL   H24144031   7.340   6.895   6.078  1.4555  0.4561 -0.7751
  146MOL   C24244032   7.231   6.510   5.629  0.0730  1.6758  0.0394
  146MOL   C24344033   7.102   6.426   5.650 -0.6242  0.2817  0.6665
  146MOL   C24444034   7.005   6.492   5.739 -0.2350 -0.8504 -0.4599
  146MOL   O24544035   6.898   6.539   5.695  0.8731 -0.5624  0.1582
  146MOL   O24644036   7.050   6.504   5.871  0.7576  0.0708 -1.0940
  146MOL   C24744037   6.981   6.591   5.966  0.1936 -0.3542 -0.1808
  146MOL   C24844038   6.961   6.504   6.089 -0.0309  0.1455 -0.6297
  146MOL   H24944039   7.288   6.455   5.553 -0.0163 -0.8656  1.7367
  146MOL   H25044040   7.305   6.497   5.708  0.6807  0.7441 -0.6632
  146MOL   H25144041   7.053   6.415   5.553 -3.9588  2.1484  2.0677
  146MOL   H25244042   7.038   6.677   5.999 -3.6494  2.1954  0.1729
  146MOL   H25344043   6.881   6.619   5.931  0.9869  0.9454 -1.4765
  146MOL   H25444044   6.895   6.420   6.072  0.4181  0.3574 -3.6165
  146MOL   H25544045   6.906   6.566   6.161  1.0463 -0.0201  0.3651
  146MOL   H25644046   7.057   6.475   6.132 -0.3494 -0.2476 -0.1740
  146MOL   C25744047   7.142   6.282   5.696 -0.1226 -0.2950 -0.7440
  146MOL   C25844048   7.064   6.169   5.625 -0.7255 -0.4174  0.0020
  146MOL   C25944049   7.096   6.142   5.478  0.0145 -0.0121 -0.2265
  146MOL   O26044050   7.138   6.036   5.437  0.4841 -0.4577  0.4568
  146MOL   O26144051   7.076   6.244   5.397  0.2978 -0.8804 -0.4699
  146MOL   C26244052   7.066   6.228   5.257 -0.1746  0.0193  0.5552
  146MOL   C26344053   7.189   6.265   5.168 -0.1016  0.3797 -0.3884
  146MOL   H26444054   7.242   6.265   5.656 -0.5032 -3.5259 -0.4080
  146MOL   H26544055   7.157   6.283   5.804  0.6633  0.7115 -0.8482
  146MOL   H26644056   7.104   6.077   5.669  1.0162  0.7646  0.9457
  146MOL   H26744057   7.045   6.123   5.235 -0.7554  0.1247  0.5787
  146MOL   H26844058   6.976   6.277   5.221 -0.2260 -0.1126  0.5040
  146MOL   H26944059   7.267   6.192   5.191  0.6400  1.1197 -0.5041
  146MOL   H27044060   7.235   6.358   5.202 -0.2826 -0.2970  1.7132
  146MOL   H27144061   7.176   6.262   5.059  2.5926  0.5218 -0.7568
  146MOL   C27244062   6.908   6.178   5.635  0.0792  0.1360 -0.1457
  146MOL   C27344063   6.846   6.147   5.777 -0.3154 -0.3125 -0.6652
  146MOL   C27444064   6.859   6.005   5.816  0.0597 -0.2204 -0.1228
  146MOL   O27544065   6.925   5.971   5.912 -0.3315  0.0182 -0.6695
  146MOL   O27644066   6.786   5.912   5.748 -0.1028 -0.1546  0.1113
  146MOL   C27744067   6.768   5.783   5.796 -0.8553 -0.3385  0.2102
  146MOL   C27844068   6.650   5.712   5.732  0.1324  0.6789  0.5619
  146MOL   H27944069   6.871   6.274   5.601  1.6440  1.0509  0.6624
  146MOL   H28044070   6.869   6.102   5.568 -1.0819  0.0613  0.5984
  146MOL   H28144071   6.890   6.196   5.864  0.4095 -1.3098 -0.4634
  146MOL   H28244072   6.859   5.723   5.799 -1.0018 -0.4976  2.3231
  146MOL   H28344073   6.742   5.801   5.900  1.5482  1.3898  0.5670
  146MOL   H28444074   6.636   5.606   5.754  0.3518  1.0852  2.7430
  146MOL   H28544075   6.681   5.712   5.627  0.6229  1.0773  0.7029
  146MOL   H28644076   6.555   5.766   5.732 -0.9189 -1.0863 -0.6362
  146MOL   C28744077   6.700   6.183   5.758  0.0784 -0.3588 -0.1247
  146MOL   C28844078   6.600   6.164   5.872 -0.0761 -0.2545 -0.7485
  146MOL   C28944079   6.621   6.231   6.011 -0.5874 -0.2493  0.1285
  146MOL   O29044080   6.719   6.208   6.076 -0.1719  0.3184 -0.2148
  146MOL   O29144081   6.534   6.336   6.034  0.0615  0.1282 -0.0253
  146MOL   C29244082   6.551   6.410   6.148  0.6426 -0.0665 -0.0189
  146MOL   C29344083   6.417   6.410   6.220 -0.1167 -0.1367  0.3570
  146MOL   H29444084   6.698   6.291   5.743  1.3653 -0.4292 -0.9417
  146MOL   H29544085   6.656   6.149   5.664 -0.3709  1.2770 -0.5408
  146MOL   H29644086   6.496   6.186   5.847 -0.3001 -0.5726 -0.1114
  146MOL   H29744087   6.644   6.397   6.203  0.2450 -0.0555  0.6630
  146MOL   H29844088   6.566   6.506   6.099 -4.1970  0.0526 -1.5775
  146MOL   H29944089   6.338   6.425   6.147  1.3442 -0.2611 -1.2845
  146MOL   H30044090   6.413   6.490   6.294  0.3612  0.6373 -0.4420
  146MOL   H30144091   6.394   6.313   6.265 -0.2130 -1.4589 -2.4581
  146MOL   H30244092   6.600   6.059   5.900 -1.2747 -0.3811 -1.1699
  147MOL     C144093   5.878   5.756   5.797 -0.4117  0.1670  0.2772
  147MOL     C244094   5.974   5.632   5.803  0.2859 -0.6789 -0.0329
  147MOL     C344095   5.935   5.537   5.916 -0.2970 -0.9558  0.4230
  147MOL     O444096   5.909   5.577   6.031 -0.2502 -0.0765 -0.0485
  147MOL     O544097   5.943   5.410   5.873 -0.1621 -0.2442 -0.0710
  147MOL     C644098   5.896   5.314   5.962 -0.1966  0.1568 -0.0511
  147MOL     C744099   5.996   5.203   5.973 -0.0849 -0.0981 -0.1425
  147MOL     H844100   5.773   5.727   5.799  0.3526 -3.1308 -2.7228
  147MOL     H944101   5.888   5.810   5.703 -0.0695 -0.9584 -0.3377
  147MOL    H1044102   5.960   5.588   5.704  0.0498  1.5392 -1.0329
  147MOL    H1144103   5.874   5.352   6.062  0.4253 -1.3696  0.6759
  147MOL    H1244104   5.810   5.269   5.911  0.9235 -1.9690 -0.0925
  147MOL    H1344105   5.960   5.124   6.039 -2.0818  0.4721 -0.5152
  147MOL    H1444106   6.084   5.248   6.017 -0.1399 -1.0279  0.9475
  147MOL    H1544107   6.018   5.164   5.873  1.7707 -3.1123  1.3756
  147MOL    H1644108   5.909   5.828   5.873 -0.8204 -0.4791  1.0639
  147MOL    C1744109   6.118   5.684   5.796 -0.3753  0.1577 -0.6327
  147MOL    C1844110   6.226   5.578   5.800  0.0172  0.0544  0.9638
  147MOL    C1944111   6.342   5.608   5.893 -0.1752  0.5961  0.7222
  147MOL    O2044112   6.361   5.719   5.941 -0.0905  0.2438  1.0042
  147MOL    O2144113   6.416   5.496   5.943 -0.2153  0.5385  0.0894
  147MOL    C2244114   6.509   5.512   6.052  0.3426  0.6171 -0.3136
  147MOL    C2344115   6.533   5.363   6.092 -0.3433 -0.2048  0.2950
  147MOL    H2444116   6.149   5.740   5.708 -0.0283  0.8968 -0.0520
  147MOL    H2544117   6.129   5.763   5.871  1.4403 -0.3232 -0.3713
  147MOL    H2644118   6.189   5.487   5.846  0.1183 -0.6324 -0.2788
  147MOL    H2744119   6.596   5.564   6.013  0.8506  0.3644  0.4630
  147MOL    H2844120   6.456   5.576   6.123 -1.8389 -0.3139 -1.0638
  147MOL    H2944121   6.590   5.360   6.184 -0.1687 -1.2269  0.1533
  147MOL    H3044122   6.579   5.310   6.009 -0.9572 -0.3280  0.0296
  147MOL    H3144123   6.438   5.314   6.114 -0.2642 -1.3235 -1.6595
  147MOL    C3244124   6.279   5.528   5.663  0.2111  0.2294 -0.6982
  147MOL    C3344125   6.177   5.463   5.570 -0.0219  0.1046 -0.1896
  147MOL    C3444126   6.152   5.314   5.615 -0.1401  0.1801 -0.5475
  147MOL    O3544127   6.217   5.263   5.707 -0.1481  0.1037 -0.3730
  147MOL    O3644128   6.068   5.244   5.542  0.3141 -0.6218  0.2753
  147MOL    C3744129   6.046   5.104   5.584 -0.3110 -0.2475 -0.2580
  147MOL    C3844130   5.895   5.071   5.552 -0.4500  0.4376 -0.0754
  147MOL    H3944131   6.316   5.615   5.610  0.9057 -1.3279 -2.7953
  147MOL    H4044132   6.363   5.461   5.675 -0.3736 -0.2903  0.6062
  147MOL    H4144133   6.088   5.525   5.580  1.0385  1.7387 -0.6147
  147MOL    H4244134   6.113   5.035   5.532 -0.1655  0.3030 -0.8149
  147MOL    H4344135   6.056   5.078   5.689  0.5455  0.1665 -0.2272
  147MOL    H4444136   5.834   5.128   5.622  1.3397  0.5204  1.4475
  147MOL    H4544137   5.881   4.969   5.587 -3.1537  1.2097  1.2518
  147MOL    H4644138   5.876   5.091   5.447 -2.1837 -1.1564 -0.0793
  147MOL    C4744139   6.234   5.462   5.422 -0.0177 -0.7342 -0.4953
  147MOL    C4844140   6.258   5.608   5.364  0.0670  0.0724 -0.2565
  147MOL    C4944141   6.132   5.695   5.388  0.1697 -0.3405 -0.4467
  147MOL    O5044142   6.147   5.809   5.430  0.1676 -0.0978  1.0396
  147MOL    O5144143   6.015   5.631   5.369  0.2026 -0.5034  0.4788
  147MOL    C5244144   5.895   5.701   5.399 -0.6480 -0.8194  0.1742
  147MOL    C5344145   5.770   5.632   5.342  0.5330 -0.2383 -0.0794
  147MOL    H5444146   6.331   5.414   5.429 -0.4892 -1.3387  2.7429
  147MOL    H5544147   6.170   5.407   5.353 -0.0798 -0.7704 -0.4076
  147MOL    H5644148   6.322   5.661   5.435 -1.4219 -0.5900  1.6462
  147MOL    H5744149   5.898   5.713   5.507 -0.3253 -1.7277  0.2768
  147MOL    H5844150   5.894   5.799   5.352  0.7407 -0.3977  1.0042
  147MOL    H5944151   5.756   5.535   5.390  0.1457 -0.5494 -0.8115
  147MOL    H6044152   5.767   5.614   5.235 -1.0028 -0.8109  0.0461
  147MOL    H6144153   5.685   5.697   5.363  1.2005  0.2437  1.1621
  147MOL    C6244154   6.300   5.601   5.219  0.2417  0.2978 -0.0349
  147MOL    C6344155   6.439   5.662   5.191 -0.1982 -0.1197  0.1727
  147MOL    C6444156   6.551   5.597   5.277  0.6399 -0.5932  0.1046
  147MOL    O6544157   6.587   5.653   5.384 -0.8933  0.3675  0.7029
  147MOL    O6644158   6.597   5.478   5.234  0.3195 -0.5343  0.2112
  147MOL    C6744159   6.686   5.412   5.325  0.4265  0.3098 -0.1845
  147MOL    C6844160   6.708   5.273   5.268  0.4470 -0.3151 -0.4576
  147MOL    H6944161   6.297   5.501   5.175  0.8821  0.7148 -1.0632
  147MOL    H7044162   6.219   5.653   5.167 -0.5861 -0.4657  0.4739
  147MOL    H7144163   6.448   5.623   5.089  1.7145  1.5516 -0.3301
  147MOL    H7244164   6.774   5.476   5.333  1.3095 -1.0869  1.5482
  147MOL    H7344165   6.647   5.396   5.426  0.5663  0.4057 -0.1144
  147MOL    H7444166   6.634   5.201   5.302 -1.4983  0.9329 -1.8782
  147MOL    H7544167   6.809   5.240   5.292  0.6051  0.7464  0.3638
  147MOL    H7644168   6.711   5.267   5.159  3.8871  1.8683 -0.5732
  147MOL    C7744169   6.440   5.816   5.172 -0.2312 -0.0438 -0.6785
  147MOL    C7844170   6.512   5.870   5.042  0.2483  0.1405 -0.1540
  147MOL    C7944171   6.664   5.876   5.065  0.2741  1.2947 -0.0433
  147MOL    O8044172   6.742   5.864   4.974 -0.6375 -0.5889 -0.2874
  147MOL    O8144173   6.699   5.906   5.193 -0.0157  0.0406 -0.6091
  147MOL    C8244174   6.837   5.920   5.226 -0.6635  0.3774  0.6722
  147MOL    C8344175   6.898   5.807   5.316 -0.3037  0.0051  0.2838
  147MOL    H8444176   6.338   5.853   5.163  0.0528  1.2298  0.9351
  147MOL    H8544177   6.467   5.872   5.262  1.0158 -2.9019  0.8066
  147MOL    H8644178   6.493   5.797   4.963  0.1599  3.9102 -3.7348
  147MOL    H8744179   6.904   5.931   5.141  0.3032  0.2324  1.3992
  147MOL    H8844180   6.852   6.010   5.285  2.0923  0.4953 -0.1469
  147MOL    H8944181   6.827   5.803   5.398  0.5478  2.3730  1.1750
  147MOL    H9044182   6.999   5.841   5.340  0.5828 -1.8506 -0.6319
  147MOL    H9144183   6.911   5.714   5.260  2.0736  0.2956  0.2614
  147MOL    C9244184   6.448   6.002   5.000  0.3429 -0.3561  0.0651
  147MOL    C9344185   6.349   5.993   4.880  0.2266  0.3790  0.7649
  147MOL    C9444186   6.214   5.929   4.925 -0.2580  0.6471 -0.4622
  147MOL    O9544187   6.174   5.826   4.875 -0.0330  0.1443 -0.1165
  147MOL    O9644188   6.158   5.983   5.029  0.6214  0.1430  0.5456
  147MOL    C9744189   6.034   5.926   5.081  0.3799  1.0031  1.0738
  147MOL    C9844190   5.939   6.036   5.143 -0.1250  0.3831 -1.0143
  147MOL    H9944191   6.406   6.060   5.082  0.0216 -1.8511  0.9723
  147MOL   H10044192   6.524   6.066   4.954  0.6407 -0.7684 -0.0279
  147MOL   H10144193   6.329   6.094   4.845 -3.6700 -1.0234 -1.3679
  147MOL   H10244194   5.983   5.865   5.006  1.0546 -0.0540  1.4637
  147MOL   H10344195   6.056   5.865   5.169 -0.2252 -2.0368 -0.8182
  147MOL   H10444196   5.981   6.079   5.234 -4.6125 -0.5375  1.6428
  147MOL   H10544197   5.847   5.985   5.171  0.3909  0.6407  1.1924
  147MOL   H10644198   5.911   6.115   5.073 -0.7867  2.3823  1.4588
  147MOL   C10744199   6.401   5.923   4.754  0.0769  0.2296 -0.1231
  147MOL   C10844200   6.333   5.964   4.619 -0.1888  0.3246 -0.1516
  147MOL   C10944201   6.335   5.859   4.517  0.6022 -0.1677 -0.3687
  147MOL   O11044202   6.239   5.833   4.446  0.5207  0.1158 -0.4231
  147MOL   O11144203   6.462   5.814   4.495  0.2711 -0.2259 -0.2972
  147MOL   C11244204   6.507   5.732   4.390  0.2171  0.0849  0.0778
  147MOL   C11344205   6.508   5.793   4.252  0.1110  0.1182  0.2228
  147MOL   H11444206   6.509   5.941   4.746 -0.1597  0.6755 -3.0373
  147MOL   H11544207   6.398   5.814   4.760  2.6375  0.2281  1.9539
  147MOL   H11644208   6.229   5.993   4.639 -0.6065 -1.0441 -0.3118
  147MOL   H11744209   6.605   5.688   4.408 -0.2480 -0.8123  0.4199
  147MOL   H11844210   6.436   5.650   4.387  0.0876  0.0678  2.4668
  147MOL   H11944211   6.602   5.846   4.241  0.6503 -1.2287 -1.7015
  147MOL   H12044212   6.433   5.870   4.231 -0.3164  0.4135  2.6700
  147MOL   H12144213   6.504   5.723   4.170  1.3936 -0.0495  0.2982
  147MOL   C12244214   6.395   6.099   4.572  0.4211  0.0419  0.2687
  147MOL   C12344215   6.332   6.149   4.441  0.4241 -0.3588 -0.0553
  147MOL   C12444216   6.408   6.274   4.384  1.0233 -0.2189  0.3585
  147MOL   O12544217   6.343   6.375   4.350 -0.1046 -0.1835  0.4403
  147MOL   O12644218   6.536   6.249   4.367  0.1498 -0.3320  0.2096
  147MOL   C12744219   6.603   6.346   4.294 -0.2001 -0.0839 -0.1131
  147MOL   C12844220   6.642   6.306   4.145  0.1536  0.5383  0.3403
  147MOL   H12944221   6.380   6.179   4.645 -0.4014  0.2280 -0.0969
  147MOL   H13044222   6.503   6.088   4.559  0.4985  0.9632  0.0318
  147MOL   H13144223   6.353   6.074   4.364 -0.2137 -1.0898  0.4823
  147MOL   H13244224   6.564   6.448   4.295  2.2813  0.8959  1.5107
  147MOL   H13344225   6.705   6.359   4.329 -0.2590 -0.8032  0.3310
  147MOL   H13444226   6.699   6.214   4.132 -0.8204 -0.0627  0.2452
  147MOL   H13544227   6.698   6.391   4.107 -1.3613  0.5066 -2.0308
  147MOL   H13644228   6.553   6.286   4.086 -0.8052  1.2178  1.5415
  147MOL   C13744229   6.184   6.157   4.455  0.0448  0.2907  0.5680
  147MOL   C13844230   6.102   6.192   4.320  0.1807 -0.1288 -0.3083
  147MOL   C13944231   5.949   6.159   4.337 -0.1532  0.9497  0.1729
  147MOL   O14044232   5.908   6.049   4.299  0.5137 -0.0452  0.8555
  147MOL   O14144233   5.877   6.255   4.394  0.1842 -0.0426  0.0166
  147MOL   C14244234   5.743   6.234   4.404 -0.3441  0.3438  0.5368
  147MOL   C14344235   5.670   6.329   4.500  0.4145  0.1600 -0.1314
  147MOL   H14444236   6.139   6.063   4.487 -0.9229  0.7298  0.5320
  147MOL   H14544237   6.148   6.221   4.536  0.3679  0.6049  0.4659
  147MOL   H14644238   6.111   6.300   4.303  0.5061  0.0836  1.1698
  147MOL   H14744239   5.697   6.243   4.305 -0.3383  0.2440  0.5246
  147MOL   H14844240   5.709   6.137   4.441 -2.1090  0.6010 -0.3592
  147MOL   H14944241   5.684   6.429   4.460 -0.7898  0.3741 -0.0580
  147MOL   H15044242   5.712   6.331   4.601  2.1462  2.8556 -0.8702
  147MOL   H15144243   5.564   6.309   4.521  0.6775 -0.7068  0.4094
  147MOL   C15244244   6.155   6.123   4.194 -0.3454 -0.3680 -0.7164
  147MOL   C15344245   6.105   6.174   4.054 -0.2803 -0.0608 -0.3364
  147MOL   C15444246   6.132   6.072   3.941 -0.1862  0.2096 -0.0130
  147MOL   O15544247   6.240   6.012   3.935 -0.0786 -0.1637  0.2795
  147MOL   O15644248   6.032   6.049   3.857 -0.4793  0.3106 -1.2011
  147MOL   C15744249   6.032   5.938   3.765 -0.2363 -0.1675 -0.1721
  147MOL   C15844250   5.895   5.884   3.734 -0.1273  0.7368  0.4095
  147MOL   H15944251   6.264   6.124   4.192 -0.3482 -1.0812 -3.7086
  147MOL   H16044252   6.131   6.017   4.194 -2.0746  0.0078  0.6706
  147MOL   H16144253   5.999   6.202   4.051 -1.5172 -4.4758 -1.4665
  147MOL   H16244254   6.081   5.962   3.671  2.3942  1.0560  1.4467
  147MOL   H16344255   6.103   5.864   3.803  0.3383  0.8232  0.7059
  147MOL   H16444256   5.893   5.787   3.686  0.2995  2.4399 -3.2090
  147MOL   H16544257   5.846   5.950   3.663  0.0251 -0.0083 -0.3824
  147MOL   H16644258   5.824   5.879   3.816 -2.3093 -1.2386 -1.5465
  147MOL   C16744259   6.167   6.314   4.029 -0.1069 -0.0778  0.7417
  147MOL   C16844260   6.114   6.393   3.898  0.2845  0.1498 -1.2308
  147MOL   C16944261   6.193   6.533   3.896  0.1915 -0.4009 -0.5643
  147MOL   O17044262   6.240   6.579   3.793 -0.8505 -0.5926  0.2484
  147MOL   O17144263   6.205   6.591   4.014  0.3354 -0.5626 -0.2276
  147MOL   C17244264   6.280   6.704   4.039 -0.7612 -0.3539 -0.3800
  147MOL   C17344265   6.284   6.710   4.195 -0.0044  0.0819 -0.3282
  147MOL   H17444266   6.138   6.375   4.115 -2.5211 -2.3440  1.5836
  147MOL   H17544267   6.276   6.316   4.033  0.0429 -0.0518 -2.3797
  147MOL   H17644268   6.147   6.345   3.806 -0.4905 -1.3285 -0.7587
  147MOL   H17744269   6.381   6.696   3.999  0.8935 -1.0001  3.5911
  147MOL   H17844270   6.241   6.794   3.991  0.8145  0.1253 -0.8040
  147MOL   H17944271   6.194   6.756   4.236  1.4190  0.9027  1.9833
  147MOL   H18044272   6.356   6.790   4.214 -0.7293  0.6121  0.2147
  147MOL   H18144273   6.308   6.615   4.244  1.1923 -0.2840 -1.6076
  147MOL   C18244274   5.964   6.408   3.887  0.0825 -0.4845 -0.0010
  147MOL   C18344275   5.917   6.472   3.755  0.6411  0.0065  0.9343
  147MOL   C18444276   5.830   6.603   3.768  0.6813 -0.2107  0.5764
  147MOL   O18544277   5.735   6.624   3.693 -0.1934  0.4597  0.1970
  147MOL   O18644278   5.877   6.678   3.854  0.7065  0.0309 -0.1748
  147MOL   C18744279   5.811   6.799   3.899 -0.7694  0.3083 -0.3024
  147MOL   C18844280   5.908   6.866   3.999  0.7741  0.3939 -0.8065
  147MOL   H18944281   5.910   6.317   3.914  0.1269 -0.3568  0.5140
  147MOL   H19044282   5.935   6.476   3.967  2.3152  0.4939  0.0135
  147MOL   H19144283   6.003   6.507   3.699 -1.5325  0.8321 -2.0412
  147MOL   H19244284   5.792   6.863   3.813 -1.9013 -0.5426 -0.7132
  147MOL   H19344285   5.721   6.764   3.950 -0.5641 -0.6241 -0.5570
  147MOL   H19444286   6.008   6.861   3.956  0.4185 -0.7736 -1.5642
  147MOL   H19544287   5.926   6.797   4.081  1.2541 -1.2315 -2.2455
  147MOL   H19644288   5.872   6.956   4.048  0.0691  0.9158 -2.2325
  147MOL   C19744289   5.846   6.363   3.672  0.0536  0.5546  0.4728
  147MOL   C19844290   5.836   6.402   3.524 -0.1931  0.4184 -0.3252
  147MOL   C19944291   5.714   6.336   3.459  1.0340 -0.1847  0.6211
  147MOL   O20044292   5.673   6.231   3.501  0.1314  0.6407 -0.4625
  147MOL   O20144293   5.672   6.389   3.344 -0.7217  0.0218  0.4254
  147MOL   C20244294   5.546   6.348   3.294 -0.3705 -0.2971  0.0927
  147MOL   C20344295   5.492   6.431   3.173 -0.2899  0.0858  0.4091
  147MOL   H20444296   5.910   6.275   3.684 -2.0713 -0.7651  2.6244
  147MOL   H20544297   5.750   6.336   3.715  0.1560 -0.0958  0.2929
  147MOL   H20644298   5.832   6.509   3.500  2.4876  0.9102  1.3054
  147MOL   H20744299   5.558   6.242   3.272  1.4811 -0.0345 -0.2335
  147MOL   H20844300   5.481   6.367   3.380 -0.4222  0.2851 -0.0778
  147MOL   H20944301   5.400   6.386   3.135  0.3378 -0.0882 -0.9579
  147MOL   H21044302   5.560   6.430   3.088 -2.1134 -2.2191 -1.1002
  147MOL   H21144303   5.467   6.534   3.198 -0.2061  0.2774 -0.2839
  147MOL   C21244304   5.964   6.359   3.446 -0.7374 -0.0927 -0.3664
  147MOL   C21344305   6.097   6.451   3.450 -0.7182 -0.0204  0.8500
  147MOL   C21444306   6.066   6.590   3.404  0.1393  0.1282 -0.0984
  147MOL   O21544307   6.036   6.623   3.288  0.0001  0.2824  0.2743
  147MOL   O21644308   6.067   6.681   3.503  0.0576  0.3958 -0.3906
  147MOL   C21744309   6.065   6.824   3.478 -0.5101 -0.8877 -0.2523
  147MOL   C21844310   6.043   6.910   3.603 -0.7269 -0.3251 -0.3506
  147MOL   H21944311   6.006   6.270   3.492  1.8107  1.5143  0.5203
  147MOL   H22044312   5.935   6.335   3.344  0.8319 -1.4789 -0.5019
  147MOL   H22144313   6.134   6.455   3.552 -1.7053 -1.0285  1.2668
  147MOL   H22244314   6.155   6.860   3.428 -2.7058 -0.3484 -4.0113
  147MOL   H22344315   5.985   6.846   3.408  1.2565  2.6547 -1.2472
  147MOL   H22444316   6.134   6.917   3.662 -0.9103 -1.8637  0.1539
  147MOL   H22544317   5.968   6.856   3.661  1.7415 -1.4091  1.9234
  147MOL   H22644318   6.002   7.005   3.569 -1.1469 -0.3859 -0.0231
  147MOL   C22744319   6.222   6.391   3.377 -0.0682  0.3062 -0.3654
  147MOL   C22844320   6.264   6.247   3.414  0.1173 -0.4873  0.0860
  147MOL   C22944321   6.292   6.218   3.557  0.5287  0.6597  0.5552
  147MOL   O23044322   6.206   6.152   3.626 -0.2124 -0.3071  0.1086
  147MOL   O23144323   6.409   6.279   3.608  0.1249 -0.3812 -0.6845
  147MOL   C23244324   6.443   6.267   3.744  0.0245  0.0234  0.1730
  147MOL   C23344325   6.536   6.144   3.762 -0.4052  0.7253 -0.8034
  147MOL   H23444326   6.197   6.387   3.271  1.8887 -0.4415 -0.8134
  147MOL   H23544327   6.302   6.463   3.394  0.1555  0.5992 -2.5268
  147MOL   H23644328   6.191   6.174   3.381  0.2464 -0.1534 -0.9511
  147MOL   H23744329   6.489   6.358   3.784  1.6489 -0.2141 -1.0949
  147MOL   H23844330   6.351   6.252   3.800  0.9783 -0.1634  1.7076
  147MOL   H23944331   6.573   6.124   3.863  2.6619 -0.4350 -2.1099
  147MOL   H24044332   6.614   6.134   3.687 -1.1115  0.5373 -1.5208
  147MOL   H24144333   6.475   6.054   3.749  1.5231 -0.5604 -1.2229
  147MOL   C24244334   6.384   6.217   3.323 -0.0893  0.2569 -0.4682
  147MOL   C24344335   6.403   6.073   3.276  0.2800  0.0260 -0.1427
  147MOL   C24444336   6.303   6.015   3.177 -0.1552 -0.1416  0.5545
  147MOL   O24544337   6.239   5.915   3.204 -0.1805 -0.3558  0.6811
  147MOL   O24644338   6.306   6.080   3.063 -0.0871  0.1656  0.4728
  147MOL   C24744339   6.216   6.047   2.960 -0.2980  0.2578  0.6026
  147MOL   C24844340   6.254   6.119   2.836  0.2576 -0.2491  0.7679
  147MOL   H24944341   6.373   6.278   3.233  1.5118  2.3819  0.7118
  147MOL   H25044342   6.483   6.238   3.364 -0.7862 -0.4683  1.6793
  147MOL   H25144343   6.500   6.081   3.228  0.7630 -0.2023  0.7751
  147MOL   H25244344   6.234   5.942   2.936  0.1722  0.6950 -1.0363
  147MOL   H25344345   6.114   6.069   2.991 -0.1873  0.5747  0.7512
  147MOL   H25444346   6.255   6.223   2.867 -0.1710  0.1097 -0.4344
  147MOL   H25544347   6.181   6.107   2.756  2.1980  1.5218 -1.3173
  147MOL   H25644348   6.349   6.107   2.784  1.7687  0.8349  3.1734
  147MOL   C25744349   6.426   5.973   3.395  0.1382  0.3834  0.3762
  147MOL   C25844350   6.505   5.841   3.357 -0.1548  0.2343 -0.1788
  147MOL   C25944351   6.497   5.745   3.482  0.2238  0.8616  0.0306
  147MOL   O26044352   6.458   5.629   3.483 -0.4723 -0.7792  0.4581
  147MOL   O26144353   6.541   5.802   3.598 -0.5017 -0.1137 -0.3313
  147MOL   C26244354   6.509   5.740   3.725 -0.8108  0.1529  0.2701
  147MOL   C26344355   6.366   5.768   3.754 -0.7913 -0.3806 -0.0909
  147MOL   H26444356   6.488   6.026   3.469 -0.0562  0.3915  0.5347
  147MOL   H26544357   6.333   5.951   3.448 -0.2912  0.1648 -0.4579
  147MOL   H26644358   6.450   5.788   3.280  0.0494 -0.9050  0.4528
  147MOL   H26744359   6.533   5.634   3.722  3.0621  0.9696  0.5083
  147MOL   H26844360   6.573   5.783   3.802  1.4941  0.9602 -2.0331
  147MOL   H26944361   6.304   5.704   3.691 -1.2266 -0.7454  0.6915
  147MOL   H27044362   6.336   5.871   3.736 -0.6064 -0.0467  1.4430
  147MOL   H27144363   6.324   5.738   3.851  0.9539  1.0449  1.1334
  147MOL   C27244364   6.658   5.870   3.327 -0.2160 -0.3651 -0.5516
  147MOL   C27344365   6.725   5.758   3.247  0.3412 -0.0669  0.3134
  147MOL   C27444366   6.841   5.699   3.336  0.0312 -0.4126 -0.1282
  147MOL   O27544367   6.958   5.744   3.331 -0.3466  0.0314  0.0820
  147MOL   O27644368   6.804   5.604   3.422 -0.3984  0.6294 -0.2076
  147MOL   C27744369   6.890   5.555   3.527 -0.1875 -0.0819 -0.1069
  147MOL   C27844370   6.930   5.659   3.632  0.3801  0.1148  0.1199
  147MOL   H27944371   6.673   5.964   3.274  0.3079 -0.6315 -0.8735
  147MOL   H28044372   6.709   5.878   3.423 -0.9417 -0.5507 -0.1477
  147MOL   H28144373   6.649   5.680   3.244  1.1020 -0.7670 -1.2979
  147MOL   H28244374   6.845   5.469   3.576 -2.4821  1.1402  0.0176
  147MOL   H28344375   6.986   5.525   3.487  0.0137  1.2199 -0.6165
  147MOL   H28444376   7.003   5.618   3.701  2.0818  2.0228 -0.5263
  147MOL   H28544377   6.848   5.698   3.692 -0.1662 -0.2842 -0.3588
  147MOL   H28644378   6.974   5.741   3.577 -0.1994  0.9849  0.9399
  147MOL   C28744379   6.757   5.808   3.100  0.1252 -0.2493  0.1962
  147MOL   C28844380   6.792   5.691   3.012 -0.3679  0.1816 -0.2058
  147MOL   C28944381   6.669   5.619   2.960 -0.2278  0.7178 -0.0069
  147MOL   O29044382   6.557   5.671   2.949 -0.5740 -0.2510 -0.5946
  147MOL   O29144383   6.700   5.494   2.925  0.3450  0.2843 -0.0102
  147MOL   C29244384   6.609   5.420   2.857  0.8096 -0.2057  0.0886
  147MOL   C29344385   6.676   5.290   2.811 -0.3909 -0.4544 -0.4748
  147MOL   H29444386   6.685   5.874   3.053  1.8617  1.0213 -0.7557
  147MOL   H29544387   6.847   5.869   3.112  1.1616 -1.5376 -0.8287
  147MOL   H29644388   6.850   5.720   2.924  0.6002 -1.0412  0.0081
  147MOL   H29744389   6.533   5.397   2.932  0.6128 -1.1133 -0.3846
  147MOL   H29844390   6.569   5.475   2.771  0.8048  0.3320  0.4333
  147MOL   H29944391   6.740   5.249   2.890  0.2061  0.9095 -0.2353
  147MOL   H30044392   6.754   5.309   2.737  0.8454  1.4323  1.2337
  147MOL   H30144393   6.598   5.219   2.787 -0.5092 -0.0703 -1.2242
  147MOL   H30244394   6.859   5.619   3.058 -0.6254  0.5974  0.8209
  148MOL     C144395   3.110   6.555   6.783 -0.2547 -0.6260 -0.1366
  148MOL     C244396   3.056   6.478   6.909 -0.1635 -0.8825  0.5549
  148MOL     C344397   2.980   6.350   6.870  0.0347 -0.1397  0.3303
  148MOL     O444398   3.006   6.248   6.930 -0.1027 -0.1396  0.2083
  148MOL     O544399   2.907   6.365   6.761  0.0059  0.1261 -0.3644
  148MOL     C644400   2.817   6.257   6.734 -0.1425  0.7183  0.5332
  148MOL     C744401   2.786   6.255   6.584 -0.0350 -0.7132 -0.1398
  148MOL     H844402   3.177   6.496   6.722 -0.0053 -1.5640  1.0203
  148MOL     H944403   3.165   6.646   6.805  2.4446 -1.3758 -3.4574
  148MOL    H1044404   3.145   6.443   6.962  0.1095 -0.8999  0.0854
  148MOL    H1144405   2.856   6.160   6.764  0.8358  0.7512 -0.6046
  148MOL    H1244406   2.722   6.279   6.784 -0.7662 -2.5172  0.8260
  148MOL    H1344407   2.720   6.173   6.556 -0.9343  0.7597 -2.4130
  148MOL    H1444408   2.884   6.231   6.543  0.7813 -0.4446  1.6015
  148MOL    H1544409   2.731   6.342   6.548  0.1734 -0.5575 -0.0843
  148MOL    H1644410   3.028   6.587   6.719 -0.6758 -3.3978 -1.0650
  148MOL    C1744411   2.967   6.573   6.996 -0.4110  0.6234 -0.1066
  148MOL    C1844412   2.930   6.502   7.126  0.0234  0.0919 -0.7658
  148MOL    C1944413   2.787   6.530   7.162  0.0948  0.0423  0.0671
  148MOL    O2044414   2.720   6.441   7.204 -0.1310  0.4829 -0.2147
  148MOL    O2144415   2.763   6.664   7.156  0.2477 -0.0450 -0.0624
  148MOL    C2244416   2.634   6.720   7.127 -0.7325 -0.8790  0.1139
  148MOL    C2344417   2.616   6.762   6.985 -0.5933 -0.1873  0.3290
  148MOL    H2444418   3.022   6.666   7.015  0.2475 -0.1866  2.1100
  148MOL    H2544419   2.885   6.604   6.932  0.0076 -0.4861 -1.2003
  148MOL    H2644420   2.939   6.394   7.117 -2.6209 -0.2260 -0.1460
  148MOL    H2744421   2.550   6.654   7.150 -1.8675  1.1009  1.8517
  148MOL    H2844422   2.619   6.808   7.190  0.0848  0.0085 -0.8954
  148MOL    H2944423   2.522   6.808   6.956 -0.3743 -0.9826 -1.7412
  148MOL    H3044424   2.640   6.669   6.934  2.4718  1.2589 -1.0077
  148MOL    H3144425   2.694   6.834   6.958  0.6022 -2.3037 -2.1235
  148MOL    C3244426   3.025   6.548   7.246  0.3622  0.1181 -0.5441
  148MOL    C3344427   3.014   6.458   7.375 -0.0591 -0.3087  0.5297
  148MOL    C3444428   3.094   6.526   7.498 -0.3900 -0.0673 -0.8802
  148MOL    O3544429   3.141   6.636   7.497 -0.2798 -0.0306 -0.4212
  148MOL    O3644430   3.111   6.449   7.604 -0.4669 -0.2844  0.2862
  148MOL    C3744431   3.165   6.519   7.711  0.8977  0.5122 -0.0401
  148MOL    C3844432   3.132   6.425   7.827 -0.3406 -0.1764 -0.4963
  148MOL    H3944433   3.127   6.549   7.207  0.9922  0.0060  1.0458
  148MOL    H4044434   3.015   6.648   7.289 -0.5476  0.0179 -0.5220
  148MOL    H4144435   2.913   6.446   7.414  0.7392 -0.1290  2.7469
  148MOL    H4244436   3.270   6.539   7.692  1.0653  2.5644  2.6273
  148MOL    H4344437   3.119   6.615   7.737  0.4409  0.4058 -0.4577
  148MOL    H4444438   3.183   6.331   7.805  1.3814  0.4303  0.8016
  148MOL    H4544439   3.026   6.403   7.838  0.1318 -1.5961  1.6053
  148MOL    H4644440   3.180   6.459   0.010 -0.5656 -0.7311 -0.1693
  148MOL    C4744441   3.070   6.313   7.344 -0.0332 -0.0364 -0.7130
  148MOL    C4844442   2.962   6.200   7.339 -0.5632 -1.0207  0.0798
  148MOL    C4944443   2.895   6.175   7.473 -0.4455  0.2230 -0.1503
  148MOL    O5044444   2.786   6.220   7.492 -0.4487 -0.0011 -0.6880
  148MOL    O5144445   2.975   6.115   7.551  0.1122  0.0865 -0.5168
  148MOL    C5244446   2.928   6.068   7.676 -0.1979  0.2979 -0.0544
  148MOL    C5344447   2.997   5.935   7.716  0.1292 -0.7464 -0.4361
  148MOL    H5444448   3.140   6.309   7.261  2.8984 -0.4093  1.6929
  148MOL    H5544449   3.142   6.286   7.421  0.9318  0.6909 -1.3596
  148MOL    H5644450   2.880   6.237   7.278 -0.0315  0.8857  0.4909
  148MOL    H5744451   2.949   6.147   7.747  1.2484  1.4046 -1.6924
  148MOL    H5844452   2.819   6.062   7.683 -0.2930 -1.3813 -2.3061
  148MOL    H5944453   3.105   5.943   7.705  0.2838 -0.7307  0.9488
  148MOL    H6044454   2.959   5.848   7.663 -2.0369  0.1476 -0.3772
  148MOL    H6144455   2.977   5.911   7.821  0.3949 -0.5823 -0.3468
  148MOL    C6244456   3.022   6.071   7.276  0.0623 -0.0684 -0.1319
  148MOL    C6344457   2.930   5.950   7.252 -0.1682 -0.5484 -0.0446
  148MOL    C6444458   3.018   5.820   7.247 -0.1282  0.2163  0.1728
  148MOL    O6544459   3.002   5.734   7.161  0.0336 -0.5410  0.2159
  148MOL    O6644460   3.094   5.808   7.350  0.1521  0.6199 -0.1743
  148MOL    C6744461   3.152   5.680   7.376  0.4035 -0.3732  0.0672
  148MOL    C6844462   3.248   5.687   7.493 -0.4564  0.0862 -0.2547
  148MOL    H6944463   3.061   6.106   7.181  2.5160 -2.9045 -0.2515
  148MOL    H7044464   3.108   6.051   7.340 -0.0108 -2.1614 -0.6401
  148MOL    H7144465   2.863   5.945   7.337 -0.1300 -0.6139 -0.0191
  148MOL    H7244466   3.081   5.598   7.386 -0.9071  0.3532 -2.6992
  148MOL    H7344467   3.212   5.652   7.289 -0.8164 -2.4030 -0.1583
  148MOL    H7444468   3.202   5.683   7.592 -2.5957  1.6489 -1.1377
  148MOL    H7544469   3.301   5.782   7.487 -4.3976  2.2856 -1.9155
  148MOL    H7644470   3.317   5.604   7.479 -2.5065 -1.7190  0.1206
  148MOL    C7744471   2.835   5.962   7.129 -0.1256  0.3408 -0.0557
  148MOL    C7844472   2.690   5.903   7.136  0.6484  0.0194  0.1960
  148MOL    C7944473   2.641   5.863   6.997  0.2845 -0.0701  0.1738
  148MOL    O8044474   2.614   5.748   6.968 -0.5143 -0.0125  0.3285
  148MOL    O8144475   2.634   5.969   6.922  0.1414  0.1583  0.0613
  148MOL    C8244476   2.595   5.970   6.790 -0.0666 -0.8292  0.4606
  148MOL    C8344477   2.446   6.021   6.797  0.1027 -0.1075 -0.2535
  148MOL    H8444478   2.809   6.061   7.091 -1.7434 -0.9043 -2.3350
  148MOL    H8544479   2.884   5.922   7.041  0.1631  3.2486 -1.2774
  148MOL    H8644480   2.698   5.813   7.196  0.3445 -0.5688 -0.6433
  148MOL    H8744481   2.654   6.041   6.732 -4.2519  2.0851 -0.5087
  148MOL    H8844482   2.604   5.873   6.739 -3.3130 -1.8717  1.7175
  148MOL    H8944483   2.403   6.032   6.697 -1.8700 -0.2135  0.5639
  148MOL    H9044484   2.448   6.116   6.851 -1.2683  0.2633 -0.8274
  148MOL    H9144485   2.394   5.941   6.850  1.4003 -0.9863 -0.2792
  148MOL    C9244486   2.590   6.000   7.203  0.8298 -0.6560  0.4494
  148MOL    C9344487   2.453   5.956   7.247  1.1949 -0.2410  0.1118
  148MOL    C9444488   2.334   5.953   7.151  0.4968  0.3706 -0.1899
  148MOL    O9544489   2.313   6.040   7.062 -0.5729  0.0017  0.3652
  148MOL    O9644490   2.255   5.842   7.167 -0.5163  0.0830  0.0322
  148MOL    C9744491   2.139   5.811   7.084  0.1859 -0.1232 -0.2695
  148MOL    C9844492   2.016   5.898   7.124 -0.2772  0.4271 -0.4559
  148MOL    H9944493   2.647   6.037   7.288  0.1771 -0.6731  0.8973
  148MOL   H10044494   2.582   6.087   7.137  1.0810 -1.0243 -0.0646
  148MOL   H10144495   2.466   5.850   7.270 -1.1264 -0.2818  1.3602
  148MOL   H10244496   2.170   5.828   6.981 -1.1991  1.3222 -0.4622
  148MOL   H10344497   2.118   5.704   7.088  1.1403 -0.5062 -3.5361
  148MOL   H10444498   2.007   5.915   7.231 -1.3832  1.2173 -0.6615
  148MOL   H10544499   1.921   5.859   7.089  0.0553 -0.4680 -0.3836
  148MOL   H10644500   2.039   5.994   7.076  3.1602  0.2489  0.7124
  148MOL   C10744501   2.393   6.020   7.380 -0.0702 -0.4669  0.7628
  148MOL   C10844502   2.491   6.024   7.500 -0.1372  0.1538  0.4657
  148MOL   C10944503   2.572   5.899   7.521 -0.0030  0.7246 -0.4317
  148MOL   O11044504   2.692   5.889   7.491  0.3385  0.0401  0.3375
  148MOL   O11144505   2.493   5.800   7.579 -0.3990 -0.0898  0.4131
  148MOL   C11244506   2.561   5.683   7.628  0.1014 -0.5115 -0.1457
  148MOL   C11344507   2.526   5.661   7.770 -0.2190 -0.0309 -0.4607
  148MOL   H11444508   2.377   6.126   7.361  0.5707 -0.8451 -2.2053
  148MOL   H11544509   2.307   5.957   7.404  0.8069 -2.2298 -0.5328
  148MOL   H11644510   2.570   6.095   7.475  0.3558 -0.9517 -1.2260
  148MOL   H11744511   2.521   5.603   7.565 -0.6282  0.6391 -1.1690
  148MOL   H11844512   2.668   5.697   7.612  0.1962 -1.3009 -0.2572
  148MOL   H11944513   2.562   5.566   7.809  2.7982  0.8323 -1.0314
  148MOL   H12044514   2.417   5.656   7.773 -0.0990 -3.6034 -0.4896
  148MOL   H12144515   2.558   5.744   7.835 -2.2609 -1.0013  1.8624
  148MOL   C12244516   2.422   6.069   7.634 -0.2601 -0.2774 -0.6941
  148MOL   C12344517   2.399   6.227   7.632  0.1782 -0.0326  0.1286
  148MOL   C12444518   2.524   6.315   7.642 -0.6731  0.6723 -0.7762
  148MOL   O12544519   2.592   6.307   7.741 -0.4729 -0.4137 -0.4615
  148MOL   O12644520   2.546   6.401   7.546  0.5305  0.0602  0.3155
  148MOL   C12744521   2.655   6.493   7.551 -0.4203  0.4496  0.1682
  148MOL   C12844522   2.610   6.616   7.466 -0.4596  0.2937 -0.2819
  148MOL   H12944523   2.329   6.021   7.661 -1.0439  0.8685 -1.3180
  148MOL   H13044524   2.486   6.043   7.718  0.2397 -0.6075 -1.1677
  148MOL   H13144525   2.378   6.266   7.532  0.7065 -0.5101 -0.1723
  148MOL   H13244526   2.679   6.519   7.654  1.3890 -0.3253 -0.0351
  148MOL   H13344527   2.744   6.447   7.507 -0.8314  1.4647 -1.7408
  148MOL   H13444528   2.676   6.702   7.482 -0.8444  0.6328 -0.4876
  148MOL   H13544529   2.504   6.637   7.483 -0.5962 -1.4127  1.0693
  148MOL   H13644530   2.597   6.591   7.361 -0.1386 -2.0008  0.1957
  148MOL   C13744531   2.282   6.270   7.726  0.1022  0.7406  1.0226
  148MOL   C13844532   2.230   6.416   7.716 -0.3079 -0.0165  0.3693
  148MOL   C13944533   2.174   6.445   7.576 -0.0224  0.3239 -0.1694
  148MOL   O14044534   2.193   6.551   7.513 -0.4863  0.2512 -0.3963
  148MOL   O14144535   2.104   6.346   7.536  0.3027  0.0303 -0.1538
  148MOL   C14244536   2.043   6.338   7.417 -0.2254 -0.0389  0.8833
  148MOL   C14344537   2.089   6.218   7.330  0.4756 -0.3366  0.1919
  148MOL   H14444538   2.200   6.200   7.713 -1.0786  2.2557  0.0545
  148MOL   H14544539   2.312   6.258   7.830 -0.2480  1.3296  1.1929
  148MOL   H14644540   2.144   6.425   7.783  0.6627 -0.7823  1.7233
  148MOL   H14744541   1.937   6.328   7.438 -1.0586  0.6270 -2.8036
  148MOL   H14844542   2.044   6.435   7.369 -0.3430 -1.0530 -1.2138
  148MOL   H14944543   2.195   6.227   7.308  0.2726  1.7770 -0.0025
  148MOL   H15044544   2.031   6.204   7.239  0.6121  0.6926 -0.0580
  148MOL   H15144545   2.071   6.126   7.386 -1.9716  1.6697  2.8636
  148MOL   C15244546   2.323   6.522   7.771 -0.3846 -0.0993 -0.3215
  148MOL   C15344547   2.267   6.612   7.881 -0.0718 -0.9034  0.6445
  148MOL   C15444548   2.237   6.541   0.108 -0.7071  0.5566  0.4574
  148MOL   O15544549   2.306   6.580   0.206 -1.1717  0.8572  0.2284
  148MOL   O15644550   2.133   6.451   0.109  0.2730 -0.3924  0.1129
  148MOL   C15744551   2.122   6.375   0.231  0.9566 -0.0169 -0.4981
  148MOL   C15844552   2.049   6.258   0.190 -0.5975 -0.1319  0.5104
  148MOL   H15944553   2.420   6.481   7.801 -0.9219 -1.3944 -0.3124
  148MOL   H16044554   2.362   6.590   7.696 -0.0431  1.7349  1.4588
  148MOL   H16144555   2.355   6.673   7.898 -0.5145 -0.3064  0.8231
  148MOL   H16244556   2.222   6.357   0.271  0.5833  1.5413  1.1601
  148MOL   H16344557   2.053   6.427   0.297  0.0742 -1.3249 -0.3761
  148MOL   H16444558   1.964   6.305   0.140  0.9132  0.8309 -1.2043
  148MOL   H16544559   2.015   6.203   0.278 -0.8463  2.3991  2.0207
  148MOL   H16644560   2.098   6.197   0.114  1.3034  0.1127  1.5096
  148MOL   C16744561   2.136   6.696   7.845  0.3517 -0.8748 -0.1917
  148MOL   C16844562   2.104   6.803   0.038  0.3812 -0.6348 -0.2076
  148MOL   C16944563   1.960   6.849   0.032  0.6012  0.6626 -0.1728
  148MOL   O17044564   1.891   6.844   0.131 -0.6033 -0.0035 -0.4347
  148MOL   O17144565   1.931   6.912   7.821 -0.0536  0.2483 -0.2522
  148MOL   C17244566   1.812   6.981   7.801  0.2522  0.4073  0.5777
  148MOL   C17344567   1.834   7.132   7.829 -0.1671  0.1245 -0.4441
  148MOL   H17444568   2.152   6.737   7.745  0.7077 -1.5236 -0.4046
  148MOL   H17544569   2.047   6.636   7.829 -0.5533  0.8120 -1.7203
  148MOL   H17644570   2.106   6.759   0.138 -0.8981 -0.7139 -0.2161
  148MOL   H17744571   1.783   6.960   7.698 -0.8560  0.4621  0.8709
  148MOL   H17844572   1.723   6.939   7.848 -0.8645  2.3379  0.2287
  148MOL   H17944573   1.821   7.145   0.028  0.5493  3.2274 -0.6941
  148MOL   H18044574   1.765   7.203   7.784  0.6092  1.6492  0.7159
  148MOL   H18144575   1.927   7.174   7.791  0.4292 -0.3195  0.5071
  148MOL   C18244576   2.214   6.918   0.026  0.2586  0.1093  0.0957
  148MOL   C18344577   2.288   6.949   0.165  0.2954  0.1824  0.8664
  148MOL   C18444578   2.187   7.009   0.263  0.6329 -0.3281 -0.2966
  148MOL   O18544579   2.153   6.942   0.359 -0.1246  0.0415  0.2333
  148MOL   O18644580   2.122   7.122   0.223  0.8337  0.6030  0.5695
  148MOL   C18744581   2.020   7.183   0.301  0.2883 -0.0683  0.8954
  148MOL   C18844582   2.004   7.321   0.237 -0.0807  0.4377  0.3438
  148MOL   H18944583   2.297   6.886   7.872 -0.3780 -0.6614 -0.3703
  148MOL   H19044584   2.164   7.006   7.895  0.2132 -0.2912 -0.7506
  148MOL   H19144585   2.308   6.856   0.216 -1.2253 -0.2833  0.6438
  148MOL   H19244586   1.925   7.134   0.279 -0.0842  1.0654 -0.1092
  148MOL   H19344587   2.044   7.206   0.404 -0.8505 -0.7859  1.3258
  148MOL   H19444588   1.921   7.375   0.282 -0.3094 -0.3167  0.8492
  148MOL   H19544589   2.000   7.314   0.129  1.7515  1.6228  0.1690
  148MOL   H19644590   2.089   7.382   0.267  0.3936  0.8361 -1.7542
  148MOL   C19744591   2.421   7.019   0.157 -0.3866  0.3577  0.3931
  148MOL   C19844592   2.531   6.945   0.082 -0.2894 -0.5942  0.7458
  148MOL   C19944593   2.579   6.817   0.150  0.1008  0.2908  0.1057
  148MOL   O20044594   2.567   6.798   0.269  0.1265 -0.7155 -0.9394
  148MOL   O20144595   2.630   6.735   0.063 -0.3960  0.0756 -0.6349
  148MOL   C20244596   2.673   6.606   0.093 -0.5656 -0.0918 -0.2157
  148MOL   C20344597   2.814   6.573   0.047  0.6258 -0.3464  0.0132
  148MOL   H20444598   2.402   7.118   0.115  0.1730  1.1596  1.9481
  148MOL   H20544599   2.458   7.034   0.259  1.0104 -3.0646  0.4436
  148MOL   H20644600   2.487   6.906   7.899 -0.3897  0.6428  0.2546
  148MOL   H20744601   2.666   6.590   0.200 -0.3559  0.4698 -0.1163
  148MOL   H20844602   2.604   6.534   0.049  1.2015 -0.6300 -2.1855
  148MOL   H20944603   2.890   6.648   0.070 -1.4891  1.0133  2.8682
  148MOL   H21044604   2.821   6.541   7.851  1.5418  1.1370 -0.3931
  148MOL   H21144605   2.846   6.482   0.097  0.9847 -0.6232 -0.7087
  148MOL   C21244606   2.649   7.040   0.043 -0.0520  0.1198  0.1048
  148MOL   C21344607   2.616   7.154   7.849 -0.5844  0.3893  0.0189
  148MOL   C21444608   2.648   7.109   7.710 -0.3028  0.0691  0.2606
  148MOL   O21544609   2.562   7.123   7.621  0.2043 -0.6496 -0.7487
  148MOL   O21644610   2.774   7.062   7.696 -0.0426  0.1702  0.1224
  148MOL   C21744611   2.825   7.004   7.579  0.1910  0.1382  0.2471
  148MOL   C21844612   2.969   6.957   7.608 -0.0605 -0.3609  0.3117
  148MOL   H21944613   2.669   7.096   0.134  0.2719  2.2525 -1.2282
  148MOL   H22044614   2.737   6.983   0.012 -1.0323 -1.2966 -0.1034
  148MOL   H22144615   2.507   7.164   7.851 -0.4855  1.9053 -1.3878
  148MOL   H22244616   2.768   6.917   7.547  1.2276  0.0297 -1.3300
  148MOL   H22344617   2.824   7.074   7.495 -1.8399 -1.1512 -0.8290
  148MOL   H22444618   3.039   7.037   7.633 -2.3553  1.9358 -0.3427
  148MOL   H22544619   2.997   6.887   7.529  0.1691  0.8658 -0.7126
  148MOL   H22644620   2.969   6.898   7.699 -1.8094  1.2381  1.4052
  148MOL   C22744621   2.697   7.283   7.892 -0.0049 -0.6691  0.6205
  148MOL   C22844622   2.650   7.367   0.096  0.6069  0.1534  0.1002
  148MOL   C22944623   2.500   7.404   0.086 -0.3336  0.0333  0.3884
  148MOL   O23044624   2.429   7.406   0.183  0.4614 -0.0878 -0.3321
  148MOL   O23144625   2.459   7.440   7.871  0.6620 -0.2616 -0.1432
  148MOL   C23244626   2.324   7.473   7.836  1.0967  0.3991  0.3748
  148MOL   C23344627   2.252   7.359   7.754 -0.3157 -0.3921 -0.3684
  148MOL   H23444628   2.801   7.259   0.005  0.2391  0.8361  1.1464
  148MOL   H23544629   2.701   7.344   7.801 -0.0909  1.1837  1.8324
  148MOL   H23644630   2.654   7.309   0.188 -1.9123 -0.2303 -0.0015
  148MOL   H23744631   2.264   7.492   0.016  0.1435 -0.4372 -0.0767
  148MOL   H23844632   2.325   7.561   7.772 -0.3632  0.3204  0.2283
  148MOL   H23944633   2.283   7.360   7.649 -0.9132 -1.0048 -0.5575
  148MOL   H24044634   2.145   7.378   7.756 -0.2259  0.0645 -0.0570
  148MOL   H24144635   2.269   7.265   7.806  0.7304 -0.5228 -0.9297
  148MOL   C24244636   2.729   7.494   0.110 -0.1381 -1.5990 -0.3128
  148MOL   C24344637   2.876   7.489   0.148 -0.1803  0.7089  0.2166
  148MOL   C24444638   2.901   7.448   0.291 -0.5493 -0.0085 -0.2980
  148MOL   O24544639   2.954   7.529   0.372 -0.4508 -0.4332 -0.1450
  148MOL   O24644640   2.865   7.325   0.310  0.2526  0.4774 -0.5505
  148MOL   C24744641   2.877   7.265   0.439 -0.8756 -0.2787  0.0933
  148MOL   C24844642   2.862   7.112   0.424 -0.1736  0.4888  0.2365
  148MOL   H24944643   2.720   7.549   0.016  0.3079 -3.1106 -1.2746
  148MOL   H25044644   2.683   7.536   0.199 -0.1705 -1.2271 -0.5036
  148MOL   H25144645   2.918   7.408   0.089  0.0708 -0.0302  1.3975
  148MOL   H25244646   2.963   7.292   0.500  0.0555 -3.2308  0.1476
  148MOL   H25344647   2.789   7.303   0.491 -1.5102  0.2654 -1.3558
  148MOL   H25444648   2.934   7.076   0.350 -3.3127 -1.9113 -1.7641
  148MOL   H25544649   2.760   7.087   0.395 -0.0172 -1.0058  0.9541
  148MOL   H25644650   2.870   7.069   0.524 -4.0913 -0.1982  0.3370
  148MOL   C25744651   2.958   7.614   0.103 -0.0975 -0.5171 -0.4908
  148MOL   C25844652   2.982   7.633   7.859  0.5165 -0.6709 -0.2809
  148MOL   C25944653   3.067   7.514   7.813  0.4786  0.4436  0.6290
  148MOL   O26044654   3.024   7.415   7.751 -0.2169  0.3192  0.0062
  148MOL   O26144655   3.194   7.522   7.868 -0.7638  0.4606  0.2772
  148MOL   C26244656   3.282   7.408   7.859 -0.2559  0.2025 -0.0822
  148MOL   C26344657   3.352   7.397   0.088  0.1808 -0.4120 -0.3179
  148MOL   H26444658   2.901   7.701   0.135 -0.9146 -1.2057 -0.0531
  148MOL   H26544659   3.058   7.620   0.146 -0.8523  0.5981  1.1688
  148MOL   H26644660   2.891   7.632   7.797  0.9841 -0.0783 -0.9860
  148MOL   H26744661   3.235   7.311   7.844 -0.8391  0.5443 -0.4431
  148MOL   H26844662   3.364   7.423   7.789  0.3532 -0.1457  0.5378
  148MOL   H26944663   3.416   7.482   0.107  0.3807 -0.2685 -1.6185
  148MOL   H27044664   3.414   7.307   0.095  0.9194 -0.0978 -2.6262
  148MOL   H27144665   3.272   7.378   0.160  0.8870 -1.3353  0.2408
  148MOL   C27244666   3.045   7.771   7.812  0.2258 -0.1642  0.5502
  148MOL   C27344667   3.034   7.815   7.664 -0.7435 -0.5182  0.0715
  148MOL   C27444668   3.120   0.034   7.633  0.8827 -0.8180 -0.2677
  148MOL   O27544669   3.214   0.034   7.558  0.2420 -0.2311 -0.3543
  148MOL   O27644670   3.071   0.142   7.695 -0.0623  0.1464 -0.2264
  148MOL   C27744671   3.159   0.262   7.701  0.1539  0.4085  0.3920
  148MOL   C27844672   3.092   0.356   7.592  0.2791  0.3526 -0.2198
  148MOL   H27944673   3.006   7.851   7.875  0.8310  2.4921 -2.3355
  148MOL   H28044674   3.150   7.761   7.841  0.7896  1.1657 -0.9369
  148MOL   H28144675   3.086   7.734   7.612  1.9334  0.8915  0.4967
  148MOL   H28244676   3.158   0.299   7.803 -1.5453 -0.4370  0.6858
  148MOL   H28344677   3.263   0.237   7.680 -0.2559 -1.2290  0.2812
  148MOL   H28444678   3.137   0.454   7.602  1.3375 -0.1755  0.2706
  148MOL   H28544679   2.986   0.375   7.610  0.4448 -0.2793  1.5647
  148MOL   H28644680   3.104   0.302   7.498  0.0068 -0.0123 -0.0454
  148MOL   C28744681   2.894   7.817   7.602  0.0122 -0.0310 -0.0848
  148MOL   C28844682   2.780   7.885   7.702 -0.0818  0.7712  0.4798
  148MOL   C28944683   2.649   7.818   7.683  0.0344  0.8041 -0.1862
  148MOL   O29044684   2.640   7.696   7.695 -0.0748  0.7286  0.3313
  148MOL   O29144685   2.550   7.905   7.643  0.9067  0.1157 -0.2462
  148MOL   C29244686   2.420   7.858   7.596 -0.2380 -0.2282 -0.2462
  148MOL   C29344687   2.320   0.071   7.583 -0.1393 -0.3748 -0.0910
  148MOL   H29444688   2.897   7.878   7.512  1.0670  0.5119  0.3052
  148MOL   H29544689   2.851   7.722   7.572 -0.1459 -0.2584  0.8503
  148MOL   H29644690   2.794   7.849   7.804 -1.9917 -1.9275 -0.1400
  148MOL   H29744691   2.438   7.814   7.498 -1.4417  1.2974 -1.1807
  148MOL   H29844692   2.379   7.773   7.651  0.0270 -0.5097 -0.4816
  148MOL   H29944693   2.232   0.036   7.530  0.1605 -0.1204 -0.7546
  148MOL   H30044694   2.364   0.155   7.530 -1.0621  0.0719 -0.1590
  148MOL   H30144695   2.297   0.118   7.679  0.9827  1.1333 -0.5575
  148MOL   H30244696   2.786   0.085   7.706 -0.7998  0.8549 -0.4885
  149MOL     C144697   7.725   5.269   3.469  0.1960 -0.0715 -0.1094
  149MOL     C244698   7.612   5.339   3.554  0.0539  0.0183 -0.5016
  149MOL     C344699   7.575   5.254   3.668 -0.6886 -0.0785  0.9927
  149MOL     O444700   7.513   5.147   3.661  0.2566  0.4996 -0.4609
  149MOL     O544701   7.602   5.314   3.786 -0.1630  0.0403  0.6709
  149MOL     C644702   7.570   5.243   3.908 -0.6439  0.4965 -0.6347
  149MOL     C744703   7.658   5.309   4.013 -0.6927 -0.1938 -0.7957
  149MOL     H844704   7.763   5.337   3.393  0.7918 -2.5175 -2.0675
  149MOL     H944705   7.698   5.185   3.406 -1.4987  2.0938 -2.3756
  149MOL    H1044706   7.663   5.427   3.590 -2.0151  0.4515  1.4714
  149MOL    H1144707   7.462   5.242   3.923 -0.6783 -0.9421 -0.8783
  149MOL    H1244708   7.602   5.139   3.900  1.2563  0.9867  0.2130
  149MOL    H1344709   7.759   5.314   3.972  0.7268  0.9545  2.6373
  149MOL    H1444710   7.659   5.250   4.105 -0.3563  2.4636  0.9541
  149MOL    H1544711   7.613   5.407   4.027 -1.0843 -0.7120  1.8003
  149MOL    H1644712   7.814   5.248   3.528 -0.7188 -0.3590  1.1974
  149MOL    C1744713   7.489   5.385   3.470 -0.0084  0.3549  0.1916
  149MOL    C1844714   7.517   5.507   3.379  0.3462  0.6550  0.5673
  149MOL    C1944715   7.567   5.634   3.453 -0.7958  0.3003  0.3175
  149MOL    O2044716   7.678   5.686   3.425  0.3395  0.3730  0.2701
  149MOL    O2144717   7.479   5.693   3.534 -0.1139  0.7376  0.4370
  149MOL    C2244718   7.505   5.832   3.578 -0.1226 -0.0823 -0.4205
  149MOL    C2344719   7.595   5.843   3.703  0.4463 -0.6327  0.5613
  149MOL    H2444720   7.439   5.302   3.420 -1.5271  0.6566  1.1606
  149MOL    H2544721   7.408   5.419   3.535  0.9461  0.4421  1.3642
  149MOL    H2644722   7.599   5.478   3.314 -0.3635  0.3146 -0.1784
  149MOL    H2744723   7.548   5.880   3.490 -0.5430 -1.1629 -1.2199
  149MOL    H2844724   7.405   5.866   3.605 -0.4291 -0.7681 -0.6977
  149MOL    H2944725   7.642   5.941   3.716  1.2248 -0.6675 -1.7409
  149MOL    H3044726   7.682   5.778   3.699 -0.2213 -1.4701 -0.3533
  149MOL    H3144727   7.538   5.821   3.793 -0.5237 -0.4565 -0.0059
  149MOL    C3244728   7.387   5.538   3.303  0.3029  0.0220 -0.0566
  149MOL    C3344729   7.393   5.646   3.196  0.6872 -0.1347  0.8254
  149MOL    C3444730   7.256   5.689   3.143 -0.0228 -0.0385  0.8692
  149MOL    O3544731   7.166   5.599   3.114 -0.2565  0.2443 -0.2821
  149MOL    O3644732   7.244   5.820   3.128 -0.5770 -0.8837 -0.1283
  149MOL    C3744733   7.118   5.872   3.087  0.2697  0.5193  0.0490
  149MOL    C3844734   7.148   5.992   2.991  0.6391  0.3403 -0.2074
  149MOL    H3944735   7.341   5.448   3.263  1.3125 -0.5557  0.0741
  149MOL    H4044736   7.317   5.579   3.376 -1.4898 -0.0892 -1.6896
  149MOL    H4144737   7.440   5.727   3.251 -0.9204  0.5640  1.1890
  149MOL    H4244738   7.057   5.798   3.035  1.8472 -0.2187 -0.7816
  149MOL    H4344739   7.058   5.894   3.175  0.0078 -0.2812  0.0717
  149MOL    H4444740   7.224   6.053   3.040 -0.4158  0.8007  0.9072
  149MOL    H4544741   7.054   6.044   2.973  0.6374  0.0878 -0.9330
  149MOL    H4644742   7.189   5.958   2.896  1.0842 -1.9766  0.7763
  149MOL    C4744743   7.491   5.610   3.077  0.1510 -1.0072  0.5477
  149MOL    C4844744   7.523   5.717   2.971  0.3061  0.1267  0.0803
  149MOL    C4944745   7.451   5.665   2.844 -0.4945  0.3258  0.1802
  149MOL    O5044746   7.344   5.719   2.804 -0.2396 -0.5220 -0.0412
  149MOL    O5144747   7.515   5.560   2.786  0.2459  0.3368 -0.3404
  149MOL    C5244748   7.472   5.518   2.654  0.4498 -0.1944  0.3425
  149MOL    C5344749   7.585   5.434   2.593  0.0144  0.7408 -0.0839
  149MOL    H5444750   7.584   5.590   3.132  0.8924 -0.7105 -0.5874
  149MOL    H5544751   7.469   5.511   3.036  0.2469 -1.3364  1.2763
  149MOL    H5644752   7.473   5.803   3.018 -0.5617 -1.0428  1.3465
  149MOL    H5744753   7.384   5.454   2.661 -1.1088  1.4466 -3.0103
  149MOL    H5844754   7.437   5.600   2.593 -1.9687 -1.8096 -0.4949
  149MOL    H5944755   7.593   5.343   2.654 -1.5474  0.1503 -0.7478
  149MOL    H6044756   7.678   5.489   2.579 -0.4802  1.6539  0.2256
  149MOL    H6144757   7.549   5.406   2.494  1.3888  0.1239 -0.4362
  149MOL    C6244758   7.673   5.757   2.946  0.5529 -0.1043  0.3056
  149MOL    C6344759   7.731   5.818   3.072  0.0018 -0.0986 -0.7008
  149MOL    C6444760   7.668   5.951   3.113 -0.1542 -0.9234  0.2703
  149MOL    O6544761   7.598   6.020   3.033 -0.3830  0.4006 -0.5206
  149MOL    O6644762   7.699   5.992   3.236  0.3023 -0.4980 -1.1840
  149MOL    C6744763   7.660   6.119   3.283  0.3421  1.3665  0.8976
  149MOL    C6844764   7.747   6.157   3.400 -1.0197 -0.7974 -0.4994
  149MOL    H6944765   7.732   5.683   2.892  3.1207  2.5573 -0.6387
  149MOL    H7044766   7.651   5.830   2.868  0.2349 -0.9472 -0.4119
  149MOL    H7144767   7.718   5.756   3.160  0.0090 -0.3253 -0.8596
  149MOL    H7244768   7.687   6.186   3.200  0.4115 -0.7863 -0.8712
  149MOL    H7344769   7.554   6.133   3.302 -0.3192 -1.3180 -0.5466
  149MOL    H7444770   7.729   6.264   3.412  1.3730 -0.5838  1.6383
  149MOL    H7544771   7.851   6.144   3.370 -0.6836  1.4305 -0.4420
  149MOL    H7644772   7.729   6.107   3.494  0.1631  3.8682  2.3824
  149MOL    C7744773   7.886   5.839   3.068  0.7555 -0.5255 -0.0302
  149MOL    C7844774   0.066   5.718   3.099  1.0714  0.3392 -0.4482
  149MOL    C7944775   0.058   5.617   2.991 -0.1342  0.4481 -0.1335
  149MOL    O8044776   0.136   5.621   2.894 -0.1567  0.6002 -0.0032
  149MOL    O8144777   7.878   5.525   3.011  0.3201  0.4692  0.4275
  149MOL    C8244778   7.879   5.417   2.923 -1.1187 -0.0916  0.6725
  149MOL    C8344779   7.766   5.313   2.951 -0.2984 -0.1212  0.1030
  149MOL    H8444780   7.900   5.874   2.965 -0.3425  2.9473  0.9210
  149MOL    H8544781   0.015   5.922   3.128 -2.0871  2.0792 -1.7122
  149MOL    H8644782   0.166   5.762   3.100  1.2351  0.0170 -2.1747
  149MOL    H8744783   7.875   5.446   2.818  1.7876 -2.8420 -0.2731
  149MOL    H8844784   0.068   5.369   2.936 -0.8850 -0.2885 -1.6388
  149MOL    H8944785   7.668   5.350   2.920 -0.2105  0.6147  0.6944
  149MOL    H9044786   7.772   5.280   3.054 -2.3817  1.7387  0.8652
  149MOL    H9144787   7.794   5.229   2.888  0.7124  2.8995 -3.6471
  149MOL    C9244788   0.042   5.669   3.247  0.0086  0.7671 -0.3314
  149MOL    C9344789   0.164   5.624   3.329 -0.6124  0.1124 -0.3820
  149MOL    C9444790   0.278   5.561   3.246  0.2657 -0.2118 -0.1395
  149MOL    O9544791   0.288   5.440   3.229  0.1316  0.2221 -0.4684
  149MOL    O9644792   0.349   5.653   3.189 -0.5497 -0.2064  0.0584
  149MOL    C9744793   0.445   5.615   3.099 -0.1197 -0.4238  0.6740
  149MOL    C9844794   0.536   5.730   3.060  0.0907 -0.4189  0.6904
  149MOL    H9944795   7.897   5.750   3.296 -1.2416  0.1448 -0.6399
  149MOL   H10044796   7.880   5.587   3.237  0.5270  0.4261 -1.2361
  149MOL   H10144797   0.212   5.717   3.357 -1.5497 -0.2127  2.5171
  149MOL   H10244798   0.505   5.542   3.153  1.0138 -0.5135 -0.6539
  149MOL   H10344799   0.404   5.567   3.010  1.2813  0.0143 -0.2209
  149MOL   H10444800   0.611   5.691   2.992 -1.4372 -0.1776 -1.1653
  149MOL   H10544801   0.599   5.772   3.139  0.1937  0.8026 -0.0347
  149MOL   H10644802   0.477   5.805   3.007  1.0580  0.5238  0.9254
  149MOL   C10744803   0.117   5.546   3.457  0.6511 -0.0206  0.6616
  149MOL   C10844804   0.235   5.510   3.539 -0.6901 -0.2727  0.2594
  149MOL   C10944805   0.220   5.374   3.609 -1.0585 -0.2217  0.3050
  149MOL   O11044806   0.297   5.279   3.578  0.2899 -0.1937  0.5748
  149MOL   O11144807   0.119   5.370   3.691 -0.1698 -0.6118 -0.2845
  149MOL   C11244808   0.104   5.254   3.769  0.4919  0.1748 -0.1560
  149MOL   C11344809   0.186   5.264   3.894 -0.3862 -0.5971  0.3101
  149MOL   H11444810   0.057   5.620   3.511 -1.5071 -0.6021 -0.9003
  149MOL   H11544811   0.063   5.453   3.444  0.5118  0.1780 -0.1639
  149MOL   H11644812   0.321   5.506   3.472  0.1645  0.7143  1.2769
  149MOL   H11744813   7.908   5.245   3.801  0.0174  0.2460 -1.6336
  149MOL   H11844814   0.109   5.165   3.707 -1.0391 -0.3399  0.4209
  149MOL   H11944815   0.175   5.352   3.957 -0.5800  1.2459 -2.2291
  149MOL   H12044816   0.291   5.255   3.866  0.1723  2.1040  1.3845
  149MOL   H12144817   0.160   5.177   3.955  1.9046 -1.0276  0.7186
  149MOL   C12244818   0.282   5.622   3.638  0.3386  0.4717 -0.6336
  149MOL   C12344819   0.417   5.614   3.702 -0.6887  0.4391 -0.5723
  149MOL   C12444820   0.411   5.634   3.857 -0.0145 -0.4311  0.3638
  149MOL   O12544821   0.346   5.727   3.908 -0.3537 -0.5489 -0.1316
  149MOL   O12644822   0.472   5.535   3.930 -0.1962 -0.4678  0.6572
  149MOL   C12744823   0.455   5.537   4.067  0.0143  0.0678  0.4424
  149MOL   C12844824   0.491   5.407   4.130  0.0148 -0.1265 -0.1422
  149MOL   H12944825   0.248   5.721   3.608 -0.6663 -0.0113 -1.1151
  149MOL   H13044826   0.210   5.606   3.718  1.7559 -0.7263  0.4228
  149MOL   H13144827   0.456   5.512   3.705  0.5053  0.9129  0.2229
  149MOL   H13244828   0.507   5.626   4.103 -1.6110 -0.1985  3.7214
  149MOL   H13344829   0.346   5.539   4.081  0.2890 -0.3718  2.9801
  149MOL   H13444830   0.596   5.380   4.120  0.2551  0.6844  0.1998
  149MOL   H13544831   0.423   5.335   4.084  1.9912 -0.3004 -2.8786
  149MOL   H13644832   0.476   5.410   4.238  1.0118  2.0594 -0.0387
  149MOL   C13744833   0.519   5.703   3.630 -0.3823 -0.1213  0.0336
  149MOL   C13844834   0.562   5.656   3.479 -0.7458  0.5005  0.4782
  149MOL   C13944835   0.621   5.521   3.477  0.4128  0.2643 -0.4933
  149MOL   O14044836   0.656   5.459   3.578 -0.3753 -0.5323 -0.2484
  149MOL   O14144837   0.623   5.476   3.353 -0.7410  0.4783 -0.1653
  149MOL   C14244838   0.691   5.356   3.331 -0.1526 -0.4651  0.2090
  149MOL   C14344839   0.700   5.309   3.182  0.4847  0.2422  0.6504
  149MOL   H14444840   0.471   5.800   3.620 -0.5059 -0.1841  0.0047
  149MOL   H14544841   0.605   5.714   3.696 -0.2441 -3.1463  0.4379
  149MOL   H14644842   0.464   5.646   3.432 -0.4401  0.7670 -0.2187
  149MOL   H14744843   0.796   5.360   3.359  0.0973  0.5958 -0.8335
  149MOL   H14844844   0.643   5.269   3.376  0.8813  0.2730  2.8176
  149MOL   H14944845   0.603   5.287   3.137  0.8786 -0.1422 -0.0134
  149MOL   H15044846   0.770   5.229   3.155 -1.4052 -1.4563  0.6230
  149MOL   H15144847   0.728   5.391   3.116  0.0747 -0.2994 -0.2009
  149MOL   C15244848   0.640   5.757   3.400  0.8667 -0.0720  1.0765
  149MOL   C15344849   0.772   5.815   3.463  0.1750  0.5247 -0.0358
  149MOL   C15444850   0.750   5.940   3.544  0.4024  0.4838 -0.0798
  149MOL   O15544851   0.779   5.956   3.658 -0.1836 -0.1121 -0.4646
  149MOL   O15644852   0.683   6.033   3.476 -0.1738  0.3517 -0.1382
  149MOL   C15744853   0.666   6.164   3.532  0.2011 -0.1342 -0.3092
  149MOL   C15844854   0.537   6.194   3.615 -0.2429  0.2536  0.4395
  149MOL   H15944855   0.670   5.703   3.311 -0.6624 -1.8985  1.6439
  149MOL   H16044856   0.578   5.841   3.368  2.6564  1.0035  0.3753
  149MOL   H16144857   0.817   5.745   3.533  0.4145 -0.0720 -0.7773
  149MOL   H16244858   0.755   6.180   3.593  2.2192 -0.1505 -3.1662
  149MOL   H16344859   0.672   6.246   3.461 -1.4040  1.0936  0.9365
  149MOL   H16444860   0.454   6.182   3.546  0.3199  0.9402 -0.3771
  149MOL   H16544861   0.526   6.289   3.667 -3.4472  0.1488  0.0292
  149MOL   H16644862   0.521   6.110   3.683  0.3585 -0.4998 -0.3423
  149MOL   C16744863   0.891   5.841   3.367  0.2092  0.3620 -0.0261
  149MOL   C16844864   0.947   5.726   3.284  0.6882 -0.2145  0.2407
  149MOL   C16944865   1.013   5.612   3.362  0.5486  0.4094 -0.2175
  149MOL   O17044866   0.976   5.497   3.349  0.2574  0.3988 -0.7879
  149MOL   O17144867   1.114   5.658   3.442  0.5220  0.4046  0.3239
  149MOL   C17244868   1.191   5.573   3.511  0.0527 -0.3088  0.6135
  149MOL   C17344869   1.310   5.659   3.552  0.0390  0.0589 -0.4602
  149MOL   H17444870   0.862   5.926   3.305  1.9264  0.4919 -0.6879
  149MOL   H17544871   0.976   5.877   3.426  2.6795 -1.4683 -2.3145
  149MOL   H17644872   0.867   5.690   3.220  0.3618 -1.6989  1.4485
  149MOL   H17744873   1.146   5.535   3.602 -1.0166  1.3380  0.7670
  149MOL   H17844874   1.222   5.488   3.448  0.9014  1.4931 -1.4721
  149MOL   H17944875   1.280   5.753   3.597 -1.3552 -1.7955  2.6616
  149MOL   H18044876   1.374   5.677   3.466  0.1913  0.4971 -0.2550
  149MOL   H18144877   1.368   5.603   3.625  0.4756 -0.4610 -1.1943
  149MOL   C18244878   1.047   5.778   3.180  0.0223  0.4142 -0.1881
  149MOL   C18344879   1.092   5.678   3.072 -0.0435 -0.0214 -0.2474
  149MOL   C18444880   1.234   5.701   3.021 -0.1324 -0.5489 -0.0917
  149MOL   O18544881   1.320   5.618   3.042 -0.1829 -0.0349  0.8672
  149MOL   O18644882   1.253   5.830   2.961  0.0205 -0.3777 -0.3302
  149MOL   C18744883   1.385   5.872   2.935 -0.4131  0.2180 -0.3112
  149MOL   C18844884   1.388   6.021   2.889  0.7060  0.0609  0.3566
  149MOL   H18944885   1.002   5.871   3.143  2.0428  1.7686  0.6581
  149MOL   H19044886   1.136   5.818   3.228  0.3060 -0.8398  0.3381
  149MOL   H19144887   1.111   5.587   3.128  0.3373 -0.0700 -0.4548
  149MOL   H19244888   1.457   5.864   3.016  0.8183  2.6668 -1.0927
  149MOL   H19344889   1.421   5.805   2.857  0.3023 -0.5703  0.6920
  149MOL   H19444890   1.489   6.057   2.868  0.7280  0.0518  0.4502
  149MOL   H19544891   1.350   6.083   2.969 -0.5591  1.5000 -1.3155
  149MOL   H19644892   1.315   6.028   2.808 -0.6944 -1.8128  1.4155
  149MOL   C19744893   0.983   5.641   2.965  0.2022 -0.4104 -0.4093
  149MOL   C19844894   0.984   5.724   2.841  0.4395 -0.0275  0.8057
  149MOL   C19944895   0.926   5.862   2.854 -0.7960  0.1056 -0.4785
  149MOL   O20044896   0.851   5.881   2.947 -1.0491  0.4270 -0.4204
  149MOL   O20144897   0.961   5.943   2.755 -0.9325  0.9658 -0.8058
  149MOL   C20244898   0.922   6.076   2.749 -0.3819  0.2720  0.0263
  149MOL   C20344899   0.783   6.083   2.688  0.3449 -0.4043 -0.0875
  149MOL   H20444900   1.003   5.538   2.933  1.5040 -0.3498  0.1956
  149MOL   H20544901   0.885   5.636   3.011  1.8666 -1.5870  3.1886
  149MOL   H20644902   1.088   5.751   2.819 -0.2162 -1.0213 -4.0485
  149MOL   H20744903   0.917   6.130   2.844 -0.4359 -1.8443  1.2484
  149MOL   H20844904   1.005   6.123   2.697  0.8035  0.4725  2.0477
  149MOL   H20944905   0.773   6.185   2.649 -1.8406 -0.7110 -0.3350
  149MOL   H21044906   0.693   6.053   2.741 -0.6984 -1.2802 -2.2822
  149MOL   H21144907   0.788   6.028   2.594 -0.4538 -2.8655  1.2971
  149MOL   C21244908   0.925   5.657   2.715 -0.0098 -0.6677 -0.3937
  149MOL   C21344909   0.769   5.638   2.714  0.1705 -0.6772  0.3554
  149MOL   C21444910   0.733   5.490   2.733 -0.0381 -0.2612  0.2140
  149MOL   O21544911   0.678   5.459   2.835  0.2349  0.3659  0.0367
  149MOL   O21644912   0.758   5.411   2.628 -0.0587  0.9769  0.2744
  149MOL   C21744913   0.712   5.277   2.629 -0.0587 -0.4226 -0.6599
  149MOL   C21844914   0.788   5.210   2.517 -0.2638  0.3824 -0.0858
  149MOL   H21944915   0.964   5.712   2.629  0.7619  1.8648  1.5207
  149MOL   H22044916   0.976   5.563   2.691 -1.0478 -0.8059 -2.1453
  149MOL   H22144917   0.736   5.700   2.798 -0.9190  1.8915 -1.8890
  149MOL   H22244918   0.738   5.230   2.724  0.1066 -0.2319 -0.6111
  149MOL   H22344919   0.606   5.260   2.609 -0.1210 -1.7524  0.7215
  149MOL   H22444920   0.892   5.197   2.548  0.4923 -2.2812 -3.4645
  149MOL   H22544921   0.796   5.262   2.422 -0.2637  1.5234  0.5341
  149MOL   H22644922   0.763   5.104   2.509  0.2029  0.0780  2.0441
  149MOL   C22744923   0.706   5.702   2.582  0.1193  0.4258 -0.6291
  149MOL   C22844924   0.554   5.737   2.598  0.8006  0.4668  0.1719
  149MOL   C22944925   0.464   5.612   2.604  0.8580  0.2127 -0.0106
  149MOL   O23044926   0.407   5.587   2.712  0.5698  0.3455 -0.4004
  149MOL   O23144927   0.428   5.554   2.480 -0.0469 -0.1069  0.2409
  149MOL   C23244928   0.334   5.447   2.487  0.3003  0.0006 -0.3533
  149MOL   C23344929   0.308   5.389   2.345  0.0855 -0.0495 -0.0422
  149MOL   H23444930   0.754   5.798   2.565  0.3690  0.3370 -0.4262
  149MOL   H23544931   0.719   5.645   2.490  1.0794 -0.8643  0.2972
  149MOL   H23644932   0.534   5.798   2.685 -1.4563  1.2227 -0.8195
  149MOL   H23744933   0.363   5.376   2.564  0.0411  0.4708  0.1839
  149MOL   H23844934   0.244   5.499   2.522  0.9276  2.2284 -1.9057
  149MOL   H23944935   0.388   5.325   2.309 -0.0254 -0.4245  0.3740
  149MOL   H24044936   0.285   5.461   2.267  0.7772 -2.4055 -2.4904
  149MOL   H24144937   0.229   5.317   2.363  0.5616  0.1069  2.9593
  149MOL   C24244938   0.502   5.843   2.501  0.0427  0.3448  0.0705
  149MOL   C24344939   0.534   5.818   2.357 -0.2683 -0.1425  0.4106
  149MOL   C24444940   0.642   5.913   2.301 -0.2337 -0.2914 -0.7798
  149MOL   O24544941   0.614   6.023   2.252  0.3204  0.4191 -0.5726
  149MOL   O24644942   0.764   5.862   2.319 -0.1558 -0.0305  0.0473
  149MOL   C24744943   0.878   5.922   2.260  0.9725 -0.3297  0.4878
  149MOL   C24844944   0.961   6.000   2.364  0.0571  0.4851 -0.5064
  149MOL   H24944945   0.394   5.856   2.507 -0.0523 -0.4916  0.2005
  149MOL   H25044946   0.545   5.941   2.523 -1.4460  0.3130  3.4246
  149MOL   H25144947   0.576   5.718   2.352  0.1027  0.0451 -0.2973
  149MOL   H25244948   0.931   5.835   2.220  0.6459 -0.9809  1.4698
  149MOL   H25344949   0.847   5.986   2.177  1.3793 -0.2427  0.4016
  149MOL   H25444950   0.915   6.094   2.396 -0.8922  0.5505 -2.0178
  149MOL   H25544951   1.051   6.021   2.306  0.5026  0.2029  0.0800
  149MOL   H25644952   0.981   5.933   2.447 -0.4719  0.8483 -0.0813
  149MOL   C25744953   0.413   5.812   2.254  0.3422 -0.2559 -0.0922
  149MOL   C25844954   0.303   5.923   2.267  0.2097 -0.0638  0.1553
  149MOL   C25944955   0.164   5.854   2.298 -0.4354  0.1739  0.5541
  149MOL   O26044956   0.073   5.841   2.214 -0.6121  0.1964 -0.1374
  149MOL   O26144957   0.155   5.808   2.424  0.2664  0.5051 -0.6389
  149MOL   C26244958   0.040   5.735   2.461 -1.2402  0.6619 -0.2325
  149MOL   C26344959   0.041   5.723   2.614  0.1021 -0.2843 -0.3100
  149MOL   H26444960   0.453   5.804   2.153  0.8210 -2.9072  0.2561
  149MOL   H26544961   0.362   5.715   2.257  0.3175 -0.2103  1.1593
  149MOL   H26644962   0.322   5.989   2.352  0.0735 -1.1539  1.0343
  149MOL   H26744963   7.854   5.775   2.427 -0.8079  0.6552 -1.4497
  149MOL   H26844964   0.053   5.639   2.411 -2.2564  1.2904 -1.6991
  149MOL   H26944965   0.144   5.717   2.649  0.6969  0.0551 -1.9590
  149MOL   H27044966   7.891   5.644   2.661 -0.6070 -0.5747 -1.6645
  149MOL   H27144967   7.892   5.807   2.655 -0.0177  0.1111 -1.2774
  149MOL   C27244968   0.302   6.004   2.136 -0.0060 -0.1743  0.4816
  149MOL   C27344969   0.221   6.137   2.135  0.6056  0.0799 -0.0654
  149MOL   C27444970   0.157   6.154   2.002 -0.2389  0.2293  0.7056
  149MOL   O27544971   0.193   6.228   1.909  0.2744 -0.0231 -0.4426
  149MOL   O27644972   0.043   6.081   1.999  0.6718 -0.0281 -0.7918
  149MOL   C27744973   7.853   6.084   1.895  0.1957 -0.1669  0.0406
  149MOL   C27844974   7.784   5.949   1.852 -0.3067 -0.5336  0.3515
  149MOL   H27944975   0.406   6.027   2.111  0.4298  0.6455  2.9457
  149MOL   H28044976   0.281   5.936   2.053  0.3272 -0.8372  0.9388
  149MOL   H28144977   0.139   6.134   2.207  1.0211  0.5677  0.4349
  149MOL   H28244978   7.782   6.164   1.914 -1.1024 -1.2805 -0.0003
  149MOL   H28344979   7.898   6.118   1.801 -0.2335 -1.2151 -0.5566
  149MOL   H28444980   7.844   5.889   1.783  1.5425  1.0917  0.5068
  149MOL   H28544981   7.696   5.980   1.796 -0.2959 -0.9694  0.0948
  149MOL   H28644982   7.757   5.891   1.941 -4.2904  3.1562  1.7040
  149MOL   C28744983   0.320   6.258   2.169 -0.4504 -0.0611 -0.1987
  149MOL   C28844984   0.253   6.396   2.180 -0.1491  0.0322  0.2113
  149MOL   C28944985   0.167   6.423   2.303  0.2779  0.1264  0.1252
  149MOL   O29044986   0.182   6.347   2.401 -0.0755 -0.0573 -0.7855
  149MOL   O29144987   0.085   6.522   2.292  0.7514 -0.8116 -0.5744
  149MOL   C29244988   0.002   6.565   2.400  0.2420 -0.0015 -0.1329
  149MOL   C29344989   7.811   6.686   2.358  0.0522  0.3044 -0.0195
  149MOL   H29444990   0.376   6.242   2.261  1.7274  0.6717 -1.3631
  149MOL   H29544991   0.385   6.269   2.082  1.5943  2.0457  1.5257
  149MOL   H29644992   0.328   6.475   2.182 -1.1366  0.9557  0.9808
  149MOL   H29744993   7.855   6.476   2.431  1.2536 -0.9480 -1.0155
  149MOL   H29844994   0.071   6.593   2.480  1.1650 -0.7701 -0.6458
  149MOL   H29944995   7.717   6.654   2.312 -0.8642  0.0133  2.0080
  149MOL   H30044996   7.856   6.760   2.292  0.6770  0.9666  1.1334
  149MOL   H30144997   7.790   6.749   2.444  2.1178 -0.2405  0.9254
  149MOL   H30244998   0.198   6.420   2.089  1.6371 -0.6456 -1.0584
  150MOL     C144999   4.106   6.371   6.083 -0.0142  0.4519  0.1297
  150MOL     C245000   3.977   6.315   6.145  0.2702  1.0735 -0.1310
  150MOL     C345001   3.855   6.376   6.083 -0.1896  0.3994  0.2713
  150MOL     O445002   3.751   6.402   6.147  0.4562 -0.0354  0.3833
  150MOL     O545003   3.868   6.394   5.955 -0.2295 -0.2565  0.0316
  150MOL     C645004   3.749   6.447   5.891 -0.1947  0.1538 -0.2287
  150MOL     C745005   3.732   6.399   5.748  0.5788 -0.1479  0.5031
  150MOL     H845006   4.123   6.340   5.980  1.9447  1.5725  0.0954
  150MOL     H945007   4.196   6.336   6.132 -0.7201  0.8446  1.7241
  150MOL    H1045008   3.965   6.207   6.131 -0.5052  1.3139 -1.3920
  150MOL    H1145009   3.662   6.408   5.943  0.2374 -1.9497 -1.0304
  150MOL    H1245010   3.757   6.556   5.895 -0.0991  0.1439 -0.1526
  150MOL    H1345011   3.816   6.426   5.685 -1.4180  2.5486 -1.1044
  150MOL    H1445012   3.648   6.454   5.707 -0.1238 -0.3680  1.6201
  150MOL    H1545013   3.709   6.293   5.747 -1.2112  0.2308 -0.5013
  150MOL    H1645014   4.111   6.479   6.080 -3.4940  0.6543 -0.1247
  150MOL    C1745015   3.960   6.307   6.296 -0.0041  0.3269 -0.6231
  150MOL    C1845016   3.899   6.171   6.346 -0.1249 -0.3932 -0.3168
  150MOL    C1945017   3.821   6.177   6.483 -0.1252 -0.2657  0.0992
  150MOL    O2045018   3.855   6.241   6.581  0.1163  0.5572  0.0101
  150MOL    O2145019   3.723   6.085   6.486  0.3517  0.5607  0.7874
  150MOL    C2245020   3.644   6.060   6.602 -0.0361  0.0436 -0.2401
  150MOL    C2345021   3.587   5.920   6.609  0.0840  0.3551 -0.1428
  150MOL    H2445022   4.058   6.316   6.343  1.3820 -2.1210 -2.8651
  150MOL    H2545023   3.900   6.389   6.335 -1.4257 -1.2612  0.5922
  150MOL    H2645024   3.821   6.139   6.277 -0.4884  0.9764 -0.5553
  150MOL    H2745025   3.700   6.075   6.694 -0.7247 -0.8011  0.3184
  150MOL    H2845026   3.564   6.134   6.594  0.9160  0.8665 -3.0924
  150MOL    H2945027   3.670   5.852   6.595 -1.0672 -0.5505 -2.8571
  150MOL    H3045028   3.502   5.911   6.541  1.7477  1.8929 -2.5127
  150MOL    H3145029   3.546   5.897   6.707 -0.0023 -2.7504 -0.8593
  150MOL    C3245030   4.007   6.057   6.333 -0.1858  0.2940 -0.1593
  150MOL    C3345031   3.957   5.908   6.346  0.9068 -0.2441  0.3836
  150MOL    C3445032   4.079   5.809   6.390  0.2082 -0.4027  0.1489
  150MOL    O3545033   4.194   5.830   6.343 -0.0821 -0.4267  0.4738
  150MOL    O3645034   4.037   5.716   6.469  0.3372  0.0402  0.9048
  150MOL    C3745035   4.114   5.600   6.490  0.2723 -0.6846 -0.4690
  150MOL    C3845036   4.075   5.545   6.619  0.2839  0.4774 -0.6237
  150MOL    H3945037   4.066   6.081   6.244  4.6374  1.5968  3.1359
  150MOL    H4045038   4.081   6.080   6.410 -0.3291  0.3609 -0.0397
  150MOL    H4145039   3.882   5.899   6.425  0.7996 -1.3871  0.1638
  150MOL    H4245040   4.089   5.526   6.415  1.6877  0.0758 -1.7178
  150MOL    H4345041   4.221   5.621   6.487  0.0052  0.6140 -1.5380
  150MOL    H4445042   4.081   5.617   6.700 -1.3192 -2.0543  1.8778
  150MOL    H4545043   4.144   5.467   6.654 -2.0039 -0.7193  1.3895
  150MOL    H4645044   3.976   5.503   6.601  0.7018 -0.3046 -1.1320
  150MOL    C4745045   3.896   5.858   6.214 -0.2980 -0.3462 -0.4518
  150MOL    C4845046   3.743   5.846   6.229  0.4591  0.0769 -0.6879
  150MOL    C4945047   3.701   5.713   6.302  0.2904  0.2229 -0.1146
  150MOL    O5045048   3.594   5.707   6.370  0.0186  0.4250 -0.0967
  150MOL    O5145049   3.798   5.610   6.289 -0.6505 -0.2894  0.0818
  150MOL    C5245050   3.773   5.484   6.349 -0.9242 -0.1658  0.1402
  150MOL    C5345051   3.787   5.375   6.241  0.3211  0.0975 -0.4124
  150MOL    H5445052   3.928   5.936   6.144 -0.4582  0.2703  0.1505
  150MOL    H5545053   3.939   5.761   6.188  1.1600  0.1902 -0.0883
  150MOL    H5645054   3.697   5.928   6.283  0.3464 -1.5800  1.8163
  150MOL    H5745055   3.842   5.459   6.430  0.6273  0.5581 -0.9174
  150MOL    H5845056   3.673   5.489   6.391 -1.1588 -1.5390 -0.2074
  150MOL    H5945057   3.756   5.285   6.293  0.6030  0.5512  0.5466
  150MOL    H6045058   3.886   5.374   6.195  1.2054  0.5623  1.4360
  150MOL    H6145059   3.712   5.388   6.162  2.2641 -0.8212 -2.4614
  150MOL    C6245060   3.663   5.847   6.097  0.2165 -0.1811 -0.0192
  150MOL    C6345061   3.670   5.980   6.011 -0.1527 -0.1776 -0.0588
  150MOL    C6445062   3.552   6.075   6.040 -0.0495 -0.3608  0.6608
  150MOL    O6545063   3.497   6.137   5.949 -0.2403 -0.1337  0.0816
  150MOL    O6645064   3.525   6.084   6.174 -0.3355 -0.0785 -0.2471
  150MOL    C6745065   3.448   6.188   6.234 -0.7811 -0.2437 -0.2484
  150MOL    C6845066   3.298   6.171   6.228  0.0859 -0.3026 -0.1322
  150MOL    H6945067   3.705   5.765   6.039  0.2384  2.5000 -3.9639
  150MOL    H7045068   3.567   5.797   6.107 -0.2164  0.8867  1.2891
  150MOL    H7145069   3.765   6.023   6.043 -0.3779  1.1444 -1.1391
  150MOL    H7245070   3.477   6.195   6.339 -1.7383 -1.3874  0.1040
  150MOL    H7345071   3.474   6.282   6.185  0.7865 -0.5456 -0.0202
  150MOL    H7445072   3.235   6.243   6.281 -0.4196 -0.9505  0.1557
  150MOL    H7545073   3.263   6.079   6.274  0.5269 -0.0698  0.6762
  150MOL    H7645074   3.261   6.171   6.126 -0.6230  2.8218  0.0630
  150MOL    C7745075   3.697   5.955   5.864  0.4186 -0.4262 -0.0496
  150MOL    C7845076   3.836   5.906   5.825 -0.2715  0.0404  0.2334
  150MOL    C7945077   3.950   6.009   5.836  0.2347 -0.3005 -0.0852
  150MOL    O8045078   4.034   5.999   5.924  0.0668  0.1634 -0.2289
  150MOL    O8145079   3.934   6.110   5.750 -0.0329 -0.2471 -0.0913
  150MOL    C8245080   4.039   6.204   5.728  0.2808  0.2109  0.5045
  150MOL    C8345081   4.121   6.161   5.608  0.4278 -1.0570  0.5437
  150MOL    H8445082   3.626   5.877   5.836  1.0696 -0.9158 -0.3622
  150MOL    H8545083   3.665   6.038   5.802  2.0466  2.0056  2.2684
  150MOL    H8645084   3.863   5.842   5.908  1.4059  1.0285  0.4632
  150MOL    H8745085   4.001   6.306   5.717 -2.4548 -0.6875  1.0841
  150MOL    H8845086   4.107   6.205   5.812  3.0687  0.7517 -1.6969
  150MOL    H8945087   4.176   6.067   5.616  0.4249 -1.0397  0.7603
  150MOL    H9045088   4.201   6.230   5.582 -0.5490 -0.1688 -0.1252
  150MOL    H9145089   4.061   6.153   5.518 -0.8087  0.9251  1.1514
  150MOL    C9245090   3.832   5.838   5.691  0.7717 -0.6113 -0.4174
  150MOL    C9345091   3.970   5.791   5.637 -1.2098  0.4750  0.3797
  150MOL    C9445092   3.957   5.750   5.492  0.0036 -0.0213  0.6190
  150MOL    O9545093   4.018   5.816   5.407  0.4058 -0.0928  0.0538
  150MOL    O9645094   3.883   5.644   5.470 -0.0870  0.0669 -0.4328
  150MOL    C9745095   3.828   5.603   5.344 -0.3187 -0.3036 -0.3084
  150MOL    C9845096   3.714   5.507   5.348 -0.2517  0.0414 -0.3876
  150MOL    H9945097   3.754   5.762   5.701 -0.4141  0.5246 -0.8309
  150MOL   H10045098   3.805   5.920   5.624  1.4943  0.5835  0.7352
  150MOL   H10145099   4.031   5.880   5.624 -0.4920  0.0571  0.8359
  150MOL   H10245100   3.785   5.691   5.295  1.1208  0.2188 -0.6740
  150MOL   H10345101   3.910   5.576   5.278  1.3879  2.0453  0.7614
  150MOL   H10445102   3.647   5.516   5.262 -0.3427  0.1067 -0.3103
  150MOL   H10545103   3.661   5.539   5.438  0.6480  1.9594 -0.5259
  150MOL   H10645104   3.728   5.400   5.363 -2.2997 -0.4537 -1.8091
  150MOL   C10745105   4.026   5.674   5.719 -0.2332  0.4149  0.0540
  150MOL   C10845106   4.165   5.629   5.670  0.6775  0.6140  0.3570
  150MOL   C10945107   4.206   5.504   5.747 -0.3090 -0.4016  0.1488
  150MOL   O11045108   4.288   5.502   5.836  0.0990  0.2479  0.6163
  150MOL   O11145109   4.140   5.393   5.704 -0.4731 -0.0753 -0.0848
  150MOL   C11245110   4.170   5.263   5.753  0.5203 -0.6943  0.0376
  150MOL   C11345111   4.266   5.192   5.662  0.2646  0.1113 -0.3146
  150MOL   H11445112   4.039   5.700   5.824  2.4263 -1.7194  0.3125
  150MOL   H11545113   3.959   5.588   5.719 -2.2810  1.8968 -3.5866
  150MOL   H11645114   4.151   5.589   5.570 -0.2449  1.4559  0.1393
  150MOL   H11745115   4.210   5.268   5.854  0.6334 -1.0182  0.0119
  150MOL   H11845116   4.075   5.210   5.764 -0.1311  0.6905  1.2252
  150MOL   H11945117   4.366   5.233   5.676  0.4482 -0.1697 -0.8110
  150MOL   H12045118   4.240   5.205   5.557 -3.0252  0.2223  0.4456
  150MOL   H12145119   4.293   5.088   5.681  0.5149  0.1815 -0.2848
  150MOL   C12245120   4.268   5.742   5.677 -0.1891 -0.0541  0.1516
  150MOL   C12345121   4.421   5.704   5.647  0.1865  0.0917  0.2826
  150MOL   C12445122   4.526   5.809   5.696  0.6471 -0.4413 -1.2638
  150MOL   O12545123   4.501   5.929   5.677 -0.3031  0.7882 -1.0003
  150MOL   O12645124   4.640   5.761   5.740  0.2210 -0.2075  0.1506
  150MOL   C12745125   4.751   5.849   5.772 -0.6012 -0.2919 -0.9148
  150MOL   C12845126   4.880   5.762   5.789  0.3131  0.0307  0.4560
  150MOL   H12945127   4.232   5.816   5.606  1.4126  1.8597  1.2606
  150MOL   H13045128   4.270   5.800   5.770  1.2106  0.0836  0.0473
  150MOL   H13145129   4.453   5.618   5.707  1.7579  0.9544  0.7073
  150MOL   H13245130   4.769   5.931   5.703  1.3487  0.8513  0.8969
  150MOL   H13345131   4.724   5.883   5.872  0.5514 -1.5432 -0.1618
  150MOL   H13445132   4.960   5.814   5.842  0.6932  1.9019 -1.8703
  150MOL   H13545133   4.926   5.737   5.693 -1.5443 -1.8540  0.0103
  150MOL   H13645134   4.859   5.663   5.829  0.3467 -0.2670 -0.2509
  150MOL   C13745135   4.432   5.649   5.498 -0.6931  0.7719  0.5742
  150MOL   C13845136   4.570   5.601   5.440 -0.4585 -0.5100  0.0341
  150MOL   C13945137   4.655   5.726   5.404 -0.3683 -0.4810  0.1150
  150MOL   O14045138   4.774   5.737   5.432 -0.0276  0.8041  0.0269
  150MOL   O14145139   4.582   5.822   5.332  0.2460 -0.2489  0.5008
  150MOL   C14245140   4.640   5.948   5.319  0.0706 -0.0384 -0.3500
  150MOL   C14345141   4.543   6.029   5.232  0.2986 -0.0207 -0.8177
  150MOL   H14445142   4.357   5.572   5.482  0.5251 -0.6861  1.7719
  150MOL   H14545143   4.395   5.726   5.430 -2.0708  0.0400  0.4841
  150MOL   H14645144   4.632   5.547   5.512 -0.4089 -0.3375  0.1209
  150MOL   H14745145   4.660   5.996   5.415  2.0996  0.1005 -0.8368
  150MOL   H14845146   4.732   5.937   5.262  1.2744 -0.4534  1.6221
  150MOL   H14945147   4.527   5.992   5.131 -0.5652 -1.5782 -0.1276
  150MOL   H15045148   4.580   6.131   5.221  1.3909 -0.0655  2.0938
  150MOL   H15145149   4.442   6.035   5.273 -0.0611  1.4880 -1.8697
  150MOL   C15245150   4.557   5.504   5.321  0.9683  0.8423  0.7639
  150MOL   C15345151   4.653   5.390   5.306  0.3261 -0.1021 -0.2571
  150MOL   C15445152   4.796   5.437   5.283 -0.3178  0.4769 -0.0865
  150MOL   O15545153   4.880   5.390   5.353 -0.0281 -0.2518 -0.1907
  150MOL   O15645154   4.812   5.520   5.186 -0.2446 -0.3130 -0.7385
  150MOL   C15745155   4.942   5.564   5.159  0.1702 -0.2631  0.1454
  150MOL   C15845156   4.929   5.681   5.065 -0.3777 -0.4452 -0.8904
  150MOL   H15945157   4.459   5.456   5.326  1.4773 -0.2982  0.0556
  150MOL   H16045158   4.558   5.567   5.232 -0.1314  2.3097  1.7656
  150MOL   H16145159   4.645   5.329   5.396 -0.5662  0.8419  0.3180
  150MOL   H16245160   4.996   5.596   5.249  2.2545  0.6359 -1.3973
  150MOL   H16345161   5.000   5.483   5.115 -1.1427  0.2187 -2.5497
  150MOL   H16445162   5.023   5.732   5.045  0.3691 -1.1212  0.7994
  150MOL   H16545163   4.847   5.745   5.098 -1.7059 -0.6566 -3.5921
  150MOL   H16645164   4.901   5.635   4.970  3.2492  0.7179 -2.6090
  150MOL   C16745165   4.615   5.289   5.199 -1.1613  0.4986  0.1061
  150MOL   C16845166   4.489   5.202   5.222  0.3300 -0.9806 -0.1320
  150MOL   C16945167   4.513   5.053   5.234  0.5306  0.3446 -0.7622
  150MOL   O17045168   4.445   4.988   5.316 -0.9204  0.0598  0.1739
  150MOL   O17145169   4.603   5.012   5.152 -0.2383  0.3675  0.4146
  150MOL   C17245170   4.637   4.874   5.154  0.6911 -0.8220 -0.2400
  150MOL   C17345171   4.750   4.857   5.054  0.3861 -0.2918  0.5475
  150MOL   H17445172   4.616   5.348   5.107  0.3596  0.1360 -0.1237
  150MOL   H17545173   4.702   5.226   5.180 -0.9871  1.3084 -1.9910
  150MOL   H17645174   4.442   5.226   5.317  0.1454 -3.2921  0.3916
  150MOL   H17745175   4.648   4.846   5.259 -1.0499 -2.6997 -0.5190
  150MOL   H17845176   4.545   4.823   5.125  0.3398 -0.8292  0.8672
  150MOL   H17945177   4.740   4.752   5.026  0.1269 -0.0911 -0.1076
  150MOL   H18045178   4.840   4.874   5.114  0.3555  0.3411  0.4149
  150MOL   H18145179   4.736   4.923   4.969  2.3938  0.5281  0.8204
  150MOL   C18245180   4.376   5.236   5.110  0.3650  0.4285 -0.4511
  150MOL   C18345181   4.288   5.367   5.116  0.4921  0.0343  0.7431
  150MOL   C18445182   4.198   5.373   5.240  0.2807  0.6927  0.2388
  150MOL   O18545183   4.200   5.472   5.318  0.4779  0.0445 -0.3695
  150MOL   O18645184   4.116   5.261   5.264 -0.0271  0.1908  0.1783
  150MOL   C18745185   4.007   5.267   5.351  0.1710  0.0214  0.6106
  150MOL   C18845186   3.997   5.119   5.377  0.0632  0.2220 -0.2851
  150MOL   H18945187   4.416   5.218   5.010  0.4123 -0.1366 -0.3355
  150MOL   H19045188   4.304   5.155   5.109  0.2182  0.5470  0.2003
  150MOL   H19145189   4.357   5.450   5.102  0.5057 -0.2551 -1.0517
  150MOL   H19245190   4.030   5.327   5.439 -0.9507  0.8125  0.3686
  150MOL   H19345191   3.921   5.311   5.301  2.1283  0.3740 -2.6256
  150MOL   H19445192   3.973   5.068   5.283  0.8498  1.9689 -1.4596
  150MOL   H19545193   3.922   5.089   5.450 -1.5189  2.2016 -1.0407
  150MOL   H19645194   4.092   5.078   5.412  0.0292  1.4750  1.3226
  150MOL   C19745195   4.196   5.372   4.989 -0.0075 -0.6473 -0.4596
  150MOL   C19845196   4.182   5.512   4.922 -0.1101  0.7250  0.0185
  150MOL   C19945197   4.084   5.600   5.002  0.4839 -0.9223 -0.2951
  150MOL   O20045198   3.984   5.553   5.058 -0.2188 -0.7406 -0.8139
  150MOL   O20145199   4.110   5.729   4.993  0.2001 -0.1991  0.3122
  150MOL   C20245200   4.047   5.826   5.081 -0.0027 -0.4140 -0.1228
  150MOL   C20345201   4.133   5.939   5.122 -0.3579 -0.2506  0.3093
  150MOL   H20445202   4.239   5.306   4.914 -1.4658 -1.2141 -0.7934
  150MOL   H20545203   4.102   5.320   5.007 -0.8370 -0.1182 -3.0781
  150MOL   H20645204   4.275   5.569   4.917 -1.0285  2.1534 -1.3139
  150MOL   H20745205   3.968   5.877   5.027  0.4133  1.4245  0.9764
  150MOL   H20845206   4.004   5.778   5.169  1.5286 -1.3263  0.1610
  150MOL   H20945207   4.158   6.008   5.042 -1.5803  1.4907  1.3958
  150MOL   H21045208   4.223   5.904   5.172  0.4548  0.3003 -0.7361
  150MOL   H21145209   4.082   6.008   5.189 -1.7789  0.0216 -1.0329
  150MOL   C21245210   4.139   5.495   4.777 -0.5409 -0.4941 -0.5458
  150MOL   C21345211   4.091   5.617   4.702  0.4845  0.1162  0.1326
  150MOL   C21445212   4.042   5.572   4.561 -1.1916  0.0318 -0.1009
  150MOL   O21545213   3.927   5.609   4.525  0.1025 -0.2048  0.4238
  150MOL   O21645214   4.127   5.513   4.487 -0.0922 -0.1982  0.0608
  150MOL   C21745215   4.111   5.523   4.344 -0.5343  0.2924 -0.0642
  150MOL   C21845216   4.035   5.402   4.289  0.3193 -0.3012 -0.2581
  150MOL   H21945217   4.225   5.456   4.723 -1.1790 -1.1652 -1.0928
  150MOL   H22045218   4.064   5.417   4.768 -1.1909 -0.0193  0.7177
  150MOL   H22145219   4.005   5.645   4.763 -0.0133  2.2398 -1.5026
  150MOL   H22245220   4.070   5.620   4.315 -2.1539 -0.8415 -1.6170
  150MOL   H22345221   4.212   5.522   4.304 -0.8113  1.1721 -0.8302
  150MOL   H22445222   4.080   5.306   4.316  0.6449 -0.1847 -0.3885
  150MOL   H22545223   4.026   5.416   4.181 -0.8624 -1.2920 -0.3046
  150MOL   H22645224   3.934   5.398   4.331 -0.0928  1.9440 -1.0136
  150MOL   C22745225   4.196   5.727   4.691  0.1357 -0.4815  0.9866
  150MOL   C22845226   4.156   5.871   4.650  0.4589 -0.3142  0.4838
  150MOL   C22945227   4.027   5.924   4.722 -0.4632  0.8111  0.1404
  150MOL   O23045228   4.036   6.008   4.812  0.1223  0.4148  0.1858
  150MOL   O23145229   3.913   5.868   4.680 -0.1535  0.0379 -0.0617
  150MOL   C23245230   3.793   5.888   4.746 -0.1277  0.4372 -0.2806
  150MOL   C23345231   3.685   5.797   4.689  0.8393  0.0583  0.1972
  150MOL   H23445232   4.259   5.736   4.780 -1.3610  2.2913  1.8504
  150MOL   H23545233   4.263   5.692   4.613 -2.0808  0.3605 -1.3506
  150MOL   H23645234   4.241   5.932   4.680  0.9183 -0.8248  0.2354
  150MOL   H23745235   3.826   5.852   4.844  2.2575 -1.6620 -1.8186
  150MOL   H23845236   3.768   5.994   4.738 -0.9265  0.1586 -1.5006
  150MOL   H23945237   3.595   5.794   4.751  0.0783 -0.4505 -0.9041
  150MOL   H24045238   3.727   5.696   4.691  0.9923  0.0067 -3.2398
  150MOL   H24145239   3.648   5.800   4.586  1.7161 -0.7670 -0.1444
  150MOL   C24245240   4.142   5.880   4.491  0.1706  0.7000  0.3405
  150MOL   C24345241   4.120   6.014   4.431  0.2922 -0.2645  0.0218
  150MOL   C24445242   4.070   6.004   4.280  0.1437  0.1240  0.5846
  150MOL   O24545243   4.107   5.908   4.218  0.5121  0.5049  0.0606
  150MOL   O24645244   3.982   6.100   4.257  0.6978  0.1798  0.2701
  150MOL   C24745245   3.908   6.100   4.133 -0.8763  0.3738  0.3555
  150MOL   C24845246   3.808   6.212   4.134 -0.7679  0.5914  0.1107
  150MOL   H24945247   4.236   5.842   4.451  0.2946 -0.6346  1.8463
  150MOL   H25045248   4.057   5.817   4.466 -0.7813  1.8962  0.5042
  150MOL   H25145249   4.036   6.056   4.487  1.1543  0.8650  0.4747
  150MOL   H25245250   3.971   6.111   4.045 -1.0389 -0.9907  0.0497
  150MOL   H25345251   3.871   5.999   4.117 -2.2062  0.6020  1.8956
  150MOL   H25445252   3.850   6.310   4.158 -1.7107  0.8414  0.7540
  150MOL   H25545253   3.727   6.202   4.206  0.2105  0.8006  1.2630
  150MOL   H25645254   3.764   6.208   4.035  0.5229  0.4999 -0.4772
  150MOL   C25745255   4.238   6.112   4.440 -0.7139 -0.0742  0.3534
  150MOL   C25845256   4.186   6.261   4.464 -0.4633 -0.5705  0.0520
  150MOL   C25945257   4.294   6.364   4.435 -0.1322 -0.2765 -0.1021
  150MOL   O26045258   4.269   6.461   4.358 -0.3325  0.0134  0.1292
  150MOL   O26145259   4.401   6.345   4.503 -0.6958 -0.6026 -0.3033
  150MOL   C26245260   4.502   6.450   4.500  0.6356  0.3314  0.5901
  150MOL   C26345261   4.494   6.545   4.621 -0.2887  0.2776 -0.3501
  150MOL   H26445262   4.303   6.084   4.524  0.1254  0.8805  0.0376
  150MOL   H26545263   4.316   6.100   4.365  0.0011  0.8307  0.9304
  150MOL   H26645264   4.112   6.287   4.388 -0.9652 -5.2430 -1.1850
  150MOL   H26745265   4.591   6.387   4.494  1.5277  1.3447  2.9560
  150MOL   H26845266   4.510   6.493   4.400 -0.2541 -3.1942 -1.0830
  150MOL   H26945267   4.481   6.474   4.702 -0.4434  0.1633 -0.4751
  150MOL   H27045268   4.399   6.599   4.629 -0.1684  0.5125 -0.5069
  150MOL   H27145269   4.576   6.617   4.618 -0.2422  0.1922 -1.3450
  150MOL   C27245270   4.130   6.278   4.607  0.1374 -0.1435 -0.1938
  150MOL   C27345271   3.991   6.348   4.616  1.0731 -0.2944 -0.2851
  150MOL   C27445272   3.974   6.425   4.753  0.5115 -0.0844 -0.0590
  150MOL   O27545273   3.900   6.376   4.834  0.1502 -0.1336  0.1953
  150MOL   O27645274   4.042   6.541   4.758  0.5507  0.2060  0.1045
  150MOL   C27745275   4.052   6.619   4.873 -0.3840  0.7662  0.1621
  150MOL   C27845276   4.150   6.735   4.861  0.2909  0.4266 -0.2479
  150MOL   H27945277   4.122   6.183   4.660 -1.3662 -0.8614 -1.6406
  150MOL   H28045278   4.199   6.333   4.670 -0.8788  0.1313  0.7030
  150MOL   H28145279   3.982   6.423   4.537  0.9967 -1.7004 -1.6309
  150MOL   H28245280   3.956   6.668   4.886 -0.7588 -0.1430  0.8651
  150MOL   H28345281   4.076   6.566   4.965 -0.7652  0.4087  0.0598
  150MOL   H28445282   4.250   6.693   4.853  0.4397  0.6075  0.6278
  150MOL   H28545283   4.140   6.789   4.955 -1.1725  2.4704 -1.5412
  150MOL   H28645284   4.120   6.789   4.771  1.2182  1.3661 -0.0029
  150MOL   C28745285   3.866   6.261   4.589 -0.2007  0.3870 -0.4534
  150MOL   C28845286   3.718   6.315   4.590  0.0317 -0.3558  0.2804
  150MOL   C28945287   3.697   6.429   4.487 -0.4190 -0.4041 -0.8647
  150MOL   O29045288   3.754   6.428   4.381  0.1398  0.2636  0.5678
  150MOL   O29145289   3.598   6.517   4.517  0.5183 -0.1294 -0.1857
  150MOL   C29245290   3.569   6.628   4.436 -0.1210  0.2570 -0.0402
  150MOL   C29345291   3.637   6.746   4.500  0.2700 -0.1175 -0.3749
  150MOL   H29445292   3.873   6.232   4.484  0.3154 -0.1279 -0.2799
  150MOL   H29545293   3.866   6.175   4.656 -3.3320 -0.1718 -1.0715
  150MOL   H29645294   3.641   6.239   4.575  1.0880 -1.7402  1.7372
  150MOL   H29745295   3.593   6.620   4.330 -5.7483  0.6226 -1.5206
  150MOL   H29845296   3.462   6.649   4.429 -0.2192 -0.6471 -1.3711
  150MOL   H29945297   3.746   6.744   4.503  0.2555  0.6944  0.8919
  150MOL   H30045298   3.614   6.766   4.604 -1.7076 -3.5221 -0.0798
  150MOL   H30145299   3.606   6.835   4.446 -0.2699 -0.2890 -0.3475
  150MOL   H30245300   3.697   6.355   4.689 -0.8693  1.8566 -0.7527
  151MOL     C145301   6.985   1.889   4.976 -0.8586  0.3535 -0.0228
  151MOL     C245302   7.116   1.853   5.046  0.1192  0.0571 -0.1032
  151MOL     C345303   7.180   1.732   4.969  0.0014  0.1369 -1.1405
  151MOL     O445304   7.209   1.628   5.028  0.4700 -0.5298 -0.2927
  151MOL     O545305   7.206   1.758   4.834 -0.1136 -0.8093 -0.3883
  151MOL     C645306   7.264   1.658   4.746 -0.3304  0.4513 -0.5647
  151MOL     C745307   7.163   1.599   4.648  0.2724  0.5974  0.2753
  151MOL     H845308   7.004   1.916   4.872  2.4394  1.6495  0.8256
  151MOL     H945309   6.952   1.983   5.019  2.8452  1.0450  1.5740
  151MOL    H1045310   7.188   1.935   5.041  1.7883 -1.3982 -0.5904
  151MOL    H1145311   7.337   1.701   4.678 -0.3772 -1.2434 -1.7191
  151MOL    H1245312   7.309   1.582   4.809 -1.9403 -1.3365 -1.5126
  151MOL    H1345313   7.202   1.521   4.583 -0.5516  1.6745 -1.5764
  151MOL    H1445314   7.130   1.686   4.591  2.9387  1.4575 -0.0389
  151MOL    H1545315   7.076   1.556   4.697 -0.4417  1.5908 -0.1079
  151MOL    H1645316   6.910   1.810   4.982 -1.3902  0.8949  0.4757
  151MOL    C1745317   7.091   1.815   5.196 -0.0564  0.1023 -0.0850
  151MOL    C1845318   7.062   1.937   5.286 -0.2673 -0.1832  0.5459
  151MOL    C1945319   7.181   2.032   5.305  0.0444  0.5792  0.5983
  151MOL    O2045320   7.180   2.139   5.249  0.4100  0.0114  0.4653
  151MOL    O2145321   7.289   1.986   5.374  0.1895  0.1231  0.1926
  151MOL    C2245322   7.413   2.051   5.364  0.5316  0.1046 -0.9896
  151MOL    C2345323   7.518   1.965   5.299  0.4059 -0.0859 -0.2371
  151MOL    H2445324   7.024   1.730   5.209 -0.0318 -0.2434 -1.9699
  151MOL    H2545325   7.185   1.779   5.236  1.3010  0.2127 -3.0037
  151MOL    H2645326   6.986   1.998   5.238 -0.3792 -2.0359 -1.7030
  151MOL    H2745327   7.402   2.146   5.312 -2.1446  0.2523 -0.2203
  151MOL    H2845328   7.445   2.068   5.467 -0.3572 -2.6761 -0.2218
  151MOL    H2945329   7.518   1.863   5.338 -2.4030  0.6017  1.7027
  151MOL    H3045330   7.622   1.990   5.276  0.8999 -2.4783 -0.7347
  151MOL    H3145331   7.475   1.947   5.201 -1.2728  0.2957  0.4130
  151MOL    C3245332   6.999   1.896   5.418 -0.5004 -0.0710 -0.1178
  151MOL    C3345333   6.941   2.012   5.502  0.5522  0.9325 -0.8002
  151MOL    C3445334   7.003   2.022   5.650 -0.0983  0.2286  1.1405
  151MOL    O3545335   6.929   2.009   5.749 -0.5544  0.2796 -0.4352
  151MOL    O3645336   7.134   2.050   5.644 -0.2390 -0.0684 -0.3581
  151MOL    C3745337   7.197   2.069   5.762 -0.4860  0.0256 -0.3844
  151MOL    C3845338   7.348   2.009   5.758 -0.1271  0.1590  0.4427
  151MOL    H3945339   6.920   1.824   5.398 -0.7220  0.2450 -0.4042
  151MOL    H4045340   7.074   1.838   5.471 -0.8126  0.6872  1.1828
  151MOL    H4145341   6.964   2.106   5.452  1.8032 -0.0865 -2.1898
  151MOL    H4245342   7.189   2.172   5.798  0.4747 -1.3637  4.0730
  151MOL    H4345343   7.149   2.017   5.845  0.6232  1.2592  1.0749
  151MOL    H4445344   7.399   2.044   5.668  1.8967 -1.1745  1.0425
  151MOL    H4545345   7.360   1.901   5.767 -0.3592  0.1610  0.8181
  151MOL    H4645346   7.409   2.053   5.838 -1.1201  0.4914  1.0315
  151MOL    C4745347   6.785   2.002   5.503 -0.3468  0.0467 -0.2875
  151MOL    C4845348   6.692   2.105   5.581 -0.1738 -0.1507 -0.6859
  151MOL    C4945349   6.547   2.055   5.587  0.5898  0.8344  0.9054
  151MOL    O5045350   6.462   2.104   5.513  0.0857 -0.5152  0.0752
  151MOL    O5145351   6.523   1.966   5.675  0.3212  0.1332 -0.6573
  151MOL    C5245352   6.388   1.928   5.693  0.0670  0.0608  0.7907
  151MOL    C5345353   6.370   1.808   5.795 -0.1872 -0.3660  0.0495
  151MOL    H5445354   6.748   2.007   5.401 -3.4173 -0.8530  0.7314
  151MOL    H5545355   6.763   1.898   5.525  1.5606 -0.7022 -1.7897
  151MOL    H5645356   6.720   2.111   5.686  0.4970 -0.0117 -0.8692
  151MOL    H5745357   6.338   2.019   5.725 -0.4836 -0.6304  1.9169
  151MOL    H5845358   6.340   1.907   5.597 -0.1930 -0.1192  0.9595
  151MOL    H5945359   6.415   1.718   5.755  1.3370  1.0443 -1.5251
  151MOL    H6045360   6.263   1.788   5.802 -0.2546  0.6014  2.2602
  151MOL    H6145361   6.417   1.838   5.889  1.3224 -0.0688 -0.7843
  151MOL    C6245362   6.706   2.246   5.522  0.6549 -0.5865 -0.5405
  151MOL    C6345363   6.638   2.361   5.610  0.1964 -0.5251 -0.0103
  151MOL    C6445364   6.664   2.492   5.542  0.0170 -0.2169 -0.6491
  151MOL    O6545365   6.776   2.510   5.487  0.1723 -0.3019 -0.1439
  151MOL    O6645366   6.565   2.579   5.561  0.2597 -0.1138 -0.4211
  151MOL    C6745367   6.571   2.699   5.493  1.0975  1.0681 -0.0607
  151MOL    C6845368   6.631   2.806   5.574 -0.5607  0.0907  0.2690
  151MOL    H6945369   6.813   2.256   5.505  0.5008 -0.4733 -1.5034
  151MOL    H7045370   6.664   2.253   5.421  1.1345  1.9615 -0.5841
  151MOL    H7145371   6.530   2.345   5.602  0.3023 -0.0035 -3.3049
  151MOL    H7245372   6.628   2.684   5.401  1.4301  1.0749  0.1434
  151MOL    H7345373   6.467   2.718   5.463  0.6828  2.8328  2.3492
  151MOL    H7445374   6.566   2.853   5.647 -1.7472 -2.3567  0.8219
  151MOL    H7545375   6.682   2.887   5.521 -0.6986 -0.2313 -0.3692
  151MOL    H7645376   6.704   2.760   5.640 -0.9665  1.7322  1.8890
  151MOL    C7745377   6.688   2.368   5.763  0.0661  0.4930  0.7793
  151MOL    C7845378   6.598   2.305   5.871 -0.2619  0.6510  1.0134
  151MOL    C7945379   6.450   2.345   5.863  0.2639  0.7033  1.0918
  151MOL    O8045380   6.358   2.265   5.843 -0.1396  0.7175  0.4249
  151MOL    O8145381   6.425   2.476   5.874  0.2052  0.3555  0.1383
  151MOL    C8245382   6.293   2.517   5.854  0.0543  0.4399  0.0726
  151MOL    C8345383   6.278   2.659   5.917  0.0452  0.0392  0.0888
  151MOL    H8445384   6.783   2.315   5.753 -0.7842 -0.6052 -1.8609
  151MOL    H8545385   6.720   2.470   5.786  1.4596  0.5744 -1.3474
  151MOL    H8645386   6.592   2.198   5.854 -0.7484  0.3833  2.7998
  151MOL    H8745387   6.286   2.516   5.745 -0.9720  1.8976  0.1148
  151MOL    H8845388   6.220   2.455   5.906  0.0755  0.9601  0.7309
  151MOL    H8945389   6.266   2.650   6.025  0.3493 -0.2196  0.0998
  151MOL    H9045390   6.177   2.690   5.892  0.2322 -0.8093 -1.7627
  151MOL    H9145391   6.353   2.733   5.886  0.9218 -1.0418 -0.4092
  151MOL    C9245392   6.654   2.327   6.014 -0.0596 -0.2989  0.2178
  151MOL    C9345393   6.790   2.252   6.037 -0.2464 -0.0404  0.2197
  151MOL    C9445394   6.778   2.095   6.049  0.1444 -0.7664  0.0445
  151MOL    O9545395   6.674   2.031   6.031 -0.2583 -0.0618  0.0636
  151MOL    O9645396   6.899   2.041   6.084  0.5305 -0.1001  0.2861
  151MOL    C9745397   6.905   1.914   6.127 -0.2133  0.0979  0.7959
  151MOL    C9845398   7.045   1.850   6.122  0.3510  0.2951 -0.4520
  151MOL    H9945399   6.669   2.434   6.030 -0.6603 -0.0406 -0.8643
  151MOL   H10045400   6.585   2.311   6.096  0.2039  1.6705  0.8400
  151MOL   H10145401   6.850   2.273   5.949  0.1074 -1.7237  0.0413
  151MOL   H10245402   6.867   1.905   6.229  1.5702  3.8920  1.8816
  151MOL   H10345403   6.834   1.858   6.066  0.4344  1.2564 -1.0546
  151MOL   H10445404   7.077   1.844   6.018 -2.5872 -1.2136 -1.3418
  151MOL   H10545405   7.053   1.753   6.171 -1.4817 -0.5606 -1.7645
  151MOL   H10645406   7.111   1.914   6.181 -0.0304  0.7907 -0.5551
  151MOL   C10745407   6.857   2.313   6.161 -0.4637 -0.4513  1.1602
  151MOL   C10845408   6.991   2.392   6.129  0.3010 -0.6165 -0.6839
  151MOL   C10945409   7.110   2.300   6.144 -0.0173  0.0022 -0.1775
  151MOL   O11045410   7.165   2.262   6.038  0.1220  0.7627  0.2517
  151MOL   O11145411   7.140   2.263   6.271 -0.1409 -0.3744 -0.1806
  151MOL   C11245412   7.254   2.177   6.290 -0.0360 -0.4749  0.4717
  151MOL   C11345413   7.221   2.063   6.384 -0.0192 -0.7561 -0.3953
  151MOL   H11445414   6.788   2.378   6.214 -1.2304 -1.4666  1.4187
  151MOL   H11545415   6.878   2.248   6.246 -2.2468 -2.7487 -0.1193
  151MOL   H11645416   6.994   2.428   6.026 -2.0163 -2.2804 -1.3966
  151MOL   H11745417   7.298   2.138   6.198 -1.7203  0.4272 -0.7652
  151MOL   H11845418   7.331   2.235   6.340  1.8776 -2.5978  0.0601
  151MOL   H11945419   7.139   1.999   6.354  1.4546 -2.4683 -0.8713
  151MOL   H12045420   7.191   2.101   6.482  0.5548  1.9890 -1.2550
  151MOL   H12145421   7.305   1.993   6.382  1.0099  0.4725 -2.6971
  151MOL   C12245422   6.999   2.526   6.212 -0.7475  0.5673  0.1110
  151MOL   C12345423   6.899   2.638   6.174  0.1337  0.1650 -0.2157
  151MOL   C12445424   6.909   2.683   6.031  0.3353 -0.3333  0.2424
  151MOL   O12545425   6.809   2.692   5.962  0.1549 -0.0436  0.2341
  151MOL   O12645426   7.035   2.718   5.993  0.2132  0.3525  0.6260
  151MOL   C12745427   7.055   2.781   5.871  0.1126  0.0595  0.8224
  151MOL   C12845428   7.203   2.794   5.869 -0.2505 -0.2765 -0.3757
  151MOL   H12945429   6.975   2.492   6.313 -0.1758 -0.0943  0.0281
  151MOL   H13045430   7.102   2.560   6.226 -0.7756  0.4090  0.7663
  151MOL   H13145431   6.798   2.598   6.172 -0.1078  0.7820 -0.4311
  151MOL   H13245432   7.028   2.718   5.786  1.2060  1.3632 -0.5142
  151MOL   H13345433   7.007   2.879   5.868 -1.7671 -0.8217  1.2808
  151MOL   H13445434   7.239   2.872   5.937 -2.4019  0.5841 -0.1783
  151MOL   H13545435   7.237   2.825   5.770 -0.8065 -4.0346 -1.7983
  151MOL   H13645436   7.252   2.704   5.904 -0.2339 -0.1797 -0.1491
  151MOL   C13745437   6.924   2.758   6.266 -0.2563 -0.5246 -0.2741
  151MOL   C13845438   6.805   2.815   6.334  0.2176 -0.6657  0.0687
  151MOL   C13945439   6.679   2.841   6.245 -0.4988  0.5158  0.5777
  151MOL   O14045440   6.564   2.806   6.273 -0.4882 -0.0990  0.4570
  151MOL   O14145441   6.718   2.902   6.135  0.4441 -0.6676 -0.1114
  151MOL   C14245442   6.640   2.938   6.018  0.5040 -0.4752  0.1403
  151MOL   C14345443   6.705   3.024   5.915 -0.2932 -0.0547  0.6330
  151MOL   H14445444   6.987   2.718   6.346 -2.8924 -0.4380  1.9155
  151MOL   H14545445   6.997   2.824   6.218  0.0361 -0.7464 -0.1395
  151MOL   H14645446   6.766   2.736   6.398 -0.0351 -1.5098 -1.1140
  151MOL   H14745447   6.614   2.844   5.969 -1.5649 -1.2621  2.6738
  151MOL   H14845448   6.552   2.996   6.045  0.8611 -0.0408  0.3784
  151MOL   H14945449   6.777   2.971   5.854  0.3098 -0.1305  1.4053
  151MOL   H15045450   6.745   3.111   5.966  2.2453 -1.0471  0.3835
  151MOL   H15145451   6.615   3.046   5.857 -0.8532 -1.2374  1.0335
  151MOL   C15245452   6.837   2.940   6.421  0.0464 -0.9219 -0.0891
  151MOL   C15345453   6.864   2.912   6.574 -0.2276 -0.2915 -0.3413
  151MOL   C15445454   6.738   2.947   6.649 -0.0949 -0.5002 -0.0199
  151MOL   O15545455   6.655   2.859   6.696  0.4988 -0.2354  0.3189
  151MOL   O15645456   6.718   3.086   6.661  0.0331  0.0920 -0.5226
  151MOL   C15745457   6.604   3.139   6.728 -0.2637  0.3059 -0.3622
  151MOL   C15845458   6.631   3.286   6.777  0.1585  0.2358  0.6714
  151MOL   H15945459   6.921   2.990   6.374  1.3495 -1.6346  1.4346
  151MOL   H16045460   6.758   3.014   6.406 -1.8006 -3.1104 -1.5393
  151MOL   H16145461   6.866   2.803   6.584  3.4471 -0.1369  1.4040
  151MOL   H16245462   6.523   3.149   6.655 -1.7823  1.1421  1.3770
  151MOL   H16345463   6.583   3.071   6.811  0.1513 -0.7140 -1.0837
  151MOL   H16445464   6.709   3.292   6.852  2.1460 -0.2217 -1.2989
  151MOL   H16545465   6.536   3.305   6.827 -0.0496  0.4147  0.2136
  151MOL   H16645466   6.638   3.352   6.690 -0.0192 -2.5753 -1.5901
  151MOL   C16745467   6.993   2.971   6.637 -0.1572  0.1871  0.8917
  151MOL   C16845468   7.118   2.898   6.607  0.4634  0.2233  0.3755
  151MOL   C16945469   7.131   2.751   6.669  0.1586 -0.0877 -0.3018
  151MOL   O17045470   7.059   2.714   6.757  0.6339  0.0010 -0.0832
  151MOL   O17145471   7.235   2.688   6.621  0.7229  0.1864 -0.1192
  151MOL   C17245472   7.254   2.547   6.633  0.4879  0.4012 -0.9198
  151MOL   C17345473   7.184   2.473   6.522 -0.3172 -0.1953  0.1032
  151MOL   H17445474   6.993   3.079   6.625  1.4004  0.1391  0.3519
  151MOL   H17545475   6.966   2.961   6.742  0.4517  2.7322  1.3063
  151MOL   H17645476   7.103   2.892   6.499 -1.2464  0.9581  0.5547
  151MOL   H17745477   7.360   2.544   6.610  1.0690  1.3193  1.5182
  151MOL   H17845478   7.242   2.499   6.730 -1.1296 -2.1625 -2.3245
  151MOL   H17945479   7.077   2.493   6.515 -0.4378 -0.1048  1.9919
  151MOL   H18045480   7.186   2.365   6.538 -0.8518 -0.1619  0.4014
  151MOL   H18145481   7.233   2.490   6.427 -0.8300  1.3236  0.1051
  151MOL   C18245482   7.251   2.986   6.635  0.4358 -0.3741  0.2629
  151MOL   C18345483   7.318   2.959   6.770  0.3623  0.5011  0.2815
  151MOL   C18445484   7.237   3.000   6.898  0.7070 -0.5837  0.1296
  151MOL   O18545485   7.222   2.922   6.992 -0.0816  0.8616 -0.7103
  151MOL   O18645486   7.184   3.123   6.888 -0.2045  0.0600 -0.1156
  151MOL   C18745487   7.096   3.167   6.987 -0.5345 -0.2527 -0.1502
  151MOL   C18845488   7.009   3.281   6.935  0.9791  0.0940 -0.4565
  151MOL   H18945489   7.327   2.970   6.558 -0.9875 -0.8604 -1.0925
  151MOL   H19045490   7.226   3.092   6.638 -1.5777 -0.8490  1.1352
  151MOL   H19145491   7.342   2.853   6.775 -1.2134  0.1915  2.0900
  151MOL   H19245492   7.033   3.082   7.014 -1.5370  0.2347 -0.9100
  151MOL   H19345493   7.143   3.201   7.079 -0.7179 -0.8050  0.1464
  151MOL   H19445494   6.919   3.302   6.994  0.4533  0.1189 -1.2550
  151MOL   H19545495   6.966   3.262   6.837 -1.4742 -0.4594  0.6803
  151MOL   H19645496   7.061   3.377   6.929 -0.2194  1.1117  3.4003
  151MOL   C19745497   7.449   3.043   6.772  0.4910 -0.1748 -0.6908
  151MOL   C19845498   7.541   3.003   6.890  0.0493  0.7556  0.2770
  151MOL   C19945499   7.638   3.121   6.917 -0.3962  0.1714 -0.0579
  151MOL   O20045500   7.686   3.178   6.820 -0.9226  0.2411  0.0282
  151MOL   O20145501   7.652   3.145   7.044  0.8569 -0.0274 -0.2519
  151MOL   C20245502   7.753   3.241   7.087  0.6335  0.3182  0.1927
  151MOL   C20345503   7.704   3.350   7.190 -0.0501  0.2291 -0.1269
  151MOL   H20445504   7.514   3.033   6.685  1.6157 -0.0974  0.1287
  151MOL   H20545505   7.423   3.149   6.777 -0.2602 -0.3878  0.0436
  151MOL   H20645506   7.476   3.007   6.978  1.1558  1.1073  1.0762
  151MOL   H20745507   7.835   3.186   7.134 -0.7333 -1.3098  0.7184
  151MOL   H20845508   7.805   3.290   7.004 -0.1367 -2.1521 -1.7860
  151MOL   H20945509   7.636   3.416   7.136 -0.2043  1.7584  1.8812
  151MOL   H21045510   7.784   3.413   7.228 -0.8074  1.0916  0.0457
  151MOL   H21145511   7.658   3.298   7.274  0.3813 -0.8066 -0.5176
  151MOL   C21245512   7.603   2.861   6.880  0.0174  0.4851 -0.2067
  151MOL   C21345513   7.611   2.790   7.021  0.5223 -0.1834  0.1612
  151MOL   C21445514   7.746   2.815   7.088  0.8056  0.1358 -0.4011
  151MOL   O21545515   7.763   2.886   7.187 -0.5935 -0.2231 -0.4007
  151MOL   O21645516   7.837   2.738   7.034  0.0333  0.7082  0.8373
  151MOL   C21745517   0.058   2.728   7.093 -0.3204  0.4820 -0.0739
  151MOL   C21845518   0.061   2.615   7.198  0.7882  0.3840 -0.1317
  151MOL   H21945519   7.565   2.801   6.797 -1.6477  0.4556  0.5535
  151MOL   H22045520   7.705   2.869   6.843 -0.6049  1.2214 -1.8125
  151MOL   H22145521   7.538   2.834   7.090  1.6339  3.7725 -1.0302
  151MOL   H22245522   0.133   2.708   7.017 -1.3494 -1.8007 -0.5050
  151MOL   H22345523   0.085   2.826   7.134 -4.0450  0.8947  1.6297
  151MOL   H22445524   0.010   2.643   7.290  1.8068 -0.2673  0.6402
  151MOL   H22545525   0.163   2.577   7.208  1.5279  1.4028 -3.1522
  151MOL   H22645526   0.005   2.531   7.158 -0.0636  1.2510 -0.7964
  151MOL   C22745527   7.574   2.634   7.020  0.4934 -0.3788  0.1553
  151MOL   C22845528   7.546   2.571   7.162 -0.6318 -0.2271 -0.0052
  151MOL   C22945529   7.567   2.417   7.160  0.7603 -0.4064  0.2163
  151MOL   O23045530   7.477   2.337   7.167 -0.6133  0.1835 -0.3345
  151MOL   O23145531   7.697   2.385   7.162  0.2482 -0.6246  0.5414
  151MOL   C23245532   7.751   2.260   7.145 -0.1122  0.2203 -0.5889
  151MOL   C23345533   7.877   2.276   7.068  0.1616  0.4089 -0.5864
  151MOL   H23445534   7.485   2.613   6.961  0.8743 -1.3382 -0.0941
  151MOL   H23545535   7.652   2.573   6.975  1.1776  0.9749 -0.5327
  151MOL   H23645536   7.625   2.607   7.228 -2.0888 -1.3342  2.4096
  151MOL   H23745537   7.757   2.214   7.244 -1.2784 -0.8603 -1.0137
  151MOL   H23845538   7.679   2.210   7.081 -0.7048 -0.3145  0.4719
  151MOL   H23945539   7.899   2.172   7.046 -0.2163  0.0576  0.6552
  151MOL   H24045540   0.052   2.312   7.129  0.8045 -0.3303 -1.0243
  151MOL   H24145541   7.862   2.334   6.978 -1.6065 -0.6212 -0.9629
  151MOL   C24245542   7.408   2.609   7.221 -0.7243 -0.4806  0.1053
  151MOL   C24345543   7.416   2.711   7.327 -0.3190 -0.3600 -0.1954
  151MOL   C24445544   7.457   2.648   7.460  0.0224  0.5621 -1.1161
  151MOL   O24545545   7.573   2.642   7.485 -0.6366  0.0918 -0.3494
  151MOL   O24645546   7.348   2.605   7.529  0.0157 -0.1470 -0.4370
  151MOL   C24745547   7.361   2.558   7.667  0.4669  0.5063  0.5342
  151MOL   C24845548   7.376   2.410   7.682  0.1650  0.6145  0.7214
  151MOL   H24945549   7.352   2.642   7.134 -1.2489 -1.2278  0.1611
  151MOL   H25045550   7.354   2.523   7.260 -0.7072 -1.1092 -1.2297
  151MOL   H25145551   7.495   2.776   7.291 -0.5755 -0.2079 -0.4913
  151MOL   H25245552   7.445   2.614   7.708  0.0083  2.0150 -0.5389
  151MOL   H25345553   7.273   2.595   7.720 -0.7324  1.2729 -1.8802
  151MOL   H25445554   7.364   2.378   7.785 -1.3038  1.9833  0.9993
  151MOL   H25545555   7.473   2.372   7.651 -1.2803 -2.2382 -0.4758
  151MOL   H25645556   7.299   2.357   7.626  0.1182  0.5897  0.8103
  151MOL   C25745557   7.287   2.796   7.330  0.3318  0.3046  0.5443
  151MOL   C25845558   7.302   2.933   7.400 -0.0628  0.9743  0.7226
  151MOL   C25945559   7.277   2.919   7.559 -0.4128 -0.5293 -0.9011
  151MOL   O26045560   7.161   2.914   7.600 -0.0803 -0.1888 -0.2684
  151MOL   O26145561   7.391   2.919   7.632 -0.1450  0.2359 -0.1740
  151MOL   C26245562   7.400   2.913   7.773 -0.3241  0.5574  0.5320
  151MOL   C26345563   7.529   2.992   7.815  0.8139  0.6193  0.0312
  151MOL   H26445564   7.265   2.807   7.224  0.5089  1.3743  0.6193
  151MOL   H26545565   7.205   2.735   7.368 -1.9898  2.3847 -1.0346
  151MOL   H26645566   7.407   2.958   7.388  0.2676 -1.2447 -1.4011
  151MOL   H26745567   7.312   2.946   7.828 -0.9204 -0.5978  0.2980
  151MOL   H26845568   7.419   2.807   7.793  2.3747  0.7169 -0.9476
  151MOL   H26945569   7.599   2.984   7.732  0.6018  1.5110 -0.2363
  151MOL   H27045570   7.563   2.952   0.003  1.8291 -0.0897 -0.6112
  151MOL   H27145571   7.511   3.099   7.807 -1.2362  0.1067 -2.9514
  151MOL   C27245572   7.211   3.046   7.340 -0.7191 -0.2620  0.2208
  151MOL   C27345573   7.248   3.184   7.385 -0.5480  0.1581 -0.0593
  151MOL   C27445574   7.124   3.268   7.407 -0.5569 -1.1306 -0.6493
  151MOL   O27545575   7.081   3.277   7.522 -0.1069  0.1775 -0.5891
  151MOL   O27645576   7.082   3.332   7.309 -0.0714 -0.3340 -0.0381
  151MOL   C27745577   6.980   3.421   7.308  0.0923 -0.1895 -0.0631
  151MOL   C27845578   7.007   3.555   7.368  0.9634  0.0218  0.3469
  151MOL   H27945579   7.228   3.048   7.233 -0.5260  1.9557  0.2867
  151MOL   H28045580   7.107   3.025   7.365 -0.9651  0.3664 -0.2812
  151MOL   H28145581   7.290   3.184   7.485  2.2250 -1.4118 -1.1691
  151MOL   H28245582   6.956   3.434   7.203 -1.5288 -1.0467  0.1865
  151MOL   H28345583   6.892   3.377   7.356  0.0284 -1.1122 -1.0274
  151MOL   H28445584   6.915   3.608   7.344 -0.6214 -2.2475  1.1647
  151MOL   H28545585   7.079   3.618   7.316  0.2199 -0.2746 -1.0756
  151MOL   H28645586   7.031   3.557   7.474 -0.4759 -0.0001  0.6902
  151MOL   C28745587   7.363   3.261   7.300 -0.0628  0.4671  0.1890
  151MOL   C28845588   7.391   3.408   7.340  0.6884  0.1073  0.0982
  151MOL   C28945589   7.458   3.436   7.477  0.0010  0.1788  0.0566
  151MOL   O29045590   7.392   3.491   7.572  0.1160  0.0840  0.2301
  151MOL   O29145591   7.589   3.391   7.485  0.4399  0.1644  0.3292
  151MOL   C29245592   7.651   3.405   7.607 -0.0840  0.0054  0.1403
  151MOL   C29345593   7.762   3.308   7.629  0.1000 -0.8721  0.4281
  151MOL   H29445594   7.464   3.221   7.308  0.0934  0.7959 -0.1457
  151MOL   H29545595   7.360   3.236   7.194  3.1048 -0.3668  0.2573
  151MOL   H29645596   7.452   3.456   7.264  0.6050  0.6748  0.3844
  151MOL   H29745597   7.672   3.512   7.613  0.9302 -0.1564 -0.3891
  151MOL   H29845598   7.579   3.382   7.685  0.0393  0.9474  0.5420
  151MOL   H29945599   7.719   3.214   7.663  1.9569 -2.2183 -0.8182
  151MOL   H30045600   7.838   3.347   7.697  0.4334  0.5435 -0.7249
  151MOL   H30145601   7.808   3.294   7.530 -0.7762 -0.8420  0.0142
  151MOL   H30245602   7.299   3.466   7.348 -0.3809 -1.7924  2.1628
  152MOL     C145603   0.987   4.425   7.816  0.3009  0.0127 -0.5673
  152MOL     C245604   1.090   4.368   0.007  0.3921 -0.6072  0.0924
  152MOL     C345605   1.109   4.216   7.890 -0.2389  0.5132 -0.4869
  152MOL     O445606   1.208   4.172   7.828 -0.1689  0.0894 -0.3009
  152MOL     O545607   1.017   4.139   0.033 -0.7939  0.5441 -0.3360
  152MOL     C645608   1.015   3.997   0.012  0.5254  0.2270  0.4998
  152MOL     C745609   0.928   3.929   0.120 -0.2114 -0.4272  0.0441
  152MOL     H845610   0.900   4.360   7.804  0.1186  0.1890 -0.2026
  152MOL     H945611   1.034   4.454   7.722  1.2829 -1.8133 -0.6800
  152MOL    H1045612   1.184   4.420   7.897 -0.6943  1.5585  0.4187
  152MOL    H1145613   0.976   3.983   7.819 -0.1717 -2.1539  1.0573
  152MOL    H1245614   1.115   3.953   0.010 -0.3017 -1.7269  0.7796
  152MOL    H1345615   0.825   3.966   0.127 -0.4451 -1.2974  1.2758
  152MOL    H1445616   0.969   3.938   0.221 -0.1920  1.6803 -0.1127
  152MOL    H1545617   0.904   3.824   0.105 -1.2446 -0.2176  0.1760
  152MOL    H1645618   0.952   4.520   7.856 -1.8426 -0.9220 -0.1458
  152MOL    C1745619   1.051   4.402   0.153 -0.0139  0.7086  0.0858
  152MOL    C1845620   1.066   4.548   0.203 -0.2789 -0.2786 -0.1312
  152MOL    C1945621   1.213   4.597   0.211  0.0819 -0.3474  0.1458
  152MOL    O2045622   1.240   4.717   0.227  0.9116 -0.3043 -0.3471
  152MOL    O2145623   1.307   4.503   0.205  0.1670  0.0943  0.1026
  152MOL    C2245624   1.448   4.543   0.201 -0.1470  0.1444 -0.0718
  152MOL    C2345625   1.513   4.497   0.072  0.1890  0.3825  0.4239
  152MOL    H2445626   0.955   4.358   0.178 -0.1209  0.0858 -1.3386
  152MOL    H2545627   1.107   4.328   0.211 -0.4842 -1.1837 -1.7787
  152MOL    H2645628   1.018   4.614   0.131  1.5640 -0.3160 -1.3960
  152MOL    H2745629   1.483   4.645   0.220 -1.0089  1.5262 -5.1456
  152MOL    H2845630   1.500   4.486   0.278 -0.4170  0.2790  0.2139
  152MOL    H2945631   1.459   4.538   7.895  1.2890 -1.9508 -1.4782
  152MOL    H3045632   1.511   4.389   0.052  0.9484  0.0033  2.3096
  152MOL    H3145633   1.615   4.535   0.067  0.2745  0.0653 -0.3006
  152MOL    C3245634   0.993   4.581   0.339  0.0104 -0.2903 -0.4000
  152MOL    C3345635   0.834   4.558   0.340  0.0401  0.1698  0.1046
  152MOL    C3445636   0.774   4.663   0.243 -0.1265  0.4190 -0.5073
  152MOL    O3545637   0.776   4.636   0.124  0.1847  0.0118  0.1177
  152MOL    O3645638   0.739   4.777   0.306 -0.1053  0.3019 -0.2180
  152MOL    C3745639   0.704   4.893   0.229  0.0892  0.1074  1.2486
  152MOL    C3845640   0.563   4.889   0.174 -0.0837 -0.5330  0.7990
  152MOL    H3945641   1.035   4.530   0.426 -3.1949 -2.6585 -0.1636
  152MOL    H4045642   1.018   4.686   0.356  0.2983 -0.3702 -0.3164
  152MOL    H4145643   0.823   4.467   0.282  0.9161  0.3888 -0.4275
  152MOL    H4245644   0.718   4.975   0.300 -1.1026  1.1107  0.3308
  152MOL    H4345645   0.787   4.907   0.161 -0.7025  1.8920  0.6159
  152MOL    H4445646   0.517   4.970   0.118 -3.0080 -1.8558  1.1514
  152MOL    H4545647   0.505   4.869   0.265  1.2752  1.6173  2.1652
  152MOL    H4645648   0.545   4.799   0.114  0.6970  0.4819 -0.9665
  152MOL    C4745649   0.766   4.550   0.476  0.7332 -0.0422  0.5495
  152MOL    C4845650   0.818   4.434   0.569  0.6486  0.5898 -0.2167
  152MOL    C4945651   0.838   4.301   0.494  0.1524  0.5876  0.1559
  152MOL    O5045652   0.945   4.239   0.511  0.1355 -0.3182 -0.1967
  152MOL    O5145653   0.740   4.259   0.414 -0.2656  0.0311 -0.6468
  152MOL    C5245654   0.747   4.136   0.344  0.1404 -0.8186 -0.1279
  152MOL    C5345655   0.648   4.033   0.407 -0.0437 -0.1096 -0.3709
  152MOL    H5445656   0.767   4.651   0.517 -0.3422  0.2035 -0.0084
  152MOL    H5545657   0.659   4.533   0.468  1.0524 -1.7453 -0.4199
  152MOL    H5645658   0.915   4.467   0.606  1.5766  0.0353 -2.0714
  152MOL    H5745659   0.739   4.147   0.236 -1.3338 -0.0294  0.0507
  152MOL    H5845660   0.844   4.090   0.362  0.4031 -0.2379 -0.0871
  152MOL    H5945661   0.544   4.066   0.405 -0.3091 -0.8876  0.1323
  152MOL    H6045662   0.666   4.024   0.514 -1.6438  1.9034  0.1048
  152MOL    H6145663   0.646   3.935   0.360  0.7364 -0.7137  0.8336
  152MOL    C6245664   0.721   4.417   0.686 -0.7371  0.0812 -0.0230
  152MOL    C6345665   0.756   4.314   0.799  0.7724  0.7819 -0.4759
  152MOL    C6445666   0.890   4.343   0.872  0.4046  0.4951  0.0388
  152MOL    O6545667   0.903   4.438   0.944  0.3043  0.1456  0.4331
  152MOL    O6645668   0.981   4.256   0.823  0.4005  0.3224 -0.1594
  152MOL    C6745669   1.120   4.262   0.877  0.6974  0.9043 -0.0006
  152MOL    C6845670   1.207   4.231   0.761 -0.0466  0.2673  0.4070
  152MOL    H6945671   0.712   4.514   0.735 -0.1632 -0.2276  0.7070
  152MOL    H7045672   0.622   4.399   0.646 -0.0834  0.1987 -1.7539
  152MOL    H7145673   0.689   4.328   0.884  1.3088 -1.6043  0.3887
  152MOL    H7245674   1.145   4.360   0.917 -0.3371  0.6914  1.1750
  152MOL    H7345675   1.135   4.198   0.964 -0.5162  0.9722  0.2720
  152MOL    H7445676   1.199   4.127   0.731 -0.5717  0.5586 -0.4879
  152MOL    H7545677   1.314   4.242   0.778  0.7495 -1.7387 -2.9510
  152MOL    H7645678   1.184   4.292   0.674  0.0533 -1.3691 -0.7722
  152MOL    C7745679   0.739   4.159   0.752 -0.1316 -0.4438  0.3055
  152MOL    C7845680   0.739   4.046   0.865 -0.5032  0.5980  0.0060
  152MOL    C7945681   0.761   3.900   0.816  0.2161 -0.5361  0.6894
  152MOL    O8045682   0.756   3.869   0.694 -0.1903  0.1285 -0.1678
  152MOL    O8145683   0.804   3.821   0.919 -0.3209  0.1022  0.0563
  152MOL    C8245684   0.849   3.692   0.891 -0.2096 -0.1241  0.1401
  152MOL    C8345685   0.722   3.602   0.871 -0.1871 -0.6463 -0.0357
  152MOL    H8445686   0.647   4.153   0.695  0.1333 -1.5873  0.0000
  152MOL    H8545687   0.827   4.140   0.692 -1.0385  0.0309 -1.1912
  152MOL    H8645688   0.823   4.075   0.928 -0.3968 -0.9703  0.6244
  152MOL    H8745689   0.911   3.694   0.801 -0.0413  0.6607  0.2792
  152MOL    H8845690   0.922   3.662   0.966 -0.7075 -1.7604  0.0032
  152MOL    H8945691   0.760   3.507   0.833 -0.0116 -0.9031  0.7790
  152MOL    H9045692   0.651   3.647   0.802  0.7812 -0.6576 -1.0604
  152MOL    H9145693   0.675   3.589   0.968  0.5370 -1.2753  0.2344
  152MOL    C9245694   0.612   4.057   0.954 -0.6254  0.1621 -0.0171
  152MOL    C9345695   0.626   4.131   1.093  0.0738  0.6258 -0.3705
  152MOL    C9445696   0.733   4.059   1.184  1.0829 -0.1246 -0.1337
  152MOL    O9545697   0.817   4.123   1.240 -0.1581 -0.0990 -0.7889
  152MOL    O9645698   0.716   3.926   1.202 -0.0491  0.3788 -0.6850
  152MOL    C9745699   0.811   3.854   1.289 -0.0631 -0.1839 -0.5011
  152MOL    C9845700   0.778   3.713   1.338  0.2840 -0.0840  0.6238
  152MOL    H9945701   0.530   4.093   0.892  0.7182 -2.0485 -3.1924
  152MOL   H10045702   0.580   3.954   0.971  2.8313 -1.0956 -0.6766
  152MOL   H10145703   0.661   4.233   1.076  1.5343  0.1410 -0.3585
  152MOL   H10245704   0.906   3.856   1.237  0.1293  0.9401 -0.1153
  152MOL   H10345705   0.824   3.912   1.380  1.8239 -1.1723 -0.1097
  152MOL   H10445706   0.850   3.686   1.416 -1.6395 -0.8955  2.1534
  152MOL   H10545707   0.783   3.643   1.254  0.6611 -1.8213  2.0767
  152MOL   H10645708   0.682   3.705   1.388  0.2697 -3.9438  0.1658
  152MOL   C10745709   0.486   4.141   1.141 -0.1989  0.1745 -0.2869
  152MOL   C10845710   0.461   4.181   1.288  0.3342  0.0623 -0.6704
  152MOL   C10945711   0.440   4.059   1.375 -0.2433  0.6201  0.4412
  152MOL   O11045712   0.524   4.028   1.461  0.0451  0.0348 -0.8039
  152MOL   O11145713   0.326   3.990   1.347 -0.5122 -0.2018  0.0864
  152MOL   C11245714   0.296   3.870   1.421 -0.2137  0.0069  0.1349
  152MOL   C11345715   0.285   3.758   1.317 -0.2125  0.8679  0.1106
  152MOL   H11445716   0.442   4.215   1.074  2.0825 -0.1961 -2.3027
  152MOL   H11545717   0.444   4.044   1.114  0.8514 -0.3971  0.0772
  152MOL   H11645718   0.552   4.232   1.322 -1.0333  2.1571 -0.0488
  152MOL   H11745719   0.365   3.832   1.496  0.0758  2.2546  1.0452
  152MOL   H11845720   0.202   3.891   1.471 -1.2108  1.1640 -2.1943
  152MOL   H11945721   0.317   3.664   1.360  1.7214 -0.4365 -3.9231
  152MOL   H12045722   0.343   3.785   1.229  4.6374 -0.7425  2.6714
  152MOL   H12145723   0.184   3.730   1.285  0.6414 -1.8511 -0.2578
  152MOL   C12245724   0.350   4.292   1.307  0.5663  0.0687  0.3301
  152MOL   C12345725   0.341   4.361   1.446  0.6135  0.4011  0.1982
  152MOL   C12445726   0.208   4.433   1.451 -0.3031 -0.5106  0.1064
  152MOL   O12545727   0.185   4.539   1.387 -0.4766  0.3720  0.1379
  152MOL   O12645728   0.115   4.361   1.505  0.2888 -0.0075 -0.4574
  152MOL   C12745729   7.884   4.405   1.498  0.0890 -0.2555  0.5281
  152MOL   C12845730   7.799   4.294   1.442  0.3924  0.3579  0.6179
  152MOL   H12945731   0.369   4.376   1.241  1.5186  0.6918  1.3967
  152MOL   H13045732   0.261   4.235   1.278 -1.1436  1.6165  2.3975
  152MOL   H13145733   0.342   4.287   1.525  1.6136  0.2503  0.0499
  152MOL   H13245734   7.854   4.424   1.601 -0.4638 -0.6375  0.4379
  152MOL   H13345735   7.864   4.491   1.435 -0.7622 -0.7945  0.0502
  152MOL   H13445736   7.818   4.206   1.503 -1.7421 -0.2347  0.4682
  152MOL   H13545737   7.830   4.254   1.345  0.5939  1.0287  0.3973
  152MOL   H13645738   7.692   4.312   1.436  0.0820 -1.3412  0.8478
  152MOL   C13745739   0.456   4.459   1.464 -0.0571  0.0594 -0.3929
  152MOL   C13845740   0.472   4.509   1.608  0.1088 -0.2921  0.2780
  152MOL   C13945741   0.516   4.655   1.621  0.3785 -0.2863  0.4204
  152MOL   O14045742   0.437   4.728   1.687  0.1386  0.0270 -0.2239
  152MOL   O14145743   0.640   4.695   1.574  0.3131  0.8797 -0.7159
  152MOL   C14245744   0.679   4.836   1.594 -0.7015  0.0784  0.1454
  152MOL   C14345745   0.771   4.847   1.717  0.5120 -0.8693  0.0130
  152MOL   H14445746   0.547   4.410   1.430  0.7093  0.9436  0.3542
  152MOL   H14545747   0.448   4.547   1.400  1.3399  0.1408 -0.4687
  152MOL   H14645748   0.367   4.510   1.637 -0.2082  0.6210 -0.8418
  152MOL   H14745749   0.736   4.868   1.507 -0.8104 -0.4337 -0.1143
  152MOL   H14845750   0.591   4.900   1.604 -2.1258 -2.1618  2.5712
  152MOL   H14945751   0.833   4.758   1.731 -0.0988 -1.0578  1.6012
  152MOL   H15045752   0.707   4.875   1.801  0.0920 -1.6428 -0.0433
  152MOL   H15145753   0.840   4.926   1.689  1.1254 -2.6702 -3.8953
  152MOL   C15245754   0.562   4.417   1.693 -0.6047  0.6595  0.9258
  152MOL   C15345755   0.544   4.416   1.845  0.5822 -1.0103  0.3469
  152MOL   C15445756   0.637   4.518   1.916  0.1521  0.0179 -0.8964
  152MOL   O15545757   0.593   4.612   1.987  0.8048 -0.2809  0.3340
  152MOL   O15645758   0.769   4.476   1.906 -0.6255  0.0309  0.6999
  152MOL   C15745759   0.875   4.544   1.978 -0.4135  0.3315 -0.0687
  152MOL   C15845760   1.012   4.480   1.968 -0.6071 -0.1320  0.7723
  152MOL   H15945761   0.551   4.316   1.653  1.4776  1.5319 -2.0258
  152MOL   H16045762   0.665   4.447   1.671  0.4280 -0.4967  3.8703
  152MOL   H16145763   0.447   4.464   1.864 -0.1862 -2.3722 -0.0713
  152MOL   H16245764   0.886   4.642   1.931  1.5970 -1.2992 -3.2389
  152MOL   H16345765   0.848   4.544   2.083 -1.2916  1.1752 -0.2880
  152MOL   H16445766   1.031   4.400   2.039 -3.4629  0.4562  2.2801
  152MOL   H16545767   1.082   4.559   1.993  0.9064 -1.4535  0.7936
  152MOL   H16645768   1.035   4.438   1.869  0.2871 -0.6481  1.1886
  152MOL   C16745769   0.546   4.268   1.904  0.7073 -0.0791  0.1108
  152MOL   C16845770   0.470   4.258   2.047 -0.0265  0.4850 -0.8701
  152MOL   C16945771   0.556   4.309   2.166 -0.1294 -0.3922  0.1155
  152MOL   O17045772   0.516   4.411   2.222 -0.8787 -0.3003 -0.0830
  152MOL   O17145773   0.674   4.235   2.180 -0.0257  0.2308  0.5339
  152MOL   C17245774   0.780   4.286   2.254 -0.5594 -1.1532 -0.5463
  152MOL   C17345775   0.764   4.231   2.397  0.3109  0.6591  0.4634
  152MOL   H17445776   0.490   4.205   1.835  1.8251 -0.0756 -0.8061
  152MOL   H17545777   0.648   4.230   1.915  0.4841 -0.2805  1.5858
  152MOL   H17645778   0.381   4.319   2.063 -0.4334 -1.1005  3.8016
  152MOL   H17745779   0.874   4.251   2.211  1.0199 -1.2540  2.8273
  152MOL   H17845780   0.778   4.395   2.253 -1.1257 -1.1502  0.8897
  152MOL   H17945781   0.683   4.289   2.441  0.6816  0.6033  1.2330
  152MOL   H18045782   0.851   4.242   2.463  0.3317  0.2554  0.5081
  152MOL   H18145783   0.743   4.124   2.394  1.0367  0.4877  0.9519
  152MOL   C18245784   0.444   4.102   2.067 -0.3652  0.5264 -0.1985
  152MOL   C18345785   0.383   4.058   2.205  0.1186  0.0265  0.1042
  152MOL   C18445786   0.407   3.908   2.228 -0.1269  0.4559 -0.5941
  152MOL   O18545787   0.510   3.860   2.283  0.2998 -0.8034 -0.4487
  152MOL   O18645788   0.317   3.829   2.168  0.1178 -0.2577  0.2931
  152MOL   C18745789   0.333   3.690   2.176  0.5616 -0.4642 -0.6122
  152MOL   C18845790   0.205   3.627   2.104  0.5247 -0.4767 -0.0029
  152MOL   H18945791   0.377   4.073   1.985  0.0642 -1.2429  0.0623
  152MOL   H19045792   0.541   4.056   2.052 -0.5993 -0.0214 -0.0611
  152MOL   H19145793   0.451   4.101   2.278  2.9560 -1.4540 -1.5721
  152MOL   H19245794   0.423   3.648   2.132  0.9526 -1.3145  0.9863
  152MOL   H19345795   0.328   3.657   2.279 -0.0907 -0.0799 -0.5116
  152MOL   H19445796   0.199   3.651   1.998 -0.1263  1.3776  0.4474
  152MOL   H19545797   0.118   3.669   2.153 -2.1099 -2.9547 -2.3639
  152MOL   H19645798   0.203   3.518   2.109 -2.3063 -0.4706 -0.1827
  152MOL   C19745799   0.229   4.104   2.219  0.0011 -0.3838 -0.1618
  152MOL   C19845800   0.214   4.234   2.298 -0.1736 -0.2020 -0.1603
  152MOL   C19945801   0.269   4.238   2.445 -0.2125  0.0521 -0.1574
  152MOL   O20045802   0.339   4.329   2.487  0.7716 -0.4032  0.2791
  152MOL   O20145803   0.237   4.133   2.524 -0.1104 -0.2570  0.3341
  152MOL   C20245804   0.291   4.135   2.657 -0.0421 -0.1961  0.1509
  152MOL   C20345805   0.187   4.185   2.762 -0.3286  0.2055  0.3625
  152MOL   H20445806   0.180   4.118   2.122  2.3035 -0.8035 -1.4088
  152MOL   H20545807   0.168   4.026   2.264 -1.0316  0.6640  0.2887
  152MOL   H20645808   0.282   4.309   2.257 -1.0456 -0.2288 -1.6869
  152MOL   H20745809   0.302   4.027   2.670 -0.2483 -0.0295  1.8403
  152MOL   H20845810   0.396   4.163   2.672 -0.2700  0.9265 -0.3602
  152MOL   H20945811   0.108   4.112   2.780  2.2520 -3.0116 -0.8509
  152MOL   H21045812   0.143   4.280   2.733  0.2717 -0.5174 -3.0378
  152MOL   H21145813   0.247   4.191   2.853 -0.9056 -1.5343  0.8822
  152MOL   C21245814   0.067   4.279   2.299  0.2231 -0.5304 -1.0141
  152MOL   C21345815   0.064   4.423   2.248  0.6859 -0.7922  0.3238
  152MOL   C21445816   7.831   4.474   2.281  0.3464 -0.0561  0.1065
  152MOL   O21545817   7.807   4.523   2.392 -0.3892  0.7318 -0.0604
  152MOL   O21645818   7.745   4.462   2.178  0.7562  0.0161 -0.1651
  152MOL   C21745819   7.606   4.490   2.198  0.0688 -0.2268  0.0240
  152MOL   C21845820   7.569   4.607   2.104  0.3555  0.1330 -0.1342
  152MOL   H21945821   0.013   4.223   2.223  0.7286 -0.1363 -1.6733
  152MOL   H22045822   0.030   4.262   2.400  0.6514 -0.5623 -0.8598
  152MOL   H22145823   0.144   4.476   2.300 -0.5436 -0.5112  1.9505
  152MOL   H22245824   7.555   4.398   2.170  0.4195 -0.0705 -1.1234
  152MOL   H22345825   7.576   4.510   2.301  1.7911 -0.7939  0.6605
  152MOL   H22445826   7.619   4.695   2.145  1.7522 -0.6731 -0.0540
  152MOL   H22545827   7.465   4.634   2.087  0.7330  1.4375 -0.4485
  152MOL   H22645828   7.620   4.588   2.010 -2.0639 -1.8939 -1.0919
  152MOL   C22745829   0.099   4.434   2.096 -0.7087 -0.5987 -0.5485
  152MOL   C22845830   0.113   4.577   2.042  0.7112 -0.9101 -0.1573
  152MOL   C22945831   0.097   4.604   1.889 -0.1472  0.7210 -0.2356
  152MOL   O23045832   0.126   4.523   1.805 -0.4286 -0.2517  0.4065
  152MOL   O23145833   0.047   4.729   1.864 -0.5312 -0.1333  0.3910
  152MOL   C23245834   0.041   4.782   1.737 -0.2782 -0.5878 -0.3023
  152MOL   C23345835   7.811   4.751   1.678 -0.1179 -0.5210 -0.1507
  152MOL   H23445836   0.194   4.386   2.073 -0.8786 -1.7036  1.0142
  152MOL   H23545837   0.023   4.385   2.034  0.2868 -2.7937 -0.0768
  152MOL   H23645838   0.031   4.634   2.086  0.4093 -1.7795  0.4101
  152MOL   H23745839   0.059   4.889   1.737 -0.0733 -0.6216 -0.3778
  152MOL   H23845840   0.110   4.735   1.666  1.2220  0.7265  0.2687
  152MOL   H23945841   7.805   4.788   1.576 -3.8034 -0.7534 -0.0653
  152MOL   H24045842   7.733   4.800   1.736  1.6396  0.8345  1.1055
  152MOL   H24145843   7.799   4.643   1.675 -0.3649 -0.5313  1.0310
  152MOL   C24245844   0.242   4.652   2.097  0.0130 -0.1289 -0.6825
  152MOL   C24345845   0.213   4.773   2.193  0.0936  0.0257  0.5583
  152MOL   C24445846   0.151   4.892   2.118 -0.3137 -0.0154 -0.1557
  152MOL   O24545847   0.038   4.944   2.145 -0.1847  0.1292 -0.3709
  152MOL   O24645848   0.239   4.943   2.024 -0.1411  0.2841  0.3202
  152MOL   C24745849   0.207   5.064   1.948 -0.4062  0.0145  0.0827
  152MOL   C24845850   0.280   5.187   1.993  0.0814  0.0120 -0.0896
  152MOL   H24945851   0.304   4.584   2.155  1.6041  1.7086 -0.1512
  152MOL   H25045852   0.311   4.686   2.019  1.8227  1.4465  1.5416
  152MOL   H25145853   0.154   4.736   2.277 -0.0214 -0.2808  0.3457
  152MOL   H25245854   0.227   5.038   1.844  0.6196  0.1862  0.2249
  152MOL   H25345855   0.102   5.091   1.956 -0.5983 -0.8216  0.4662
  152MOL   H25445856   0.386   5.196   1.972  0.3738  1.3419  1.8202
  152MOL   H25545857   0.289   5.189   2.102  2.4276  0.1643 -0.2691
  152MOL   H25645858   0.233   5.277   1.954 -0.7822  0.9453  2.9893
  152MOL   C25745859   0.345   4.811   2.269 -0.8830 -0.2932 -1.1553
  152MOL   C25845860   0.337   4.937   2.361  0.0189 -0.0775 -0.3837
  152MOL   C25945861   0.458   5.025   2.362 -0.0683  0.7795 -0.0114
  152MOL   O26045862   0.512   5.053   2.471  0.1106  0.2744 -0.3161
  152MOL   O26145863   0.502   5.053   2.237 -0.2366  0.2682  0.4209
  152MOL   C26245864   0.626   5.124   2.226 -0.4663 -0.5574  0.2075
  152MOL   C26345865   0.666   5.151   2.082  0.2493  0.1629  0.0307
  152MOL   H26445866   0.373   4.737   2.344 -0.9903  0.6670 -0.1519
  152MOL   H26545867   0.430   4.823   2.201 -1.5420  3.3610 -1.4320
  152MOL   H26645868   0.258   4.999   2.318 -0.5960 -1.5005 -1.3456
  152MOL   H26745869   0.606   5.212   2.286  1.3096 -0.8135  1.2125
  152MOL   H26845870   0.708   5.070   2.273  0.0148 -0.3619 -0.4012
  152MOL   H26945871   0.679   5.057   2.028  0.2805 -1.7510  3.2918
  152MOL   H27045872   0.763   5.201   2.093 -1.8985  4.1259  1.7627
  152MOL   H27145873   0.602   5.216   2.022 -1.3155 -0.8379  0.6136
  152MOL   C27245874   0.270   4.909   2.496 -0.2863 -0.0989  0.3845
  152MOL   C27345875   0.203   5.029   2.562 -0.2823 -0.1600  0.4288
  152MOL   C27445876   0.228   5.024   2.717 -0.4873  0.3607  0.3384
  152MOL   O27545877   0.167   4.953   2.799  0.4143 -0.5731  0.5144
  152MOL   O27645878   0.325   5.114   2.751  0.0982 -0.8513  0.4620
  152MOL   C27745879   0.342   5.156   2.881  0.2405  0.2937  0.1319
  152MOL   C27845880   0.373   5.308   2.892  0.9169  0.2580  0.0409
  152MOL   H27945881   0.189   4.842   2.466  0.3549 -1.3312  1.3591
  152MOL   H28045882   0.329   4.842   2.558 -0.5951  1.4394  2.3563
  152MOL   H28145883   0.254   5.115   2.519 -2.8494  0.6104 -1.2064
  152MOL   H28245884   0.264   5.125   2.950  1.2934 -3.2142 -0.1428
  152MOL   H28345885   0.432   5.110   2.921  0.9237  1.8627  0.4215
  152MOL   H28445886   0.300   5.360   2.829  1.6115 -1.7561 -2.4845
  152MOL   H28545887   0.470   5.327   2.847  0.7680 -1.0450 -0.8533
  152MOL   H28645888   0.364   5.348   2.993 -4.1122 -0.6489  0.1070
  152MOL   C28745889   0.054   5.040   2.535  0.2293 -0.4417  0.3966
  152MOL   C28845890   7.891   5.174   2.575  0.4453 -1.0225  1.1436
  152MOL   C28945891   7.878   5.270   2.454  0.2449 -0.0529 -0.0436
  152MOL   O29045892   0.003   5.391   2.457  0.3955  0.2020 -0.1853
  152MOL   O29145893   7.821   5.206   2.352 -0.4712 -0.1260  0.0575
  152MOL   C29245894   7.777   5.266   2.233 -0.1033  0.3055  1.2623
  152MOL   C29345895   7.891   5.286   2.138 -0.0141 -0.0659  0.7830
  152MOL   H29445896   0.055   5.020   2.427  0.6216 -1.1411  0.5241
  152MOL   H29545897   0.006   4.957   2.587 -0.2480 -0.6428 -0.3464
  152MOL   H29645898   7.786   5.152   2.595 -0.2092  0.6613 -0.2466
  152MOL   H29745899   7.701   5.203   2.187  1.5812 -1.2774  0.6056
  152MOL   H29845900   7.738   5.362   2.268 -1.5525  0.4192 -0.6268
  152MOL   H29945901   0.030   5.384   2.144  1.6973 -0.8090 -0.2663
  152MOL   H30045902   7.852   5.262   2.039  1.1694 -2.7120  0.9241
  152MOL   H30145903   0.060   5.209   2.145  0.5066  0.4460  0.7293
  152MOL   H30245904   0.027   5.227   2.659 -0.8898  0.3982  0.9683
  153MOL     C145905   0.972   7.405   5.245 -0.5964  0.0701  0.1142
  153MOL     C245906   1.033   7.387   5.382 -0.0433 -0.2670  0.1848
  153MOL     C345907   1.191   7.376   5.374 -0.0969  1.1166 -0.4727
  153MOL     O445908   1.257   7.361   5.270 -0.0866  0.0333 -0.1399
  153MOL     O545909   1.245   7.372   5.500  0.5649 -0.6940  0.3964
  153MOL     C645910   1.376   7.352   5.521  0.4500 -0.6346 -0.8193
  153MOL     C745911   1.462   7.476   5.506 -0.3875 -0.3012 -0.2573
  153MOL     H845912   1.026   7.458   5.167  0.8178  0.1865  1.1604
  153MOL     H945913   0.871   7.445   5.253 -0.9954 -1.2342  2.1586
  153MOL    H1045914   1.018   7.479   5.437  0.6926 -1.0472  1.7145
  153MOL    H1145915   1.385   7.317   5.624 -0.4440  1.7660  0.1102
  153MOL    H1245916   1.426   7.276   5.460  1.9241 -0.9143  0.6750
  153MOL    H1345917   1.433   7.531   5.416  0.5704 -0.6815 -0.8139
  153MOL    H1445918   1.569   7.457   5.515 -0.7936 -1.9580  1.2938
  153MOL    H1545919   1.432   7.544   5.585  1.0363 -2.0230  1.8368
  153MOL    H1645920   0.946   7.310   5.199 -2.1428  0.1668  0.7347
  153MOL    C1745921   0.960   7.283   5.465  0.1238  0.2488 -0.2396
  153MOL    C1845922   0.826   7.328   5.522 -0.3368 -0.3855  1.0014
  153MOL    C1945923   0.842   7.432   5.635 -0.1752  0.1050 -0.2822
  153MOL    O2045924   0.937   7.439   5.708 -0.0713  0.4395  0.0022
  153MOL    O2145925   0.735   7.495   5.654  0.2481  0.2167 -0.6852
  153MOL    C2245926   0.718   7.556   5.784  0.0665  0.0584 -0.2272
  153MOL    C2345927   0.570   7.579   5.811 -1.7072  0.7560 -0.7741
  153MOL    H2445928   0.947   7.195   5.402  1.4294  0.4206 -0.7607
  153MOL    H2545929   1.021   7.247   5.549 -0.4762  1.8691  0.9195
  153MOL    H2645930   0.754   7.362   5.448  1.2501  1.1297  0.1187
  153MOL    H2745931   0.764   7.484   5.852 -0.3527 -2.1653 -2.2238
  153MOL    H2845932   0.775   7.649   5.789 -0.2774  0.2403  0.3479
  153MOL    H2945933   0.562   7.614   5.914 -0.2648  0.7563 -0.6589
  153MOL    H3045934   0.520   7.482   5.811 -2.6143  1.1544  2.8208
  153MOL    H3145935   0.513   7.640   5.741 -1.2664  2.7101  0.5331
  153MOL    C3245936   0.753   7.204   5.581  0.5007  0.4890  0.0088
  153MOL    C3345937   0.599   7.212   5.616 -0.4378 -0.3613 -0.0720
  153MOL    C3445938   0.574   7.115   5.730  0.0059  0.2181 -0.1144
  153MOL    O3545939   0.651   7.023   5.753 -0.4390  0.2200  0.0648
  153MOL    O3645940   0.464   7.139   5.795 -0.0805  0.0195  0.9305
  153MOL    C3745941   0.419   7.035   5.876  0.3833 -0.1027 -0.5587
  153MOL    C3845942   0.297   6.970   5.812 -0.3180 -0.2333  0.7450
  153MOL    H3945943   0.768   7.128   5.504  0.6009 -3.2125  3.5050
  153MOL    H4045944   0.814   7.166   5.663  2.5967 -0.3365 -1.8671
  153MOL    H4145945   0.584   7.312   5.659  0.6974 -0.0369 -0.4201
  153MOL    H4245946   0.495   6.960   5.901 -1.8187 -2.2579 -0.1089
  153MOL    H4345947   0.386   7.084   5.967 -2.2224 -0.9405 -1.0090
  153MOL    H4445948   0.246   6.908   5.886 -2.8475  0.9604  0.0614
  153MOL    H4545949   0.310   6.912   5.721 -0.4575 -1.3159  1.4021
  153MOL    H4645950   0.223   7.047   5.788  0.9047  0.5854 -0.4794
  153MOL    C4745951   0.508   7.199   5.491  0.3319 -0.3168 -0.1478
  153MOL    C4845952   0.415   7.318   5.472  0.7005  0.0474  0.4439
  153MOL    C4945953   0.279   7.291   5.531 -0.4141  0.4809  0.5135
  153MOL    O5045954   0.227   7.367   5.614  0.2289 -0.3821 -0.8559
  153MOL    O5145955   0.235   7.169   5.496 -0.2526 -0.2596 -0.3061
  153MOL    C5245956   0.112   7.131   5.538  0.6060 -0.1641 -0.3381
  153MOL    C5345957   0.082   6.991   5.491  0.5162 -0.3164  0.0725
  153MOL    H5445958   0.579   7.197   5.409  1.0176 -0.3280  0.4431
  153MOL    H5545959   0.469   7.102   5.462 -1.6156  0.6373 -0.8346
  153MOL    H5645960   0.453   7.407   5.522  1.0898  0.7808 -1.1070
  153MOL    H5745961   0.114   7.135   5.647  1.6655 -1.9049 -0.2698
  153MOL    H5845962   0.033   7.200   5.508 -0.7889 -2.0151 -1.0088
  153MOL    H5945963   0.073   7.001   5.382 -0.7091  0.1690  0.2171
  153MOL    H6045964   7.899   6.950   5.533  0.5955 -1.0162 -0.4204
  153MOL    H6145965   0.168   6.930   5.519  1.5248  1.9624  2.1194
  153MOL    C6245966   0.380   7.353   5.323 -0.4045  0.2292 -0.4035
  153MOL    C6345967   0.488   7.408   5.232  0.4810  0.2186  0.8232
  153MOL    C6445968   0.540   7.542   5.281  0.8973 -0.3968 -0.4125
  153MOL    O6545969   0.641   7.549   5.348 -0.2406 -0.1944 -0.1017
  153MOL    O6645970   0.461   7.649   5.245 -0.6216  0.4892  0.2042
  153MOL    C6745971   0.497   7.777   5.289 -0.0773 -0.2981  0.1856
  153MOL    C6845972   0.383   7.878   5.250 -0.8338 -0.1390  0.1157
  153MOL    H6945973   0.360   7.254   5.283  0.0389  0.4805 -1.2641
  153MOL    H7045974   0.294   7.421   5.320  0.5665  1.4830 -0.3610
  153MOL    H7145975   0.573   7.340   5.234 -0.2867 -0.7402  1.1645
  153MOL    H7245976   0.525   7.777   5.395  1.6510 -0.9193 -0.2601
  153MOL    H7345977   0.589   7.802   5.236 -0.1960 -1.6771 -0.6766
  153MOL    H7445978   0.297   7.838   5.304 -0.4574 -0.5811  0.3902
  153MOL    H7545979   0.367   7.880   5.142 -0.4441 -0.3737  0.0510
  153MOL    H7645980   0.414   0.071   5.276  0.8435 -0.9640  1.4305
  153MOL    C7745981   0.443   7.421   5.083 -0.1826  0.2018 -0.3392
  153MOL    C7845982   0.553   7.483   4.988  0.5886 -0.3027  0.2600
  153MOL    C7945983   0.501   7.530   4.848 -0.4213  0.2546 -0.3495
  153MOL    O8045984   0.506   7.649   4.821 -0.2790  0.2088 -0.2536
  153MOL    O8145985   0.443   7.430   4.772 -0.1342 -0.0872  0.1657
  153MOL    C8245986   0.411   7.459   4.642 -0.3920 -0.1341  0.6425
  153MOL    C8345987   0.494   7.374   4.540 -0.0405  0.0529 -0.3131
  153MOL    H8445988   0.417   7.320   5.050 -1.1500  0.0133  0.9637
  153MOL    H8545989   0.350   7.478   5.085  1.0095  2.1444  0.1115
  153MOL    H8645990   0.593   7.574   5.032  1.8015  0.4119 -2.2455
  153MOL    H8745991   0.310   7.421   4.627 -1.3902  2.3990  0.7913
  153MOL    H8845992   0.410   7.566   4.624 -1.4842 -0.0806  0.9704
  153MOL    H8945993   0.462   7.384   4.437  2.7022 -0.2606 -1.2209
  153MOL    H9045994   0.480   7.269   4.567 -0.7775  0.1378 -0.3474
  153MOL    H9145995   0.600   7.397   4.539  0.2939 -1.4454 -1.3912
  153MOL    C9245996   0.676   7.389   4.961  0.1926  0.3106 -0.4747
  153MOL    C9345997   0.657   7.252   4.886  0.3556  0.8848  0.3361
  153MOL    C9445998   0.595   7.146   4.976 -0.1576 -0.1796 -0.4750
  153MOL    O9545999   0.615   7.140   5.096  0.4066 -0.3915 -0.5835
  153MOL    O9646000   0.519   7.064   4.910  0.0317 -0.2830  0.1758
  153MOL    C9746001   0.428   6.983   4.977  0.8188 -0.1393 -0.6923
  153MOL    C9846002   0.377   6.884   4.878 -0.2946  0.6282 -0.0054
  153MOL    H9946003   0.759   7.444   4.917  0.8865  0.5971  1.1639
  153MOL   H10046004   0.716   7.369   5.061 -1.3789 -1.2694 -0.1308
  153MOL   H10146005   0.589   7.259   4.801  0.5509 -1.2629 -0.0366
  153MOL   H10246006   0.472   6.926   5.059 -0.7848 -1.6954 -0.9045
  153MOL   H10346007   0.352   7.047   5.023  1.9518  0.5098  0.3071
  153MOL   H10446008   0.320   6.798   4.914  1.4520 -0.6241 -0.2107
  153MOL   H10546009   0.466   6.838   4.835 -0.3389  1.5228 -1.0655
  153MOL   H10646010   0.315   6.941   4.808 -0.4841 -0.4076 -0.6880
  153MOL   C10746011   0.793   7.208   4.827 -0.9293 -0.5360  0.5295
  153MOL   C10846012   0.822   7.066   4.763  0.0332  0.1237 -0.7452
  153MOL   C10946013   0.968   7.044   4.739 -0.3473  0.1495 -0.2560
  153MOL   O11046014   1.034   6.965   4.796  0.3406 -0.0109 -0.2564
  153MOL   O11146015   1.006   7.127   4.642 -0.2105 -0.3675 -0.7410
  153MOL   C11246016   1.135   7.102   4.588  0.8947  0.1371 -0.3024
  153MOL   C11346017   1.172   7.203   4.478 -0.0401 -0.5549 -0.7018
  153MOL   H11446018   0.830   7.285   4.759  0.3359  0.3737  2.2109
  153MOL   H11546019   0.848   7.202   4.921 -0.3103 -0.3872  0.1838
  153MOL   H11646020   0.781   6.996   4.837  0.8076 -0.3716 -0.7873
  153MOL   H11746021   1.213   7.101   4.664 -0.7773 -2.4356  1.4724
  153MOL   H11846022   1.137   7.002   4.544  1.8217 -0.0901  0.2447
  153MOL   H11946023   1.275   7.191   4.444  0.2640 -2.1430  0.7275
  153MOL   H12046024   1.175   7.302   4.525 -0.3740 -2.6742  4.0494
  153MOL   H12146025   1.101   7.198   4.395 -2.1109 -0.0380  0.9856
  153MOL   C12246026   0.743   7.065   4.635  0.3867  0.5300 -0.3045
  153MOL   C12346027   0.747   6.929   4.558  0.7183  0.2817 -0.4362
  153MOL   C12446028   0.730   6.937   4.405 -0.1668 -0.5590  0.4380
  153MOL   O12546029   0.643   6.874   4.343 -0.3440  0.1557 -0.3751
  153MOL   O12646030   0.820   7.016   4.347 -0.0384  0.3146 -0.2686
  153MOL   C12746031   0.824   7.014   4.203 -0.2101  0.4695 -0.4376
  153MOL   C12846032   0.964   7.067   4.164  0.0242 -0.5405 -0.2302
  153MOL   H12946033   0.641   7.097   4.654  0.8487  1.7327  0.1970
  153MOL   H13046034   0.779   7.143   4.567 -0.9123  1.0599 -0.3867
  153MOL   H13146035   0.847   6.886   4.569  0.0006 -0.8593  2.1181
  153MOL   H13246036   0.805   6.913   4.168  0.6974 -0.5865  2.0407
  153MOL   H13346037   0.744   7.071   4.155 -0.5325 -0.1236 -0.6107
  153MOL   H13446038   0.968   7.173   4.187 -0.8248 -0.3214 -1.0620
  153MOL   H13546039   0.989   7.054   4.059  1.3096  0.5575 -0.0707
  153MOL   H13646040   1.042   7.015   4.219  0.0752 -0.0043  0.2145
  153MOL   C13746041   0.648   6.823   4.627 -0.3979 -0.4372 -0.1067
  153MOL   C13846042   0.677   6.666   4.584  0.2034 -0.4588 -0.6351
  153MOL   C13946043   0.548   6.590   4.582  0.5807 -0.0965 -0.1956
  153MOL   O14046044   0.519   6.519   4.490 -0.1010  0.3647 -0.3295
  153MOL   O14146045   0.474   6.608   4.695  0.4314 -0.5436  0.7736
  153MOL   C14246046   0.351   6.528   4.716 -0.2071 -0.0553 -0.5039
  153MOL   C14346047   0.223   6.619   4.688  0.1299 -0.4698  0.3457
  153MOL   H14446048   0.653   6.842   4.734  0.6598 -2.0837  0.1634
  153MOL   H14546049   0.552   6.851   4.585 -1.2858 -0.3311  1.9509
  153MOL   H14646050   0.713   6.651   4.483  1.9921 -2.4391  0.2440
  153MOL   H14746051   0.346   6.442   4.649  0.7238  1.2168 -2.2389
  153MOL   H14846052   0.365   6.494   4.819  0.2193 -2.4781 -1.3294
  153MOL   H14946053   0.138   6.566   4.730  0.0062 -0.1139  0.5541
  153MOL   H15046054   0.199   6.615   4.582  0.9208 -0.2697  0.1538
  153MOL   H15146055   0.215   6.721   4.727 -0.8460 -0.1441 -0.6890
  153MOL   C15246056   0.776   6.590   4.671  0.4924  0.2722 -0.3312
  153MOL   C15346057   0.924   6.602   4.662 -0.4113  0.0513 -0.3591
  153MOL   C15446058   0.975   6.585   4.519  0.6411 -0.3348  0.1992
  153MOL   O15546059   0.908   6.523   4.443 -0.2686  0.1539  0.3048
  153MOL   O15646060   1.094   6.649   4.490  0.4932 -0.2427 -0.2252
  153MOL   C15746061   1.139   6.646   4.356 -0.2264  0.0872  0.1909
  153MOL   C15846062   1.253   6.756   4.356  0.3246 -0.2342  0.1080
  153MOL   H15946063   0.746   6.607   4.775  1.9392  0.3575  0.0836
  153MOL   H16046064   0.760   6.484   4.655 -1.0427  0.3517  0.5853
  153MOL   H16146065   0.949   6.704   4.692  0.8603 -0.0198 -1.1240
  153MOL   H16246066   1.165   6.545   4.327  1.1481  0.8661 -1.4062
  153MOL   H16346067   1.060   6.674   4.286 -0.5838  1.5120  1.1439
  153MOL   H16446068   1.353   6.724   4.385 -0.1050 -0.6587  1.1584
  153MOL   H16546069   1.233   6.847   4.412  0.5467  1.0709 -1.8811
  153MOL   H16646070   1.258   6.798   4.255  1.0624  2.6016  1.2678
  153MOL   C16746071   0.993   6.506   4.760 -0.4000  0.2924  0.1371
  153MOL   C16846072   1.142   6.544   4.787 -0.2813 -0.1607 -0.1845
  153MOL   C16946073   1.192   6.451   4.892  0.8915 -0.4548 -0.1294
  153MOL   O17046074   1.262   6.361   4.855  0.5235  0.0966  0.9521
  153MOL   O17146075   1.168   6.484   5.019  0.8806  0.3563  0.7437
  153MOL   C17246076   1.230   6.415   5.129 -0.1507  0.0995  0.1208
  153MOL   C17346077   1.269   6.519   5.232 -0.8132 -0.6092 -0.3138
  153MOL   H17446078   0.936   6.506   4.853 -0.3477  0.1666  0.1686
  153MOL   H17546079   0.987   6.408   4.712 -1.2631  0.2601  0.3124
  153MOL   H17646080   1.202   6.523   4.699 -0.4446  0.7594 -0.5200
  153MOL   H17746081   1.168   6.331   5.160  2.0670 -0.8353  2.2207
  153MOL   H17846082   1.325   6.365   5.107  1.1930  1.0460  3.4592
  153MOL   H17946083   1.354   6.580   5.202  1.1912 -2.6788  1.0205
  153MOL   H18046084   1.314   6.466   5.315 -0.2214 -0.6310 -0.6446
  153MOL   H18146085   1.181   6.574   5.266 -2.0412 -2.2092 -0.8591
  153MOL   C18246086   1.183   6.697   4.818  0.8313  0.7328  0.2776
  153MOL   C18346087   1.327   6.732   4.861  0.5869 -0.3650 -0.4205
  153MOL   C18446088   1.326   6.882   4.888 -0.9008 -0.1901 -0.0586
  153MOL   O18546089   1.373   6.959   4.811  0.1276 -0.0109 -0.8999
  153MOL   O18646090   1.269   6.915   5.005 -0.4031 -0.2543  0.1956
  153MOL   C18746091   1.280   7.047   5.055 -0.2801 -0.5670  0.2577
  153MOL   C18846092   1.404   7.069   5.143 -0.0963 -0.5985 -0.0168
  153MOL   H18946093   1.160   6.752   4.727  1.5170 -1.4290 -1.2597
  153MOL   H19046094   1.117   6.729   4.898  0.0165  3.0822 -1.3082
  153MOL   H19146095   1.349   6.688   4.959  1.8348  2.2861  0.5220
  153MOL   H19246096   1.265   7.122   4.977 -0.0228 -0.2773  0.4898
  153MOL   H19346097   1.195   7.059   5.122 -1.6253  0.5634 -1.5891
  153MOL   H19446098   1.492   7.033   5.091  1.4784  2.7828  0.2152
  153MOL   H19546099   1.396   7.031   5.245  1.3688 -0.8297  0.0118
  153MOL   H19646100   1.414   7.176   5.159 -1.4428 -0.5109  0.3133
  153MOL   C19746101   1.439   6.686   4.762 -0.3233 -0.0221  0.0125
  153MOL   C19846102   1.586   6.726   4.783 -0.3493  0.4206 -0.4315
  153MOL   C19946103   1.666   6.711   4.653 -0.4645  0.3819  0.1088
  153MOL   O20046104   1.620   6.680   4.549  0.5326 -0.0725 -0.5260
  153MOL   O20146105   1.788   6.760   4.671  0.3496 -0.4494 -0.5882
  153MOL   C20246106   1.874   6.785   4.561 -0.4596  0.1615  0.6888
  153MOL   C20346107   2.013   6.757   4.601  0.2171 -0.1715  0.4338
  153MOL   H20446108   1.443   6.578   4.750  1.7541  0.1160 -0.6989
  153MOL   H20546109   1.402   6.709   4.662  0.6708  0.7477 -0.1866
  153MOL   H20646110   1.604   6.830   4.811 -1.0500  1.1357 -2.5473
  153MOL   H20746111   1.842   6.728   4.474 -0.3026  0.9484  0.0994
  153MOL   H20846112   1.845   6.887   4.532 -1.8579  0.0946  1.8012
  153MOL   H20946113   2.030   6.651   4.585  1.4849  0.0848  0.0487
  153MOL   H21046114   2.018   6.788   4.705 -0.9785  2.1325 -0.1646
  153MOL   H21146115   2.095   6.801   4.545 -0.9722  2.1789  0.4831
  153MOL   C21246116   1.653   6.645   4.895  0.1005 -0.6159  0.4747
  153MOL   C21346117   1.626   6.672   5.045  0.3152 -0.0443  0.3094
  153MOL   C21446118   1.690   6.810   5.090 -0.1586 -0.4345 -0.8414
  153MOL   O21546119   1.732   6.889   5.003 -0.3380  0.2327 -0.4376
  153MOL   O21646120   1.683   6.833   5.224  0.4925  0.9695  1.0095
  153MOL   C21746121   1.726   6.967   5.261  0.0591  0.1538  0.1586
  153MOL   C21846122   1.698   6.983   5.406 -0.5639  0.7748  0.1485
  153MOL   H21946123   1.640   6.539   4.870  2.3653  0.0712 -4.3315
  153MOL   H22046124   1.762   6.649   4.891  0.1625 -1.2931  1.5032
  153MOL   H22146125   1.521   6.695   5.062  0.4868  1.1228 -0.1577
  153MOL   H22246126   1.833   6.946   5.255 -0.2004 -1.1791  0.0197
  153MOL   H22346127   1.696   7.046   5.192  0.8489  0.7239  0.4577
  153MOL   H22446128   1.697   7.086   5.444 -0.9860  1.0870 -0.7022
  153MOL   H22546129   1.771   6.925   5.462  0.2600  1.2200 -0.4580
  153MOL   H22646130   1.601   6.943   5.435  0.8979 -0.8835  2.9418
  153MOL   C22746131   1.666   6.557   5.140  0.0477  0.2289  0.4561
  153MOL   C22846132   1.817   6.513   5.146 -0.2624 -1.1084 -0.1230
  153MOL   C22946133   1.855   6.412   5.043  0.1222  0.0453  0.2618
  153MOL   O23046134   1.954   6.432   4.971 -0.1287 -0.1791 -0.2925
  153MOL   O23146135   1.770   6.305   5.029  0.1192 -0.0100 -0.4122
  153MOL   C23246136   1.802   6.203   4.940 -0.1495 -0.1034 -0.7550
  153MOL   C23346137   1.757   6.232   4.799  0.4032 -0.2095  0.3095
  153MOL   H23446138   1.629   6.580   5.240  3.2131  0.2309  1.6842
  153MOL   H23546139   1.604   6.468   5.127 -1.1616  1.0532  0.4618
  153MOL   H23646140   1.881   6.602   5.134 -0.1968 -0.7190  2.8987
  153MOL   H23746141   1.909   6.182   4.938 -0.0254  0.5231 -0.6715
  153MOL   H23846142   1.748   6.112   4.969  3.3814 -1.6424  1.3506
  153MOL   H23946143   1.648   6.238   4.805  0.2542  1.2845 -2.6855
  153MOL   H24046144   1.782   6.154   4.727 -0.6970 -1.0109  0.7855
  153MOL   H24146145   1.798   6.327   4.766  0.0423 -0.1520  0.0139
  153MOL   C24246146   1.836   6.445   5.280 -0.4744 -0.5470  0.3710
  153MOL   C24346147   1.842   6.550   5.396 -0.2211 -0.0851  0.4738
  153MOL   C24446148   1.967   6.630   5.400 -0.4211  0.4060 -0.2982
  153MOL   O24546149   2.068   6.601   5.336 -0.1382 -0.4585 -0.2091
  153MOL   O24646150   1.947   6.748   5.461  0.4893  0.0635  0.2118
  153MOL   C24746151   2.044   6.849   5.462 -0.6772  0.0871 -0.3019
  153MOL   C24846152   2.152   6.820   5.569  0.4210 -0.3008 -0.1810
  153MOL   H24946153   1.752   6.376   5.292 -1.5668  1.0542  2.4590
  153MOL   H25046154   1.930   6.390   5.284 -1.6839 -2.6434  0.2870
  153MOL   H25146155   1.776   6.632   5.367  1.1708  0.3204 -1.6452
  153MOL   H25246156   2.090   6.866   5.364 -1.9223  2.7856 -0.4505
  153MOL   H25346157   1.994   6.945   5.475  0.6092  0.8323 -0.7474
  153MOL   H25446158   2.106   6.805   5.666 -1.5455 -0.4800 -1.1140
  153MOL   H25546159   2.221   6.903   5.583 -0.8733  1.0073 -1.3250
  153MOL   H25646160   2.216   6.736   5.545  0.9511  0.2112 -0.5774
  153MOL   C25746161   1.813   6.483   5.531 -0.2937  0.5104 -0.0644
  153MOL   C25846162   1.669   6.439   5.548 -0.6721 -0.0359 -0.5350
  153MOL   C25946163   1.581   6.556   5.609  0.0067 -0.7505  0.5802
  153MOL   O26046164   1.583   6.570   5.733  0.1110  0.3752  0.4520
  153MOL   O26146165   1.511   6.627   5.520  0.3548  0.0566  0.3705
  153MOL   C26246166   1.437   6.732   5.574 -0.0508 -0.2151 -0.1521
  153MOL   C26346167   1.341   6.789   5.467  0.3050 -0.0981  0.3749
  153MOL   H26446168   1.877   6.395   5.524 -0.8570 -0.0642  1.5810
  153MOL   H26546169   1.833   6.539   5.622  0.9505 -1.6238  1.0170
  153MOL   H26646170   1.623   6.415   5.452  0.0140  0.5309 -1.0020
  153MOL   H26746171   1.381   6.705   5.664  2.5039 -0.4627  1.3968
  153MOL   H26846172   1.509   6.807   5.606  2.3204 -0.8658 -3.7035
  153MOL   H26946173   1.266   6.717   5.434 -0.4408  1.6317 -1.8508
  153MOL   H27046174   1.410   6.819   5.387 -2.8693  0.5095 -2.2647
  153MOL   H27146175   1.284   6.874   5.504  0.5190 -0.3278  1.2230
  153MOL   C27246176   1.660   6.322   5.644 -0.0123 -0.5996 -0.2642
  153MOL   C27346177   1.662   6.187   5.564  0.2010  0.9711 -0.1712
  153MOL   C27446178   1.545   6.184   5.465  1.1386  0.8481 -0.2576
  153MOL   O27546179   1.570   6.186   5.340  0.0682  0.3983  0.1180
  153MOL   O27646180   1.422   6.201   5.518  0.2635  0.0859 -0.1204
  153MOL   C27746181   1.303   6.200   5.437  0.1519 -0.6400 -0.2179
  153MOL   C27846182   1.256   6.052   5.432  0.2407 -0.3062  0.1739
  153MOL   H27946183   1.747   6.330   5.709 -0.0772  1.3380 -0.3787
  153MOL   H28046184   1.572   6.334   5.708  0.7421  1.5896  0.3949
  153MOL   H28146185   1.756   6.194   5.509 -0.0851 -0.1285 -0.8310
  153MOL   H28246186   1.228   6.267   5.479  0.0907 -2.6184  3.0585
  153MOL   H28346187   1.323   6.218   5.332 -0.4332 -0.8360 -0.3639
  153MOL   H28446188   1.334   5.982   5.402 -0.4583 -0.9092 -0.2405
  153MOL   H28546189   1.172   6.040   5.364  1.3272  1.4233 -1.5306
  153MOL   H28646190   1.218   6.039   5.533  1.0032  1.8404  0.7587
  153MOL   C28746191   1.684   6.064   5.654 -0.5813  0.2837  0.1921
  153MOL   C28846192   1.710   5.937   5.571  0.7041 -0.2020  0.1443
  153MOL   C28946193   1.640   5.808   5.617 -1.0492 -0.2944 -0.7651
  153MOL   O29046194   1.707   5.717   5.659 -0.2284 -0.2634  0.4837
  153MOL   O29146195   1.510   5.819   5.609 -0.6367  0.4235 -0.5670
  153MOL   C29246196   1.423   5.718   5.666  0.2784 -0.7090  0.7316
  153MOL   C29346197   1.275   5.754   5.682 -0.5076 -0.2995  0.3610
  153MOL   H29446198   1.761   6.061   5.732 -2.9111  0.7220  2.5822
  153MOL   H29546199   1.597   6.053   5.718 -0.6615  0.3047  0.0858
  153MOL   H29646200   1.662   5.954   5.475  0.9383  0.6865  0.1815
  153MOL   H29746201   1.429   5.628   5.605  2.2128 -0.6055  0.7238
  153MOL   H29846202   1.461   5.690   5.764  1.0245 -1.1944  0.3072
  153MOL   H29946203   1.273   5.842   5.746  1.2401  0.4804 -0.6309
  153MOL   H30046204   1.213   5.679   5.731 -1.3031  0.0028 -0.1809
  153MOL   H30146205   1.228   5.784   5.588 -0.0807 -3.1168 -0.8177
  153MOL   H30246206   1.815   5.917   5.549  0.7042 -0.3532  0.2821
  154MOL     C146207   0.537   3.265   4.617 -0.6661 -1.0003 -0.3841
  154MOL     C246208   0.587   3.119   4.601  0.2370 -0.6978  0.2069
  154MOL     C346209   0.553   3.053   4.732  0.8004  0.7265  0.3947
  154MOL     O446210   0.457   2.975   4.742 -0.2411 -0.3802 -0.3498
  154MOL     O546211   0.621   3.103   4.833 -0.4388 -0.6694 -0.0908
  154MOL     C646212   0.584   3.070   4.967 -0.5982 -0.3586 -0.5524
  154MOL     C746213   0.664   3.160   5.066 -0.1178  0.0598  0.5605
  154MOL     H846214   0.591   3.329   4.687  0.9435 -0.6906 -1.8994
  154MOL     H946215   0.433   3.270   4.651 -0.5587 -0.1081 -0.1632
  154MOL    H1046216   0.523   3.075   4.525  1.4569 -0.1716 -1.1447
  154MOL    H1146217   0.478   3.086   4.986 -0.9126 -2.0766 -0.7624
  154MOL    H1246218   0.615   2.966   4.979 -1.2384 -0.6933 -1.7328
  154MOL    H1346219   0.732   3.105   5.131  1.1239 -1.4614 -1.9588
  154MOL    H1446220   0.607   3.219   5.139  0.4897  2.9030 -1.1704
  154MOL    H1546221   0.726   3.232   5.013 -0.7106 -0.4001 -0.7682
  154MOL    H1646222   0.549   3.312   4.520 -1.7773  0.1218  0.0026
  154MOL    C1746223   0.736   3.103   4.554 -0.6220 -0.4079 -0.2909
  154MOL    C1846224   0.750   3.093   4.402  0.5752  0.4150  0.3526
  154MOL    C1946225   0.713   2.953   4.344  0.1664 -0.6869  0.1450
  154MOL    O2046226   0.617   2.935   4.267 -0.4722  0.0394  0.2053
  154MOL    O2146227   0.805   2.860   4.364 -0.1609  0.1081  0.3517
  154MOL    C2246228   0.823   2.749   4.279  0.5646 -0.8149 -0.1925
  154MOL    C2346229   0.915   2.794   4.168  0.0296  0.4895 -0.4492
  154MOL    H2446230   0.801   3.180   4.596 -0.9782  0.6334 -1.5763
  154MOL    H2546231   0.775   3.009   4.592 -0.4705  0.5360  1.9697
  154MOL    H2646232   0.673   3.154   4.354 -1.0108 -1.3294  0.6068
  154MOL    H2746233   0.866   2.669   4.340 -0.2921 -0.6198  0.6817
  154MOL    H2846234   0.728   2.712   4.242 -0.0073 -2.0969  2.4051
  154MOL    H2946235   0.885   2.886   4.119  0.5365  0.3533 -1.0301
  154MOL    H3046236   0.925   2.722   4.086  0.4183  1.1240 -0.9615
  154MOL    H3146237   1.014   2.811   4.211 -1.2626  0.4374  2.6608
  154MOL    C3246238   0.887   3.139   4.343 -0.3600  0.2815 -0.3874
  154MOL    C3346239   0.907   3.290   4.347  0.4288  0.0457 -0.0401
  154MOL    C3446240   0.796   3.375   4.283 -0.0886  0.8051 -0.5661
  154MOL    O3546241   0.713   3.343   4.198  0.1314 -0.4942 -0.0554
  154MOL    O3646242   0.812   3.501   4.335  0.3396 -0.0737  0.0300
  154MOL    C3746243   0.722   3.602   4.310  0.2654  0.0871 -0.4504
  154MOL    C3846244   0.601   3.598   4.397  0.2400  0.8932  0.5245
  154MOL    H3946245   0.965   3.093   4.404 -1.9452 -0.6578  0.9867
  154MOL    H4046246   0.901   3.102   4.242  1.5117  0.2201 -0.1191
  154MOL    H4146247   0.919   3.321   4.451  2.4002  2.2049 -0.8613
  154MOL    H4246248   0.776   3.696   4.321 -0.0587  0.3284 -0.9004
  154MOL    H4346249   0.701   3.596   4.203 -0.9803 -0.1632 -0.1961
  154MOL    H4446250   0.548   3.504   4.387  0.5537  0.5867  1.6284
  154MOL    H4546251   0.528   3.677   4.376 -0.6789 -0.1199 -0.1467
  154MOL    H4646252   0.632   3.616   4.500  2.2256  0.2238  0.0517
  154MOL    C4746253   1.045   3.325   4.279 -0.4525  0.6948 -0.0395
  154MOL    C4846254   1.158   3.309   4.387  0.6804  0.5486  0.2387
  154MOL    C4946255   1.143   3.424   4.491 -0.0443  0.3457 -0.0414
  154MOL    O5046256   1.099   3.396   4.602  0.2613 -0.1483 -0.0837
  154MOL    O5146257   1.163   3.553   4.447 -0.0325  0.4201 -0.8244
  154MOL    C5246258   1.133   3.664   4.534  0.1653 -0.1010 -0.9346
  154MOL    C5346259   1.259   3.707   4.611  0.4427  0.1489 -0.8707
  154MOL    H5446260   1.066   3.258   4.196 -1.0477 -3.5337  3.0440
  154MOL    H5546261   1.039   3.421   4.228 -0.9771  0.5898 -0.1817
  154MOL    H5646262   1.147   3.208   4.427 -0.7771  0.3666 -0.5914
  154MOL    H5746263   1.101   3.753   4.479  0.6277  1.5647  1.4322
  154MOL    H5846264   1.057   3.640   4.608  1.0807 -2.5577 -0.7364
  154MOL    H5946265   1.335   3.735   4.539  0.5320  0.3730 -0.6898
  154MOL    H6046266   1.300   3.635   4.682 -2.0337 -0.1180  0.3571
  154MOL    H6146267   1.236   3.791   4.676  0.8603 -0.2147 -0.2352
  154MOL    C6246268   1.298   3.312   4.330  0.3394  0.5708 -0.1690
  154MOL    C6346269   1.325   3.199   4.240 -0.6850  0.5673  0.3270
  154MOL    C6446270   1.306   3.061   4.306  0.2699 -1.2760  0.4617
  154MOL    O6546271   1.254   2.975   4.236 -0.0215 -0.3981 -0.7189
  154MOL    O6646272   1.352   3.051   4.428  0.3730 -0.4875 -0.2449
  154MOL    C6746273   1.318   2.935   4.504 -0.7003 -0.5769 -0.1381
  154MOL    C6846274   1.189   2.928   4.568  0.4392  0.0611 -0.4638
  154MOL    H6946275   1.327   3.411   4.293 -0.1946  0.9912  0.5138
  154MOL    H7046276   1.370   3.309   4.411  1.1093 -1.7429 -0.9180
  154MOL    H7146277   1.246   3.199   4.164 -1.2780  0.7315  0.9369
  154MOL    H7246278   1.327   2.845   4.443 -1.0948 -1.0700  0.5292
  154MOL    H7346279   1.395   2.926   4.581 -1.1533  1.4076  0.5753
  154MOL    H7446280   1.172   2.838   4.627 -1.5346  1.2653  0.8575
  154MOL    H7546281   1.123   2.927   4.482  0.8087 -1.2801 -0.7520
  154MOL    H7646282   1.171   3.017   4.628  1.2701 -1.0861  1.5498
  154MOL    C7746283   1.467   3.228   4.168  0.5268  0.3607 -0.7647
  154MOL    C7846284   1.533   3.114   4.092 -0.8372 -0.1163 -0.0791
  154MOL    C7946285   1.674   3.162   4.050 -0.6613 -0.3064 -0.1475
  154MOL    O8046286   1.700   3.278   4.053 -0.2960 -0.4738  0.3722
  154MOL    O8146287   1.758   3.063   4.004  0.4173 -0.1830 -0.2911
  154MOL    C8246288   1.897   3.086   3.975  0.8405  0.0419  0.8701
  154MOL    C8346289   1.946   2.986   3.867  0.8006 -0.0625 -0.1158
  154MOL    H8446290   1.447   3.320   4.112  2.7242  2.1501  1.2879
  154MOL    H8546291   1.542   3.262   4.239 -0.8721  1.2930  0.2902
  154MOL    H8646292   1.532   3.030   4.162 -2.3584 -0.6255 -0.6899
  154MOL    H8746293   1.927   3.186   3.946  3.1864 -0.7654  0.3990
  154MOL    H8846294   1.952   3.072   4.069  1.0406 -0.0427  0.7405
  154MOL    H8946295   1.906   3.015   3.770 -1.6991  0.0590  0.9109
  154MOL    H9046296   1.898   2.890   3.884  0.3726  0.2331  0.3599
  154MOL    H9146297   2.051   2.957   3.859  0.4289 -0.9993 -1.8750
  154MOL    C9246298   1.455   3.074   3.967  0.2528  0.4316 -0.6534
  154MOL    C9346299   1.513   2.974   3.860 -0.1612 -0.3384 -0.6701
  154MOL    C9446300   1.568   3.035   3.734  0.3429 -0.0915 -0.0027
  154MOL    O9546301   1.524   3.142   3.689 -1.0144  0.1831  0.2357
  154MOL    O9646302   1.648   2.952   3.665  0.0197  0.4174 -1.0009
  154MOL    C9746303   1.722   2.985   3.549  0.3199  0.4591 -0.3972
  154MOL    C9846304   1.789   2.853   3.499  0.0034  0.1155 -0.2645
  154MOL    H9946305   1.371   3.026   4.016  0.6393  1.8797  1.4779
  154MOL   H10046306   1.435   3.171   3.921 -0.1308  0.2365 -0.8956
  154MOL   H10146307   1.600   2.924   3.904  0.8570 -0.5657 -2.8787
  154MOL   H10246308   1.661   3.029   3.470  1.3719  2.2732 -0.2192
  154MOL   H10346309   1.811   3.045   3.567  1.6392 -1.2374 -1.0936
  154MOL   H10446310   1.840   2.852   3.403  0.6299 -0.1250  0.0653
  154MOL   H10546311   1.723   2.767   3.503  0.5394 -0.3066 -0.4004
  154MOL   H10646312   1.865   2.820   3.571  0.4726 -0.2108 -0.9078
  154MOL   C10746313   1.416   2.858   3.843  0.3494  0.1813 -0.3175
  154MOL   C10846314   1.423   2.762   3.956  0.0791  0.0106 -0.2234
  154MOL   C10946315   1.556   2.693   3.963  0.6011 -0.0927 -0.1033
  154MOL   O11046316   1.621   2.667   3.863 -0.3707 -0.2333 -0.1614
  154MOL   O11146317   1.598   2.685   4.098  0.4962 -0.2945  0.6271
  154MOL   C11246318   1.721   2.626   4.128 -0.0715  0.2597  0.6985
  154MOL   C11346319   1.714   2.472   4.154 -0.5135  0.1840  0.0104
  154MOL   H11446320   1.317   2.905   3.837  0.1933  0.1875  1.9595
  154MOL   H11546321   1.431   2.803   3.750  0.4303  2.2050 -1.5326
  154MOL   H11646322   1.405   2.816   4.049 -0.3729  0.9603 -0.8479
  154MOL   H11746323   1.796   2.644   4.051  0.7715  0.3473  1.5327
  154MOL   H11846324   1.742   2.655   4.231  1.3468 -0.5428  0.6442
  154MOL   H11946325   1.805   2.433   4.200 -0.6063 -0.3996 -0.3064
  154MOL   H12046326   1.700   2.413   4.064  0.0872 -3.0301  1.9526
  154MOL   H12146327   1.627   2.438   4.210 -1.1935  1.2061 -0.4127
  154MOL   C12246328   1.317   2.652   3.943 -0.2137 -0.3215  0.3754
  154MOL   C12346329   1.307   2.550   4.067  0.6950  0.2120  1.5904
  154MOL   C12446330   1.196   2.454   4.032  0.1151  0.9905 -0.4338
  154MOL   O12546331   1.217   2.333   4.001  0.4526 -0.3331  0.0139
  154MOL   O12646332   1.077   2.518   4.020  0.1500 -0.2836  0.2867
  154MOL   C12746333   0.964   2.450   3.982 -0.0397  0.3556  0.3763
  154MOL   C12846334   0.884   2.388   4.100 -0.0890  0.1105  0.4319
  154MOL   H12946335   1.224   2.708   3.954 -0.4363 -0.8408  1.2127
  154MOL   H13046336   1.315   2.597   3.849 -0.3031 -1.0362  0.7920
  154MOL   H13146337   1.403   2.500   4.079 -0.4758 -3.1168 -1.7442
  154MOL   H13246338   0.896   2.507   3.918 -0.6781 -2.6382 -1.7769
  154MOL   H13346339   0.993   2.356   3.933  1.7109 -0.3466  2.6698
  154MOL   H13446340   0.785   2.345   4.085  0.4013 -0.5384 -1.0749
  154MOL   H13546341   0.856   2.457   4.179  0.4346  0.1134  0.6178
  154MOL   H13646342   0.953   2.317   4.147 -0.7593  0.1780  1.5207
  154MOL   C13746343   1.276   2.627   4.200 -0.5910 -0.1330 -1.4535
  154MOL   C13846344   1.301   2.529   4.318  0.1927  0.2975  0.5999
  154MOL   C13946345   1.174   2.507   4.402 -0.8355 -0.4458  0.9288
  154MOL   O14046346   1.111   2.597   4.453 -0.0084  0.1127 -0.4569
  154MOL   O14146347   1.146   2.376   4.415 -0.0093 -0.4270  0.4143
  154MOL   C14246348   1.028   2.346   4.484 -0.1758 -1.0766 -0.9236
  154MOL   C14346349   0.969   2.206   4.444  0.4667  0.0934  0.0799
  154MOL   H14446350   1.338   2.715   4.219 -0.1888 -0.5357 -0.8906
  154MOL   H14546351   1.179   2.677   4.201  0.2405  1.5344  0.4737
  154MOL   H14646352   1.329   2.428   4.288 -0.0518  0.7419 -1.1627
  154MOL   H14746353   1.050   2.347   4.591  0.7529 -3.1894 -1.0685
  154MOL   H14846354   0.953   2.420   4.458  1.1819  0.4840 -0.4433
  154MOL   H14946355   0.887   2.179   4.511 -0.5041 -3.0580 -2.2385
  154MOL   H15046356   1.054   2.138   4.444  0.5014  0.1293 -0.4092
  154MOL   H15146357   0.921   2.199   4.346 -0.5976  0.1322  0.5922
  154MOL   C15246358   1.417   2.577   4.413  1.0856 -0.2109  0.2267
  154MOL   C15346359   1.478   2.459   4.499  0.3340 -0.8757 -0.4465
  154MOL   C15446360   1.401   2.427   4.630  0.0162  0.0018  0.5120
  154MOL   O15546361   1.375   2.309   4.660  0.0920 -0.2025 -0.4585
  154MOL   O15646362   1.375   2.541   4.703  0.4311 -0.3148 -0.6956
  154MOL   C15746363   1.258   2.542   4.785  0.0326  0.3329 -0.1481
  154MOL   C15846364   1.293   2.645   4.886 -0.7346 -0.0204 -0.3622
  154MOL   H15946365   1.497   2.624   4.356  0.3380  1.5722  0.6063
  154MOL   H16046366   1.390   2.659   4.479 -0.4989 -2.2939  2.2223
  154MOL   H16146367   1.467   2.365   4.445 -0.5188 -2.7658  2.8783
  154MOL   H16246368   1.166   2.566   4.731 -0.4891  3.1225  1.8613
  154MOL   H16346369   1.242   2.442   4.824 -1.6586 -0.4111 -2.5718
  154MOL   H16446370   1.204   2.668   4.945 -1.0062 -0.4286 -0.6082
  154MOL   H16546371   1.336   2.733   4.839 -0.4295 -0.8863 -1.7333
  154MOL   H16646372   1.367   2.602   4.954 -1.6926 -0.0843  0.6635
  154MOL   C16746373   1.632   2.467   4.522  0.2099  0.4958 -0.1998
  154MOL   C16846374   1.677   2.570   4.625 -0.0465  0.2722  0.0293
  154MOL   C16946375   1.641   2.718   4.586 -0.6323 -0.1726 -0.2859
  154MOL   O17046376   1.548   2.772   4.648 -0.5089 -0.4093 -0.1765
  154MOL   O17146377   1.713   2.760   4.481 -0.1114  0.1456 -0.0725
  154MOL   C17246378   1.674   2.889   4.429 -0.6350 -0.1425 -0.1260
  154MOL   C17346379   1.776   2.936   4.320  0.2006  0.2228 -0.0347
  154MOL   H17446380   1.678   2.368   4.525  2.9156  1.7102  0.3683
  154MOL   H17546381   1.671   2.505   4.428 -0.3801 -1.2580 -1.1691
  154MOL   H17646382   1.619   2.542   4.714 -2.0145 -0.9998 -1.6208
  154MOL   H17746383   1.583   2.877   4.370 -0.8983  3.0531 -0.5045
  154MOL   H17846384   1.652   2.975   4.493  2.1004  0.7138 -0.2609
  154MOL   H17946385   1.741   3.031   4.279 -3.3858 -0.8949  0.3224
  154MOL   H18046386   1.792   2.863   4.240  1.4791  0.0945  0.3309
  154MOL   H18146387   1.871   2.962   4.368  1.2589 -1.9516 -0.8873
  154MOL   C18246388   1.828   2.573   4.650 -0.2081  0.1135  0.0961
  154MOL   C18346389   1.895   2.473   4.746  0.8645 -0.4040 -0.0016
  154MOL   C18446390   1.866   2.492   4.896 -0.3987  0.3254 -1.1951
  154MOL   O18546391   1.859   2.395   4.977 -0.1359 -0.6773  0.3336
  154MOL   O18646392   1.863   2.622   4.939 -0.0635 -0.1360  0.1331
  154MOL   C18746393   1.842   2.660   5.076  0.8653 -0.7503 -0.2948
  154MOL   C18846394   1.837   2.815   5.076  0.8373 -0.1941 -0.2555
  154MOL   H18946395   1.882   2.566   4.555 -1.0234 -3.5999 -0.1783
  154MOL   H19046396   1.855   2.671   4.688 -0.8479  0.2035  0.3205
  154MOL   H19146397   1.849   2.377   4.724  1.6583 -0.2836 -2.2830
  154MOL   H19246398   1.741   2.630   5.103  0.4100  2.6022  1.9792
  154MOL   H19346399   1.911   2.628   5.154 -0.1696  2.6222  2.0932
  154MOL   H19446400   1.937   2.857   5.079  0.7976 -0.1030 -0.2311
  154MOL   H19546401   1.782   2.847   5.164  0.9300  1.0025 -0.6329
  154MOL   H19646402   1.791   2.852   4.984  3.2244 -0.0731 -1.4458
  154MOL   C19746403   2.045   2.459   4.715 -0.1713  0.1855 -0.5019
  154MOL   C19846404   2.122   2.341   4.766 -0.0128  0.3863 -0.0767
  154MOL   C19946405   2.059   2.210   4.735 -0.6384  0.0269  0.4825
  154MOL   O20046406   2.040   2.129   4.822  0.8687  0.1211  0.1530
  154MOL   O20146407   2.042   2.197   4.601 -0.2415  0.1573 -0.3817
  154MOL   C20246408   2.015   2.075   4.529 -0.3384  0.1267 -0.5495
  154MOL   C20346409   1.951   2.113   4.394  0.1487  0.0096 -0.4648
  154MOL   H20446410   2.064   2.444   4.609 -4.6160 -1.0726 -1.2545
  154MOL   H20546411   2.108   2.545   4.735  0.6619 -0.0727 -2.0297
  154MOL   H20646412   2.213   2.331   4.708  0.4830  1.0858  0.5586
  154MOL   H20746413   2.110   2.021   4.536 -0.2552  0.2461 -0.7437
  154MOL   H20846414   1.935   2.018   4.575  1.2516 -0.5586  1.4253
  154MOL   H20946415   1.896   2.033   4.345  0.7633 -1.0797  0.5796
  154MOL   H21046416   2.024   2.151   4.322 -1.4653 -0.7944 -2.5785
  154MOL   H21146417   1.885   2.197   4.417  1.2114  0.6328  0.3900
  154MOL   C21246418   2.175   2.358   4.908  0.2902 -0.0401  0.0233
  154MOL   C21346419   2.275   2.482   4.934 -0.3424  0.3895 -0.1850
  154MOL   C21446420   2.399   2.493   4.850 -0.6938 -0.2096  0.0897
  154MOL   O21546421   2.426   2.608   4.808  0.2195  0.4968  0.4492
  154MOL   O21646422   2.476   2.381   4.836 -0.6440 -0.3132 -0.6208
  154MOL   C21746423   2.597   2.387   4.773 -0.6390  0.4987 -0.3808
  154MOL   C21846424   2.710   2.387   4.869  0.6711 -0.0101  0.1338
  154MOL   H21946425   2.090   2.350   4.976  0.1552  3.8148  0.4198
  154MOL   H22046426   2.236   2.269   4.925  1.2880  0.9417  1.8645
  154MOL   H22146427   2.220   2.574   4.911 -0.3332  0.4713  0.1183
  154MOL   H22246428   2.598   2.286   4.731  1.8643 -0.1347  1.0801
  154MOL   H22346429   2.601   2.472   4.705 -1.7786 -0.0029 -1.0966
  154MOL   H22446430   2.807   2.372   4.821  0.3001 -1.1044 -0.2896
  154MOL   H22546431   2.712   2.294   4.927  0.2160  0.4948  0.9666
  154MOL   H22646432   2.710   2.468   4.942  0.9226 -1.1364  1.4076
  154MOL   C22746433   2.307   2.497   5.081  0.5824  0.2119 -0.2217
  154MOL   C22846434   2.231   2.617   5.150 -0.0350 -0.5517  0.3404
  154MOL   C22946435   2.289   2.759   5.107  0.7251  0.5904 -0.4858
  154MOL   O23046436   2.209   2.854   5.087 -0.6390  0.1800  0.2518
  154MOL   O23146437   2.419   2.766   5.098 -0.4869  0.3109  0.3245
  154MOL   C23246438   2.488   2.886   5.100  0.0307  0.6382 -0.5483
  154MOL   C23346439   2.524   2.926   4.958  0.1511 -0.4141 -0.4667
  154MOL   H23446440   2.272   2.410   5.136  1.1164  0.1018 -0.0484
  154MOL   H23546441   2.413   2.502   5.109  0.6396  0.1381 -0.4278
  154MOL   H23646442   2.130   2.617   5.111  0.2901 -2.8872 -0.6036
  154MOL   H23746443   2.444   2.968   5.157  0.2466 -0.5078  1.2832
  154MOL   H23846444   2.580   2.860   5.152  0.0201  0.7405 -0.4797
  154MOL   H23946445   2.553   2.840   4.897  2.4058  1.6092 -2.3653
  154MOL   H24046446   2.611   2.991   4.947 -0.8804  1.4810  2.2177
  154MOL   H24146447   2.442   2.967   4.900  0.6309  1.1792 -0.0301
  154MOL   C24246448   2.239   2.616   5.298  0.6617 -0.3155 -0.6107
  154MOL   C24346449   2.152   2.506   5.371  0.0645 -0.4967 -0.1503
  154MOL   C24446450   2.006   2.558   5.400 -0.9028 -0.0868 -0.3107
  154MOL   O24546451   1.968   2.671   5.368  0.6143 -1.1321 -0.4122
  154MOL   O24646452   1.934   2.467   5.473  0.1907 -0.1340 -0.0635
  154MOL   C24746453   1.809   2.500   5.531 -0.2441 -0.4625  0.7028
  154MOL   C24846454   1.700   2.483   5.424  0.5881  0.6593 -0.0520
  154MOL   H24946455   2.342   2.605   5.334  0.4074 -0.9152 -0.0438
  154MOL   H25046456   2.209   2.712   5.341 -1.1616 -0.5450 -1.3651
  154MOL   H25146457   2.153   2.423   5.301  0.8030  0.6730 -1.5605
  154MOL   H25246458   1.797   2.433   5.617 -1.2908 -0.4696  0.5552
  154MOL   H25346459   1.811   2.599   5.576 -1.0602  0.1069 -0.5010
  154MOL   H25446460   1.607   2.447   5.469 -0.6080  0.2537 -2.7591
  154MOL   H25546461   1.726   2.413   5.345 -0.9976  1.4397 -1.2942
  154MOL   H25646462   1.684   2.577   5.372  1.8203  1.6348  1.2936
  154MOL   C25746463   2.224   2.441   5.485  0.3812  0.5549 -0.0878
  154MOL   C25846464   2.209   2.492   5.632  0.0557  0.2670  0.4662
  154MOL   C25946465   2.284   2.628   5.634 -0.1422  0.4955  0.1056
  154MOL   O26046466   2.408   2.629   5.628  0.0815 -0.3378 -0.9301
  154MOL   O26146467   2.206   2.737   5.632  0.5202 -0.0279 -0.7270
  154MOL   C26246468   2.272   2.860   5.629  0.5999  0.1954 -0.0138
  154MOL   C26346469   2.169   2.954   5.568  0.2451  0.0332  0.1758
  154MOL   H26446470   2.164   2.350   5.490  0.9609  0.1925  0.1906
  154MOL   H26546471   2.324   2.404   5.464  0.3701 -0.7635  2.0928
  154MOL   H26646472   2.102   2.506   5.651  0.0144  0.8158 -0.1446
  154MOL   H26746473   2.288   2.880   5.735 -1.5761  0.4712  0.2834
  154MOL   H26846474   2.366   2.847   5.574  1.5142  0.6705  1.3891
  154MOL   H26946475   2.185   3.062   5.567  1.6531 -0.1494  1.4581
  154MOL   H27046476   2.079   2.937   5.627 -0.4884 -2.4126 -1.5831
  154MOL   H27146477   2.155   2.946   5.460 -0.6193 -0.7863  0.3435
  154MOL   C27246478   2.267   2.385   5.732  0.9607  0.0353 -0.5494
  154MOL   C27346479   2.222   2.385   5.883  0.2032 -0.2456  0.1321
  154MOL   C27446480   2.084   2.326   5.907 -0.9387  0.4960 -0.1846
  154MOL   O27546481   2.000   2.378   5.980 -0.0629  0.1863 -0.2426
  154MOL   O27646482   2.081   2.207   5.840 -0.4022  0.1400 -0.0184
  154MOL   C27746483   1.961   2.128   5.863 -0.3619 -0.4851  0.5038
  154MOL   C27846484   1.834   2.178   5.791  0.2143  0.4757  0.0442
  154MOL   H27946485   2.246   2.289   5.685 -0.0049  0.7836 -1.6849
  154MOL   H28046486   2.375   2.378   5.732  0.9240 -0.7411  1.1274
  154MOL   H28146487   2.289   2.313   5.931  0.3895 -1.4413 -1.8587
  154MOL   H28246488   1.979   2.026   5.829 -1.7740 -1.0355  1.3627
  154MOL   H28346489   1.934   2.115   5.968 -2.5247 -0.4351 -0.0185
  154MOL   H28446490   1.807   2.279   5.822 -1.4246  1.2117 -3.5731
  154MOL   H28546491   1.747   2.124   5.828  0.1203 -0.9724 -2.2185
  154MOL   H28646492   1.834   2.166   5.683  2.2659 -2.3613  0.3027
  154MOL   C28746493   2.236   2.525   5.950  0.1899 -0.3313 -0.1270
  154MOL   C28846494   2.233   2.534   6.102 -0.0573  0.0649 -0.5079
  154MOL   C28946495   2.319   2.430   6.173  0.0575 -0.1907 -0.3613
  154MOL   O29046496   2.270   2.325   6.219 -0.1661 -0.5083 -0.0773
  154MOL   O29146497   2.451   2.471   6.182  0.0688  0.0649 -1.1071
  154MOL   C29246498   2.555   2.385   6.226 -0.4798  0.5995 -0.0704
  154MOL   C29346499   2.676   2.370   6.131  0.0793  0.0189 -0.0871
  154MOL   H29446500   2.328   2.573   5.918 -0.5531 -0.7511 -3.1341
  154MOL   H29546501   2.161   2.587   5.899 -0.9694 -1.9260 -0.4095
  154MOL   H29646502   2.262   2.637   6.125 -1.9857  0.3957  0.5714
  154MOL   H29746503   2.602   2.425   6.315 -0.0482  0.7159 -0.3506
  154MOL   H29846504   2.509   2.293   6.262 -1.7237  2.0159  2.0350
  154MOL   H29946505   2.751   2.307   6.179  0.5740 -1.2234 -2.4118
  154MOL   H30046506   2.710   2.470   6.106 -1.7024  0.6095 -0.1452
  154MOL   H30146507   2.643   2.325   6.038 -1.0424  4.0040 -1.7186
  154MOL   H30246508   2.134   2.517   6.144  0.4543  1.3385  1.2956
  155MOL     C146509   3.137   0.017   2.470 -0.0249  0.1279 -0.1939
  155MOL     C246510   3.241   7.904   2.578  0.0024  0.4497 -0.6022
  155MOL     C346511   3.330   7.779   2.567  0.6673 -0.3498  0.6820
  155MOL     O446512   3.316   7.682   2.636  0.8166  0.7102  0.4722
  155MOL     O546513   3.413   7.775   2.458 -0.4598 -0.4128  0.6545
  155MOL     C646514   3.495   7.663   2.447  0.4367 -0.4759 -0.7991
  155MOL     C746515   3.625   7.675   2.528 -0.0674  0.4833 -0.3698
  155MOL     H846516   3.100   0.117   2.489  1.0501  0.6686 -0.8863
  155MOL     H946517   3.058   7.852   2.459 -0.2461  0.2768  0.4023
  155MOL    H1046518   3.315   0.074   2.563  0.8994 -0.6136 -1.7361
  155MOL    H1146519   3.434   7.575   2.470  2.2302 -1.3984  0.5312
  155MOL    H1246520   3.525   7.657   2.343  0.9752  0.9361 -0.7401
  155MOL    H1346521   3.691   7.589   2.535  0.3147  0.6088 -2.2446
  155MOL    H1446522   3.605   7.711   2.629 -1.2152  0.7451 -0.6818
  155MOL    H1546523   3.690   7.748   2.480  0.2332  0.0599 -0.6083
  155MOL    H1646524   3.183   0.033   2.373 -1.5246  1.7956 -0.6288
  155MOL    C1746525   3.170   0.010   2.718 -1.6197  0.2221  0.3605
  155MOL    C1846526   3.258   0.022   2.839  0.4636  0.0134 -0.1434
  155MOL    C1946527   3.173   7.905   2.952 -0.0103  0.0169 -0.6694
  155MOL    O2046528   3.201   7.815   3.038  0.0528 -0.6534  0.0649
  155MOL    O2146529   3.068   0.086   2.957  0.0554  0.1727 -0.1806
  155MOL    C2246530   2.975   0.096   3.059  0.3279 -0.5947  0.6092
  155MOL    C2346531   2.882   0.224   3.054  0.8043  0.1770  0.0646
  155MOL    H2446532   3.116   0.104   2.715  0.5036  1.4816  0.3410
  155MOL    H2546533   3.096   7.838   2.720  1.0521 -2.4330 -1.6381
  155MOL    H2646534   3.329   7.850   2.825 -0.7747 -0.8029 -1.8810
  155MOL    H2746535   2.911   0.008   3.066  0.5769 -0.8559 -0.3648
  155MOL    H2846536   3.033   0.101   3.151  0.5899 -1.7782  0.5209
  155MOL    H2946537   2.826   0.230   2.960 -0.2423  1.5310  0.7575
  155MOL    H3046538   2.928   0.322   3.055 -1.2679  1.1791  0.7034
  155MOL    H3146539   2.816   0.226   3.141  1.0279 -1.9332  0.3035
  155MOL    C3246540   3.331   0.157   2.843  0.4030  0.6294 -0.5846
  155MOL    C3346541   3.482   0.142   2.848  0.0176 -0.3277 -0.4864
  155MOL    C3446542   3.540   0.076   2.974  0.1695  0.7204 -0.0726
  155MOL    O3546543   3.630   7.903   2.957  0.0775  0.5656  0.0925
  155MOL    O3646544   3.495   0.124   3.093 -0.2987  0.4351 -0.0727
  155MOL    C3746545   3.527   0.070   3.216 -0.2704 -0.7687 -0.3902
  155MOL    C3846546   3.449   0.144   3.327  0.1996 -0.6213  0.1940
  155MOL    H3946547   3.298   0.221   2.760 -0.9747  0.1068 -0.4586
  155MOL    H4046548   3.294   0.215   2.928 -2.1316 -0.3495 -0.9704
  155MOL    H4146549   3.501   0.073   2.765 -1.7770 -1.8193  0.2997
  155MOL    H4246550   3.517   7.870   3.221  1.1486 -0.9048 -0.1984
  155MOL    H4346551   3.635   0.077   3.226 -0.4128 -0.0304  0.6926
  155MOL    H4446552   3.463   0.088   3.420  0.2670 -0.6741  0.1530
  155MOL    H4546553   3.345   0.147   3.297  0.5766 -0.1448 -1.0906
  155MOL    H4646554   3.495   0.242   3.339  3.2131 -1.8416 -0.7516
  155MOL    C4746555   3.536   0.285   2.825  0.4080 -0.2490 -0.2677
  155MOL    C4846556   3.687   0.311   2.791 -0.1787  1.0603 -0.4096
  155MOL    C4946557   3.766   0.398   2.896 -0.3613  0.0311 -0.0494
  155MOL    O5046558   3.800   0.513   2.876 -0.1037  0.7054 -0.0023
  155MOL    O5146559   3.806   0.325   3.006  0.1100 -0.4659 -0.0262
  155MOL    C5246560   3.877   0.391   3.110 -0.2169  0.1697 -0.5910
  155MOL    C5346561   3.772   0.477   3.195 -0.1567 -0.2068  0.1207
  155MOL    H5446562   3.478   0.325   2.742  1.8352  1.6199 -0.4000
  155MOL    H5546563   3.514   0.349   2.910  0.9989  1.7610 -1.5763
  155MOL    H5646564   3.741   0.217   2.779 -1.1355  0.3924  0.4200
  155MOL    H5746565   3.931   0.318   3.170 -0.4064 -1.1279 -1.9531
  155MOL    H5846566   3.957   0.448   3.063 -0.1914 -0.2170 -1.0279
  155MOL    H5946567   3.804   0.533   3.283  0.9265  0.1984 -0.5266
  155MOL    H6046568   3.684   0.421   3.227 -1.3312  0.6502 -1.5434
  155MOL    H6146569   3.720   0.551   3.134 -2.2863 -1.0064  0.9055
  155MOL    C6246570   3.689   0.371   2.648 -1.2756 -0.2384  0.6681
  155MOL    C6346571   3.648   0.262   2.547  0.2062  0.0150  0.3247
  155MOL    C6446572   3.748   0.148   2.535 -0.4655 -0.7312  0.0956
  155MOL    O6546573   3.715   0.040   2.590  0.6669  0.1770  0.5577
  155MOL    O6646574   3.867   0.171   2.470 -0.0712 -0.1129  0.5996
  155MOL    C6746575   3.955   0.059   2.464 -0.6458 -0.4609 -0.7055
  155MOL    C6846576   4.098   0.113   2.443 -0.3653 -0.4323  0.1234
  155MOL    H6946577   3.625   0.459   2.653 -1.0807 -0.0247 -0.4514
  155MOL    H7046578   3.787   0.405   2.615 -0.9018  0.1732  2.1561
  155MOL    H7146579   3.548   0.226   2.571 -0.6399  1.5927 -0.7358
  155MOL    H7246580   3.955   7.908   2.555 -0.7132 -0.1318 -0.4880
  155MOL    H7346581   3.926   7.901   2.382 -0.4404 -1.1806 -0.1986
  155MOL    H7446582   4.116   0.146   2.340  0.5210 -0.0149  0.4056
  155MOL    H7546583   4.178   0.045   2.474 -0.2266  1.8422  5.1497
  155MOL    H7646584   4.113   0.205   2.499 -0.5512  0.5334 -1.3854
  155MOL    C7746585   3.633   0.344   2.409  0.3231  0.0189 -0.5275
  155MOL    C7846586   3.486   0.377   2.366  0.6351 -0.4550 -0.1139
  155MOL    C7946587   3.387   0.413   2.481  0.0695  0.4607 -0.0092
  155MOL    O8046588   3.292   0.341   2.518 -0.5860 -0.1406  0.5140
  155MOL    O8146589   3.414   0.529   2.535  0.1108  0.4313 -0.4228
  155MOL    C8246590   3.337   0.583   2.641  0.1194  0.0861  0.0704
  155MOL    C8346591   3.382   0.719   2.692 -0.2460  0.3865  0.9423
  155MOL    H8446592   3.695   0.433   2.418  0.8310 -0.2918 -0.9742
  155MOL    H8546593   3.673   0.280   2.330 -1.0286 -2.4849  0.7451
  155MOL    H8646594   3.497   0.469   2.307 -0.2358 -2.1274 -2.9979
  155MOL    H8746595   3.230   0.589   2.621 -0.3162  0.1268  2.1962
  155MOL    H8846596   3.333   0.518   2.729 -0.0363  1.2344  0.9323
  155MOL    H8946597   3.473   0.706   2.751  2.1075 -1.2091 -2.8273
  155MOL    H9046598   3.311   0.773   2.755 -3.6571 -1.1084 -1.4533
  155MOL    H9146599   3.414   0.791   2.617 -0.6543 -1.1506 -0.7256
  155MOL    C9246600   3.434   0.290   2.256 -0.0196  0.4777  0.3324
  155MOL    C9346601   3.305   0.340   2.166 -0.2098  0.4656 -0.0504
  155MOL    C9446602   3.335   0.482   2.120  0.4342 -0.1892  1.0800
  155MOL    O9546603   3.288   0.583   2.172 -0.0458 -0.2391  0.0670
  155MOL    O9646604   3.420   0.491   2.018 -0.0452 -0.2537  0.2939
  155MOL    C9746605   3.437   0.620   1.957 -0.4871 -0.4655  0.5280
  155MOL    C9846606   3.315   0.665   1.876  0.0336  0.5220 -0.8123
  155MOL    H9946607   3.514   0.295   2.182 -0.4737 -1.8504 -0.3497
  155MOL   H10046608   3.426   0.186   2.286  0.8376  0.7287  1.4612
  155MOL   H10146609   3.311   0.278   2.077  2.0409  2.7206 -1.5401
  155MOL   H10246610   3.461   0.698   2.029  1.4304 -2.0610  1.6742
  155MOL   H10346611   3.523   0.614   1.891 -0.5582 -0.8888  0.4695
  155MOL   H10446612   3.280   0.590   1.805  1.2492 -0.3232 -0.5302
  155MOL   H10546613   3.330   0.766   1.838  0.6529  0.9244  0.4816
  155MOL   H10646614   3.229   0.679   1.942  0.4425  3.0834 -0.7661
  155MOL   C10746615   3.159   0.315   2.231  0.7799 -0.6302  0.1346
  155MOL   C10846616   3.047   0.290   2.126 -0.3767  0.6515  0.3597
  155MOL   C10946617   3.031   0.396   2.017 -0.3216  0.4684 -0.7063
  155MOL   O11046618   3.072   0.366   1.903 -0.1582 -0.1763 -0.2705
  155MOL   O11146619   2.981   0.511   2.049  0.3134  0.4407 -0.5389
  155MOL   C11246620   2.950   0.603   1.939 -0.3930 -0.2510  0.0537
  155MOL   C11346621   2.798   0.589   1.919  0.0406 -0.1042 -0.2639
  155MOL   H11446622   3.160   0.234   2.303  2.9794  0.2985  1.1969
  155MOL   H11546623   3.118   0.385   2.304 -0.2180 -0.4950 -0.5490
  155MOL   H11646624   3.082   0.207   2.063  0.1767  1.1997 -0.0554
  155MOL   H11746625   2.975   0.705   1.967  0.6715  0.0389 -1.8731
  155MOL   H11846626   3.010   0.596   1.848  0.3566  0.8853  0.4494
  155MOL   H11946627   2.760   0.501   1.868 -1.3281  0.9995 -1.1699
  155MOL   H12046628   2.770   0.659   1.841 -0.9989  1.4060  1.4165
  155MOL   H12146629   2.737   0.620   2.004 -1.0687 -0.5865 -0.8748
  155MOL   C12246630   2.912   0.269   2.196 -0.2062  0.4860 -0.0236
  155MOL   C12346631   2.851   0.130   2.205  0.2771  0.5587  0.1764
  155MOL   C12446632   2.847   0.060   2.073  0.1113  0.3018 -0.3290
  155MOL   O12546633   2.871   0.112   1.963  0.4643  0.0184 -0.2625
  155MOL   O12646634   2.820   7.833   2.081  0.1221  0.2046  0.5334
  155MOL   C12746635   2.789   7.748   1.972 -0.4814 -0.0609  0.1201
  155MOL   C12846636   2.720   7.626   2.033  0.0357  0.3705  0.2245
  155MOL   H12946637   2.923   0.310   2.297  1.3869  0.7841 -0.3135
  155MOL   H13046638   2.835   0.338   2.162  0.6585  1.9001  0.8318
  155MOL   H13146639   2.930   0.075   2.257  1.0152  2.3748  1.0235
  155MOL   H13246640   2.725   7.794   1.897  0.3003  0.0098 -0.4990
  155MOL   H13346641   2.883   7.716   1.929 -1.5715  0.0233 -2.4185
  155MOL   H13446642   2.796   7.555   2.064  1.7509  1.9432 -0.3454
  155MOL   H13546643   2.661   7.572   1.959  0.9476 -1.0799  0.5243
  155MOL   H13646644   2.649   7.653   2.112 -1.2024 -0.0282 -0.7381
  155MOL   C13746645   2.712   0.105   2.275  0.5219 -0.9306  0.3595
  155MOL   C13846646   2.579   0.142   2.198 -0.2604 -0.5082 -0.6623
  155MOL   C13946647   2.566   0.298   2.199  0.1726 -0.2937  0.4603
  155MOL   O14046648   2.497   0.360   2.124  0.3902 -0.1145 -0.2451
  155MOL   O14146649   2.633   0.361   2.304 -0.1604  0.3344 -0.4332
  155MOL   C14246650   2.636   0.503   2.307 -0.2919 -0.6255  0.2800
  155MOL   C14346651   2.504   0.578   2.364 -0.1381 -0.3962  0.1174
  155MOL   H14446652   2.706   7.907   2.300 -3.5955 -1.2489 -1.6091
  155MOL   H14546653   2.710   0.149   2.374  1.3726  0.4796 -0.2385
  155MOL   H14646654   2.591   0.112   2.094  0.0216  0.7309 -0.9951
  155MOL   H14746655   2.723   0.540   2.362 -0.4502 -0.8115  0.6597
  155MOL   H14846656   2.634   0.533   2.202 -1.3126  0.9093  0.7185
  155MOL   H14946657   2.504   0.682   2.332 -2.0365  0.7087  3.4735
  155MOL   H15046658   2.494   0.563   2.472 -0.1246  1.3048  0.3612
  155MOL   H15146659   2.418   0.540   2.309  0.2274 -0.3847 -0.4584
  155MOL   C15246660   2.460   0.076   2.263  0.7863  0.0703 -0.0470
  155MOL   C15346661   2.430   7.835   2.231 -0.5942 -0.2332  0.2763
  155MOL   C15446662   2.317   7.829   2.126 -0.2153 -0.5764  0.2140
  155MOL   O15546663   2.217   7.895   2.139  0.0871  0.2739 -0.5029
  155MOL   O15646664   2.344   7.740   2.028 -0.2970 -0.3149  0.4166
  155MOL   C15746665   2.237   7.733   1.935  0.2793  0.3347 -1.1873
  155MOL   C15846666   2.270   7.631   1.830  0.6214 -0.4200 -0.4053
  155MOL   H15946667   2.458   0.093   2.370  0.2600  0.2708 -0.0868
  155MOL   H16046668   2.369   0.130   2.237  0.0415 -0.5168  1.2849
  155MOL   H16146669   2.524   7.788   2.202 -0.5973  1.6292 -2.9106
  155MOL   H16246670   2.149   7.695   1.987  2.5086 -3.0822  0.2824
  155MOL   H16346671   2.209   7.824   1.883  0.2416  1.1751  0.2808
  155MOL   H16446672   2.189   7.601   1.763  0.9699  0.1077 -1.0743
  155MOL   H16546673   2.286   7.536   1.881  0.1477 -0.3714 -0.1584
  155MOL   H16646674   2.364   7.652   1.779 -0.0984  0.5641 -1.3409
  155MOL   C16746675   2.388   7.757   2.357 -0.3455  0.0054  0.1709
  155MOL   C16846676   2.487   7.749   2.480  0.5759  0.0356 -0.2964
  155MOL   C16946677   2.619   7.663   2.464  0.2719  0.3733  0.4997
  155MOL   O17046678   2.727   7.698   2.511  0.0559  0.3653 -0.2651
  155MOL   O17146679   2.599   7.554   2.389 -0.1184 -0.2376  0.6915
  155MOL   C17246680   2.710   7.463   2.361  0.1653 -0.2431 -0.7155
  155MOL   C17346681   2.723   7.348   2.466  0.2665 -0.0376  0.7306
  155MOL   H17446682   2.296   7.802   2.393  0.5854  1.3093  0.9840
  155MOL   H17546683   2.352   7.657   2.330  0.8237  0.3861 -2.9317
  155MOL   H17646684   2.518   7.850   2.507  1.5168  0.2689 -2.1044
  155MOL   H17746685   2.684   7.413   2.268 -0.2562 -3.5629  1.0757
  155MOL   H17846686   2.806   7.512   2.342  0.2258  0.1758  0.6201
  155MOL   H17946687   2.744   7.400   2.559 -0.7979 -1.2466  1.6674
  155MOL   H18046688   2.806   7.279   2.455  0.1592  0.0568 -0.8226
  155MOL   H18146689   2.631   7.291   2.477 -0.0017  0.2382 -0.0645
  155MOL   C18246690   2.410   7.702   2.606  0.1239  0.7057 -0.6793
  155MOL   C18346691   2.341   7.561   2.600  0.8112 -0.1078  0.1832
  155MOL   C18446692   2.193   7.579   2.563 -0.0225 -0.1038 -0.2634
  155MOL   O18546693   2.151   7.558   2.447 -0.2318 -0.2951  0.2953
  155MOL   O18646694   2.121   7.641   2.658 -0.1041 -0.3877 -0.4659
  155MOL   C18746695   1.989   7.686   2.645  0.3407  0.4155  0.9491
  155MOL   C18846696   1.933   7.705   2.788  0.0206  0.2888 -0.3578
  155MOL   H18946697   2.478   7.699   2.691 -0.7646  1.9963  0.0981
  155MOL   H19046698   2.338   7.781   2.628 -1.8518 -0.9295 -1.0547
  155MOL   H19146699   2.388   7.501   2.523  0.8036 -1.2153  1.0299
  155MOL   H19246700   1.989   7.773   2.579  1.8681 -0.8551 -0.7709
  155MOL   H19346701   1.918   7.619   2.596 -0.6627  2.0289  0.1579
  155MOL   H19446702   1.987   7.774   2.852  1.4725 -2.1891  1.1838
  155MOL   H19546703   1.928   7.609   2.839  1.1167  0.1404 -0.5102
  155MOL   H19646704   1.829   7.738   2.783  0.5381  1.8249 -1.5551
  155MOL   C19746705   2.358   7.488   2.736 -0.2781  0.0933 -0.6004
  155MOL   C19846706   2.293   7.345   2.757  0.2315 -0.1627  0.6023
  155MOL   C19946707   2.315   7.303   2.903  0.1322 -0.2025  1.3401
  155MOL   O20046708   2.220   7.265   2.966  0.3291  0.1443 -0.3819
  155MOL   O20146709   2.445   7.284   2.937 -0.0366 -0.1318  0.1614
  155MOL   C20246710   2.473   7.239   3.064 -0.0669  0.4096  0.3864
  155MOL   C20346711   2.480   7.088   3.062 -0.0030  0.0755  0.3721
  155MOL   H20446712   2.466   7.474   2.745 -0.1040  1.5702 -0.2363
  155MOL   H20546713   2.340   7.551   2.823  1.1965 -0.3187  0.0299
  155MOL   H20646714   2.184   7.346   2.758  0.2326  0.4899 -0.0318
  155MOL   H20746715   2.571   7.280   3.086 -1.1720  2.4065  1.6622
  155MOL   H20846716   2.403   7.276   3.139 -2.4084  2.1624 -2.5422
  155MOL   H20946717   2.391   7.042   3.019 -0.6975  2.0557 -0.3484
  155MOL   H21046718   2.481   7.033   3.156  0.2250 -0.5033  0.0336
  155MOL   H21146719   2.559   7.044   3.001  0.2374 -1.2951  1.6490
  155MOL   C21246720   2.351   7.243   2.657  0.2149 -0.8369 -0.9181
  155MOL   C21346721   2.307   7.098   2.678 -0.3459  0.3153 -0.3242
  155MOL   C21446722   2.406   7.001   2.613 -0.1777  0.0847  0.0558
  155MOL   O21546723   2.462   7.025   2.503 -0.3251  0.2531  0.2020
  155MOL   O21646724   2.421   6.890   2.687  0.3129  0.2697  0.6413
  155MOL   C21746725   2.531   6.808   2.644  0.0467 -0.2673 -0.8617
  155MOL   C21846726   2.498   6.673   2.715 -0.1930 -0.2864 -0.3868
  155MOL   H21946727   2.356   7.265   2.550  0.0008  0.4709 -0.6709
  155MOL   H22046728   2.457   7.241   2.683 -0.2761  0.5717  1.2755
  155MOL   H22146729   2.317   7.084   2.786  0.3292  1.2112 -0.2657
  155MOL   H22246730   2.526   6.804   2.535 -3.0005  1.3177 -0.8315
  155MOL   H22346731   2.625   6.853   2.674  0.0190 -0.0233 -1.1338
  155MOL   H22446732   2.418   6.638   2.650 -0.4488 -0.5988  0.0932
  155MOL   H22546733   2.455   6.696   2.813  1.9565  2.0297  0.0647
  155MOL   H22646734   2.586   6.609   2.712  0.4604  0.5416  0.6488
  155MOL   C22746735   2.162   7.072   2.639  0.1746 -0.2877 -0.0554
  155MOL   C22846736   2.098   6.945   2.707 -0.4012 -0.0070  0.4478
  155MOL   C22946737   1.966   6.906   2.640 -0.4081 -0.9744 -0.0602
  155MOL   O23046738   1.957   6.798   2.575  0.5341  0.1737  0.0005
  155MOL   O23146739   1.865   6.988   2.668  0.0847 -0.2455 -0.3222
  155MOL   C23246740   1.725   6.972   2.628 -0.5160  0.4241  0.2822
  155MOL   C23346741   1.657   6.879   2.731  0.5777  0.7483 -0.2902
  155MOL   H23446742   2.110   7.156   2.684 -2.2774 -0.8908 -1.7093
  155MOL   H23546743   2.148   7.089   2.533 -3.4410 -1.5906  0.1448
  155MOL   H23646744   2.158   6.854   2.697 -0.6229 -0.1110  0.0859
  155MOL   H23746745   1.664   7.062   2.627  0.0984  0.8400 -1.4696
  155MOL   H23846746   1.728   6.926   2.529  2.4051  0.3602  0.3457
  155MOL   H23946747   1.556   6.857   2.697 -0.4424 -0.9903  3.4944
  155MOL   H24046748   1.657   6.923   2.831 -2.3185  2.2620 -0.8962
  155MOL   H24146749   1.714   6.786   2.738 -0.4297 -0.0461 -2.1957
  155MOL   C24246750   2.087   6.966   2.865 -0.4841 -0.1720  0.3129
  155MOL   C24346751   2.042   6.839   2.944  0.2551 -0.2510  0.0382
  155MOL   C24446752   1.970   6.893   3.068  0.3359  0.3716 -0.0832
  155MOL   O24546753   1.854   6.865   3.095  0.5243 -0.4298 -0.1320
  155MOL   O24646754   2.042   6.967   3.152 -0.1453 -0.0330 -0.0833
  155MOL   C24746755   1.983   7.049   3.252 -0.7236  0.3676 -0.2137
  155MOL   C24846756   2.054   7.182   3.250 -0.0052  0.1939 -0.5096
  155MOL   H24946757   2.183   6.997   2.905  0.0658 -0.1120 -1.0369
  155MOL   H25046758   2.014   7.044   2.885  0.0907 -0.0229  1.8799
  155MOL   H25146759   1.969   6.793   2.877  2.1826  0.1045 -2.3542
  155MOL   H25246760   1.879   7.072   3.230 -0.2607  1.9036 -0.8397
  155MOL   H25346761   1.989   7.018   3.357  1.5083  0.9422 -0.1446
  155MOL   H25446762   2.049   7.213   3.145 -2.1519 -0.4947 -0.6324
  155MOL   H25546763   2.159   7.181   3.278 -0.0016  1.5330 -0.4637
  155MOL   H25646764   1.998   7.257   3.305  0.2123  0.5967 -0.8303
  155MOL   C25746765   2.150   6.732   2.978 -0.1504 -0.0094 -0.0037
  155MOL   C25846766   2.101   6.593   2.947 -0.3617 -0.0387 -0.9072
  155MOL   C25946767   2.062   6.573   2.799 -0.4705  0.4590  0.5855
  155MOL   O26046768   1.943   6.553   2.781 -0.0511  0.1625  0.3709
  155MOL   O26146769   2.168   6.560   2.704 -0.2704 -0.0667  0.0016
  155MOL   C26246770   2.134   6.513   2.574  0.0116 -0.7061  0.1005
  155MOL   C26346771   2.145   6.357   2.576  0.4534 -0.0813 -0.1749
  155MOL   H26446772   2.240   6.745   2.917  0.4160 -2.0740  0.3374
  155MOL   H26546773   2.178   6.750   3.081  1.5426 -0.4752 -0.3634
  155MOL   H26646774   2.193   6.537   2.960 -0.5606 -0.6593 -2.1027
  155MOL   H26746775   2.030   6.541   2.556  0.2902 -0.3939 -1.0867
  155MOL   H26846776   2.204   6.559   2.505 -0.2807  0.3731  0.5118
  155MOL   H26946777   2.066   6.325   2.643  0.5086  1.8384  0.8437
  155MOL   H27046778   2.242   6.321   2.610  1.8324  0.3291 -3.4466
  155MOL   H27146779   2.130   6.308   2.480 -0.2793 -1.0986  0.4486
  155MOL   C27246780   2.003   6.532   3.056  0.5716  0.1244  0.5453
  155MOL   C27346781   2.049   6.541   3.206 -0.1235  0.8979  0.0923
  155MOL   C27446782   2.171   6.460   3.231  1.1815 -0.2223 -0.3441
  155MOL   O27546783   2.285   6.504   3.219  0.0177  0.0194  0.0736
  155MOL   O27646784   2.143   6.333   3.251 -0.2074  0.1172  0.7472
  155MOL   C27746785   2.247   6.238   3.247  0.3890 -0.3876  0.6517
  155MOL   C27846786   2.182   6.100   3.275  0.0778  0.0346  0.4124
  155MOL   H27946787   1.909   6.582   3.029 -0.2950 -1.8721 -0.2585
  155MOL   H28046788   1.990   6.427   3.032 -0.2134  0.5758 -1.1118
  155MOL   H28146789   2.072   6.643   3.235  1.6853 -0.0021  1.9544
  155MOL   H28246790   2.299   6.237   3.152  1.5599 -2.3064  1.2767
  155MOL   H28346791   2.313   6.263   3.331  0.8735  1.0897 -0.1546
  155MOL   H28446792   2.118   6.106   3.363  0.7625 -1.4488  1.0367
  155MOL   H28546793   2.266   6.037   3.305  2.8321  3.4104  0.1933
  155MOL   H28646794   2.138   6.063   3.183 -2.3417 -2.2500  2.3879
  155MOL   C28746795   1.923   6.501   3.294 -0.2525 -0.0963 -0.2893
  155MOL   C28846796   1.833   6.621   3.301 -0.1134 -0.2779 -0.0146
  155MOL   C28946797   1.714   6.604   3.391 -0.7301 -0.1594  0.1627
  155MOL   O29046798   1.694   6.658   3.497 -0.3661  0.9065  0.2046
  155MOL   O29146799   1.622   6.528   3.336 -0.2582  0.1892  0.4437
  155MOL   C29246800   1.488   6.517   3.394  0.6823 -0.3080 -0.5371
  155MOL   C29346801   1.406   6.408   3.319  0.0155 -0.2899  0.4107
  155MOL   H29446802   1.862   6.427   3.243  0.0273  0.7128 -1.8235
  155MOL   H29546803   1.952   6.469   3.394 -0.3269 -1.1942 -0.6145
  155MOL   H29646804   1.896   6.702   3.337 -2.0963  1.3143 -0.0698
  155MOL   H29746805   1.495   6.510   3.503  3.4693  2.5816 -0.4562
  155MOL   H29846806   1.429   6.609   3.396  0.8273 -0.2220  0.2039
  155MOL   H29946807   1.426   6.307   3.353 -1.4774 -0.7611 -0.0669
  155MOL   H30046808   1.392   6.416   3.212  1.5851  1.5472  0.3116
  155MOL   H30146809   1.310   6.428   3.367 -1.4321 -3.4378 -1.1089
  155MOL   H30246810   1.796   6.651   3.203 -0.6202 -1.0117 -0.0491
  156MOL     C146811   0.406   7.323   0.639 -0.0832 -1.1506  0.4763
  156MOL     C246812   0.314   7.199   0.650  0.2168 -1.4718  0.0833
  156MOL     C346813   0.189   7.212   0.563  0.7906  0.1329  0.8621
  156MOL     O446814   0.095   7.278   0.602  0.0229 -0.2324 -0.5013
  156MOL     O546815   0.202   7.149   0.442 -0.3406 -0.7812  0.0907
  156MOL     C646816   0.105   7.166   0.346  0.2463 -0.3492 -0.3159
  156MOL     C746817   0.087   7.033   0.263  0.9520  0.1712 -0.5631
  156MOL     H846818   0.392   7.376   0.544  0.0881  1.3954  1.8395
  156MOL     H946819   0.511   7.301   0.654  0.7419  1.3587 -1.1514
  156MOL    H1046820   0.369   7.108   0.625 -0.6678 -1.1646 -3.2257
  156MOL    H1146821   0.013   7.214   0.379  0.6166  0.7830 -0.9296
  156MOL    H1246822   0.156   7.233   0.277 -0.0097 -1.3862 -1.5209
  156MOL    H1346823   0.166   6.985   0.204 -0.7523 -1.6958 -1.3861
  156MOL    H1446824   0.002   7.046   0.196  0.6872  0.0707 -0.2394
  156MOL    H1546825   0.052   6.961   0.336  1.6555 -0.1868 -0.5680
  156MOL    H1646826   0.386   7.398   0.716  2.0112  2.5247 -2.3490
  156MOL    C1746827   0.267   7.188   0.798  0.4188  0.0041  0.0995
  156MOL    C1846828   0.378   7.164   0.906  0.4514 -0.3799  0.8494
  156MOL    C1946829   0.467   7.040   0.885  0.2156 -0.7600  0.4280
  156MOL    O2046830   0.422   6.941   0.826  0.1924 -0.0186 -0.3030
  156MOL    O2146831   0.571   7.042   0.959 -0.4877 -0.3851  0.1345
  156MOL    C2246832   0.665   6.938   0.979  0.7624 -0.5596 -0.0320
  156MOL    C2346833   0.768   6.991   1.088 -0.0149  0.7037  0.2213
  156MOL    H2446834   0.196   7.266   0.824  0.2610 -0.3327  0.6691
  156MOL    H2546835   0.216   7.093   0.814 -1.1306  0.7971 -0.0798
  156MOL    H2646836   0.444   7.250   0.897  0.6204 -0.4689  1.2095
  156MOL    H2746837   0.605   6.859   1.025  1.6791  0.4386  2.9978
  156MOL    H2846838   0.710   6.923   0.881  1.4320  2.5106 -0.2268
  156MOL    H2946839   0.732   7.038   1.179 -0.2735  0.7557  0.0921
  156MOL    H3046840   0.833   7.070   1.052  1.2404  0.0108  0.9210
  156MOL    H3146841   0.828   6.906   1.120 -1.9259 -0.6679  0.2566
  156MOL    C3246842   0.323   7.180   1.048  0.3384  0.5631 -0.3016
  156MOL    C3346843   0.428   7.228   1.141  0.0673 -0.2778  0.0373
  156MOL    C3446844   0.410   7.168   1.282 -0.2794  1.0453 -0.7229
  156MOL    O3546845   0.487   7.076   1.324  0.2071  0.2455 -0.5399
  156MOL    O3646846   0.305   7.210   1.352 -0.0120 -0.6937  0.5599
  156MOL    C3746847   0.286   7.157   1.486 -0.1252 -1.2627 -0.7174
  156MOL    C3846848   0.242   7.281   1.567  0.0199 -0.1999 -0.6220
  156MOL    H3946849   0.250   7.261   1.050  0.5100  0.7089  0.5373
  156MOL    H4046850   0.278   7.090   1.089  2.6393 -0.2981  0.4404
  156MOL    H4146851   0.525   7.193   1.106  0.3949  0.7381 -0.0652
  156MOL    H4246852   0.220   7.070   1.483 -2.0139  0.1046  0.0587
  156MOL    H4346853   0.381   7.123   1.527  0.1669 -0.0365 -0.3421
  156MOL    H4446854   0.308   7.367   1.554  0.3295 -0.2546  0.4982
  156MOL    H4546855   0.259   7.244   1.668 -1.5530 -0.1540 -0.3306
  156MOL    H4646856   0.139   7.308   1.546  0.3332  2.1309  0.7448
  156MOL    C4746857   0.435   7.380   1.144 -0.3454  0.0125 -0.1870
  156MOL    C4846858   0.579   7.429   1.167  0.5454 -0.2128  0.6486
  156MOL    C4946859   0.624   7.428   1.314  0.6013 -0.0837  0.3915
  156MOL    O5046860   0.541   7.426   1.412  0.0705  0.0764  0.0159
  156MOL    O5146861   0.756   7.422   1.326  0.2907  0.2511  0.4956
  156MOL    C5246862   0.820   7.402   1.454  0.3109  0.5245  0.1070
  156MOL    C5346863   0.893   7.521   1.517  0.2271 -0.4442 -0.4261
  156MOL    H5446864   0.393   7.413   1.049 -1.6095  1.8071  0.9427
  156MOL    H5546865   0.374   7.429   1.221  0.4788 -0.0888  0.5378
  156MOL    H5646866   0.638   7.353   1.116 -1.8028 -0.1174 -2.3923
  156MOL    H5746867   0.747   7.349   1.516  0.3129  0.6332  0.2029
  156MOL    H5846868   0.898   7.326   1.455  1.7480  1.9818  0.0606
  156MOL    H5946869   0.816   7.598   1.526  1.6841  1.0183 -0.3892
  156MOL    H6046870   0.976   7.558   1.458  0.7722 -0.1050  0.5384
  156MOL    H6146871   0.931   7.492   1.615 -0.1965 -1.5571 -0.5809
  156MOL    C6246872   0.614   7.564   1.097 -0.4393 -0.0304  0.0987
  156MOL    C6346873   0.624   7.566   0.946 -0.4256  0.0829  0.3605
  156MOL    C6446874   0.743   7.486   0.901 -0.5011 -0.2952  0.2632
  156MOL    O6546875   0.737   7.373   0.855  0.1575  0.3637  0.0894
  156MOL    O6646876   0.857   7.556   0.928  0.0466 -0.4597  0.1031
  156MOL    C6746877   0.983   7.504   0.910 -0.0791  0.8360 -0.3018
  156MOL    C6846878   1.089   7.578   0.981 -0.2365 -0.3707 -0.3912
  156MOL    H6946879   0.527   7.619   1.133  0.4715  2.5729 -1.5965
  156MOL    H7046880   0.700   7.613   1.143  0.9108 -1.6557 -0.6093
  156MOL    H7146881   0.538   7.526   0.893  0.4245  1.1502 -1.8919
  156MOL    H7246882   0.971   7.399   0.936 -1.5940  1.0977  0.0882
  156MOL    H7346883   1.001   7.503   0.803 -1.0876 -0.1062 -0.4720
  156MOL    H7446884   1.070   7.586   1.088 -1.2629 -1.2462 -0.4911
  156MOL    H7546885   1.095   7.680   0.945  2.0553 -0.2388  0.3254
  156MOL    H7646886   1.190   7.541   0.966  0.5566  1.5144  0.2220
  156MOL    C7746887   0.631   7.708   0.902 -0.8580 -0.3358 -0.5591
  156MOL    C7846888   0.525   7.746   0.794  0.1911 -0.0566 -0.6455
  156MOL    C7946889   0.378   7.739   0.845  1.1987  0.2018  0.5774
  156MOL    O8046890   0.320   7.629   0.855  0.0715 -0.0807  0.2231
  156MOL    O8146891   0.318   7.857   0.866 -0.1041 -0.0267  0.0559
  156MOL    C8246892   0.196   7.853   0.941 -0.4245  0.1973 -0.0211
  156MOL    C8346893   0.160   0.085   0.996  0.3221 -0.3987  0.3540
  156MOL    H8446894   0.616   7.777   0.985  0.2185  0.3995 -0.9596
  156MOL    H8546895   0.733   7.729   0.869 -0.0915 -2.1630  0.5912
  156MOL    H8646896   0.533   7.854   0.781  1.6801  0.0531  0.9092
  156MOL    H8746897   0.116   7.828   0.871  0.1308  0.8108 -0.8811
  156MOL    H8846898   0.199   7.789   1.029 -1.0776 -0.6600 -0.6096
  156MOL    H8946899   0.053   0.087   1.017  0.4230 -2.2298  1.0805
  156MOL    H9046900   0.183   0.163   0.923 -0.8120 -1.4626 -1.1677
  156MOL    H9146901   0.212   0.098   1.091 -1.9741 -0.0520  1.5852
  156MOL    C9246902   0.543   7.696   0.650  0.4345 -0.2323  0.2724
  156MOL    C9346903   0.506   7.802   0.538  0.1842  0.5167  0.1716
  156MOL    C9446904   0.358   7.821   0.509 -0.2784  0.3088  0.4992
  156MOL    O9546905   0.303   0.020   0.511  0.6612  0.1226  0.0542
  156MOL    O9646906   0.298   7.702   0.466 -0.5185 -0.2809 -0.8845
  156MOL    C9746907   0.159   7.701   0.443  0.2976 -0.2972  0.5115
  156MOL    C9846908   0.099   7.561   0.413 -0.1628  0.0006  0.3331
  156MOL    H9946909   0.651   7.687   0.657  0.4362  1.6463  4.6850
  156MOL   H10046910   0.500   7.597   0.631 -2.0579  0.4399  2.0890
  156MOL   H10146911   0.544   7.897   0.578 -1.6065  1.9003 -1.3103
  156MOL   H10246912   0.108   7.739   0.531  4.3301 -1.0850  3.3177
  156MOL   H10346913   0.130   7.771   0.364  0.6709  0.1126  0.7402
  156MOL   H10446914   0.164   7.503   0.348 -1.8568  0.1278 -1.5008
  156MOL   H10546915   0.000   7.582   0.373  0.2733 -0.6233 -1.0754
  156MOL   H10646916   0.084   7.507   0.506  4.2265 -0.5849  0.8418
  156MOL   C10746917   0.587   7.794   0.406 -0.2113  0.2819 -0.4690
  156MOL   C10846918   0.589   0.006   0.309 -0.0055  0.5863 -0.0303
  156MOL   C10946919   0.654   7.869   0.175 -0.6033 -1.0691 -0.2784
  156MOL   O11046920   0.592   7.893   0.071  0.2475  0.7386 -0.4161
  156MOL   O11146921   0.774   7.819   0.187 -0.2391  0.2311 -0.5923
  156MOL   C11246922   0.831   7.763   0.067  0.0982  0.3421  0.4353
  156MOL   C11346923   0.758   7.630   0.038  0.0503  0.3178  0.3782
  156MOL   H11446924   0.687   7.761   0.433 -0.1032  0.9282 -0.0529
  156MOL   H11546925   0.556   7.705   0.352  2.5092 -1.0805  0.1771
  156MOL   H11646926   0.487   0.025   0.276  0.2441  0.9089 -0.6323
  156MOL   H11746927   0.824   7.837   7.895 -1.4330  1.5751  1.6666
  156MOL   H11846928   0.937   7.751   0.089  0.2977 -0.0463 -0.6980
  156MOL   H11946929   0.815   7.560   7.885 -1.8887 -1.1522  0.2454
  156MOL   H12046930   0.654   7.638   0.007 -0.0166 -1.0930  0.1999
  156MOL   H12146931   0.760   7.568   0.127 -1.1647  0.1021  0.2571
  156MOL   C12246932   0.658   0.126   0.372 -0.7430  0.0542 -0.1944
  156MOL   C12346933   0.632   0.255   0.285 -0.0683  0.9369 -0.2412
  156MOL   C12446934   0.749   0.357   0.309 -0.4397 -0.2612 -0.6235
  156MOL   O12546935   0.830   0.394   0.223 -0.1542  0.5106 -0.1258
  156MOL   O12646936   0.745   0.398   0.433 -0.4003  0.4642 -0.2585
  156MOL   C12746937   0.816   0.513   0.473  0.4159 -0.1517 -0.3479
  156MOL   C12846938   0.923   0.485   0.578 -0.2811 -0.1587  0.5670
  156MOL   H12946939   0.624   0.152   0.472 -0.3712 -0.0861 -0.0310
  156MOL   H13046940   0.766   0.117   0.378 -0.5311  3.1192  2.1626
  156MOL   H13146941   0.633   0.231   0.178  0.8160 -1.2259  0.2399
  156MOL   H13246942   0.866   0.564   0.391  0.9566 -2.4205 -1.4911
  156MOL   H13346943   0.747   0.577   0.528  1.7081 -0.8192  2.0974
  156MOL   H13446944   0.889   0.455   0.677 -0.0786  1.4513  1.1496
  156MOL   H13546945   0.977   0.579   0.588 -1.3785  0.6063 -0.5779
  156MOL   H13646946   0.998   0.422   0.531 -0.9162 -0.1454 -0.4776
  156MOL   C13746947   0.500   0.326   0.313  0.6261  0.5405 -0.6080
  156MOL   C13846948   0.475   0.454   0.232  0.3036 -0.6821 -0.6290
  156MOL   C13946949   0.345   0.518   0.272  1.3983  0.4742 -0.7263
  156MOL   O14046950   0.249   0.512   0.192  0.4326 -0.2335 -0.3859
  156MOL   O14146951   0.344   0.577   0.384 -0.1803 -0.5651  0.1697
  156MOL   C14246952   0.230   0.648   0.425 -0.9466  0.4101 -1.0159
  156MOL   C14346953   0.231   0.693   0.571 -0.8007 -0.4038  0.5191
  156MOL   H14446954   0.427   0.247   0.296  1.0470  0.3725 -1.6832
  156MOL   H14546955   0.500   0.350   0.419  5.0796  0.1392 -0.4354
  156MOL   H14646956   0.550   0.529   0.258 -0.3233 -0.6738  1.2228
  156MOL   H14746957   0.238   0.739   0.366  1.8692  1.3110  0.6593
  156MOL   H14846958   0.136   0.596   0.404 -0.1383 -0.2595 -3.0338
  156MOL   H14946959   0.321   0.743   0.604 -0.4142 -0.0193 -1.0903
  156MOL   H15046960   0.222   0.605   0.636 -0.9942  0.2997  1.4481
  156MOL   H15146961   0.145   0.753   0.600  0.4438  0.9976  1.3601
  156MOL   C15246962   0.483   0.438   0.083 -0.0958 -0.2689 -0.3092
  156MOL   C15346963   0.459   0.570   7.903 -0.8532 -0.2889  0.3388
  156MOL   C15446964   0.370   0.557   7.783 -0.6085 -0.7687 -0.2748
  156MOL   O15546965   0.332   0.445   7.747 -0.0431 -0.2118 -0.0741
  156MOL   O15646966   0.344   0.676   7.725  0.2953 -0.1962  0.4138
  156MOL   C15746967   0.266   0.677   7.601 -0.0029  0.0988 -0.1498
  156MOL   C15846968   0.240   0.823   7.556  0.1696  0.0967  0.2007
  156MOL   H15946969   0.583   0.408   0.053  1.2857  3.2634  0.5353
  156MOL   H16046970   0.423   0.350   0.059  0.3401 -0.8826  0.8085
  156MOL   H16146971   0.416   0.654   0.050  0.9681  0.5282  0.5679
  156MOL   H16246972   0.320   0.614   7.530 -0.3728 -1.9987  1.3740
  156MOL   H16346973   0.169   0.639   7.634 -0.4499  0.7676 -0.6630
  156MOL   H16446974   0.207   0.834   7.452  1.9730 -0.3642 -0.4363
  156MOL   H16546975   0.322   0.895   7.559 -0.8867  1.3130  0.8740
  156MOL   H16646976   0.163   0.871   7.616 -1.0000  0.8011 -1.7894
  156MOL   C16746977   0.593   0.629   7.861 -0.1471  0.4073  0.2098
  156MOL   C16846978   0.689   0.690   0.055 -0.1262  0.2698 -0.1432
  156MOL   C16946979   0.624   0.805   0.130 -0.2832 -0.5041 -0.7502
  156MOL   O17046980   0.572   0.896   0.064 -0.4399 -0.2209  0.3144
  156MOL   O17146981   0.616   0.792   0.260 -0.3903  1.4766 -0.2317
  156MOL   C17246982   0.563   0.898   0.341  1.0597  0.6580 -0.4668
  156MOL   C17346983   0.604   0.866   0.488 -0.2616 -0.1364  0.3758
  156MOL   H17446984   0.637   0.556   7.792 -2.0558 -0.5130 -0.0812
  156MOL   H17546985   0.578   0.715   7.796  4.1610  0.7082 -0.5564
  156MOL   H17646986   0.720   0.626   0.138 -0.6317 -0.2370 -0.3418
  156MOL   H17746987   0.576   1.001   0.306  0.5228  1.0885  0.5835
  156MOL   H17846988   0.455   0.883   0.344  1.1407  0.1858  0.3641
  156MOL   H17946989   0.570   0.943   0.558 -0.8629 -0.7267  0.7441
  156MOL   H18046990   0.712   0.862   0.501 -0.4035 -1.0569  1.3843
  156MOL   H18146991   0.551   0.775   0.518 -0.7213  0.0082 -0.0014
  156MOL   C18246992   0.824   0.737   7.899  0.0308  0.5662  0.8703
  156MOL   C18346993   0.956   0.746   0.070  0.3581  0.2333 -0.3462
  156MOL   C18446994   0.939   0.815   0.204  0.1060 -0.9404 -0.7311
  156MOL   O18546995   0.984   0.763   0.311 -0.0195  0.6756 -0.2464
  156MOL   O18646996   0.888   0.935   0.195 -0.6083  0.3554 -0.0381
  156MOL   C18746997   0.887   1.027   0.307 -0.1200  0.1454 -0.2051
  156MOL   C18846998   1.010   1.113   0.320 -0.2369  0.3082  1.2251
  156MOL   H18946999   0.843   0.667   7.817 -1.2656 -1.9249  2.6380
  156MOL   H19047000   0.814   0.831   7.845 -0.1979 -0.0763 -0.2254
  156MOL   H19147001   0.989   0.645   0.092 -0.8959 -0.1225 -0.0713
  156MOL   H19247002   0.791   1.079   0.306 -0.3897 -0.3554 -1.3962
  156MOL   H19347003   0.876   0.972   0.400  0.1407  1.4892  0.6325
  156MOL   H19447004   1.104   1.057   0.323 -0.8203 -0.7356  0.2230
  156MOL   H19547005   0.996   1.181   0.405 -0.6964  0.6751  0.8584
  156MOL   H19647006   1.023   1.183   0.238  0.5134 -2.1335 -0.7898
  156MOL   C19747007   1.075   0.805   7.896  0.5102 -0.5330  0.0759
  156MOL   C19847008   1.115   0.712   7.774 -0.7368 -0.3423 -0.1739
  156MOL   C19947009   1.136   0.563   7.807 -0.0964  0.2083 -0.1876
  156MOL   O20047010   1.068   0.477   7.751 -0.5554 -0.1719 -0.0163
  156MOL   O20147011   1.232   0.537   7.907  0.5902 -0.3869 -0.1658
  156MOL   C20247012   1.267   0.413   0.050  0.3638  0.2048  0.3965
  156MOL   C20347013   1.139   0.370   0.131 -0.5551 -0.4372  0.9799
  156MOL   H20447014   1.024   0.889   7.849  1.7860 -0.8470 -1.9310
  156MOL   H20547015   1.156   0.841   0.050 -0.3724  0.5099  0.6353
  156MOL   H20647016   1.036   0.719   7.699 -0.2687  1.9922 -0.4671
  156MOL   H20747017   1.286   0.344   7.876  0.7278  1.7271 -0.8229
  156MOL   H20847018   1.356   0.415   0.114  1.1167  0.6416 -0.6512
  156MOL   H20947019   1.049   0.379   0.071 -0.3423  0.5334  0.7967
  156MOL   H21047020   1.134   0.428   0.223  0.6644  2.0951 -0.4729
  156MOL   H21147021   1.145   0.264   0.155  1.6186 -0.7770 -0.8608
  156MOL   C21247022   1.248   0.758   7.703 -0.0072 -0.3558  0.5282
  156MOL   C21347023   1.239   0.904   7.647  0.6744  0.2416 -0.1565
  156MOL   C21447024   1.118   0.924   7.552  0.3119  0.4776 -0.7952
  156MOL   O21547025   1.040   1.016   7.568 -0.3094 -0.4039  0.4953
  156MOL   O21647026   1.111   0.821   7.457  0.9880 -0.5165 -0.2134
  156MOL   C21747027   0.992   0.803   7.386  0.1902  0.2051  0.0504
  156MOL   C21847028   1.010   0.815   7.230  0.4936 -0.2000 -0.0769
  156MOL   H21947029   1.323   0.753   7.782  1.0776 -0.1656 -0.4805
  156MOL   H22047030   1.278   0.695   7.620  0.3555  2.2118 -1.3601
  156MOL   H22147031   1.214   0.960   7.737 -1.0553  1.4384 -1.3510
  156MOL   H22247032   0.969   0.699   7.408 -1.8100  0.4352 -0.8377
  156MOL   H22347033   0.904   0.848   7.430 -0.8354 -2.2380  0.5419
  156MOL   H22447034   1.057   0.909   7.200  1.3468 -0.8964 -0.9714
  156MOL   H22547035   0.914   0.810   7.179  0.3279  2.4667 -0.0916
  156MOL   H22647036   1.078   0.733   7.202  1.7359  0.5024  0.8317
  156MOL   C22747037   1.357   0.946   7.572 -0.0566 -0.2119  0.2106
  156MOL   C22847038   1.494   0.923   7.655  0.2397 -0.1029 -0.3825
  156MOL   C22947039   1.521   1.016   7.776  0.2750  0.1165 -0.0949
  156MOL   O23047040   1.536   0.968   7.891  0.3729 -0.4847 -0.2901
  156MOL   O23147041   1.533   1.141   7.738  0.8487  0.8503 -0.3107
  156MOL   C23247042   1.555   1.246   7.829 -0.4079  0.3917  0.5259
  156MOL   C23347043   1.694   1.245   7.872  0.7785 -1.0619  0.7657
  156MOL   H23447044   1.370   0.888   7.481  1.8949 -3.0186  2.1793
  156MOL   H23547045   1.348   1.052   7.549 -1.0822 -0.5462 -0.9997
  156MOL   H23647046   1.495   0.826   7.704 -1.6372  0.1003  0.1191
  156MOL   H23747047   1.534   1.343   7.784 -0.8164  0.2000  0.2953
  156MOL   H23847048   1.493   1.232   0.009  0.8386  0.2056  1.3697
  156MOL   H23947049   1.757   1.247   7.783 -1.1030 -0.1303 -0.5783
  156MOL   H24047050   1.730   1.164   0.027  1.6200 -0.5360  0.9611
  156MOL   H24147051   1.707   1.340   0.015  1.7404 -0.4734 -0.5456
  156MOL   C24247052   1.615   0.921   7.563 -0.3120 -0.3473 -0.7904
  156MOL   C24347053   1.628   0.788   7.483 -0.6639 -0.0893  0.2067
  156MOL   C24447054   1.637   0.669   7.585  0.0029 -0.1063 -0.1945
  156MOL   O24547055   1.582   0.561   7.560 -0.3045 -0.8774 -0.4527
  156MOL   O24647056   1.709   0.695   7.689  0.2841  0.0172 -0.2166
  156MOL   C24747057   1.719   0.603   7.794 -0.0955 -0.4055  0.5102
  156MOL   C24847058   1.622   0.633   0.001 -0.9109  0.2296 -0.3249
  156MOL   H24947059   1.612   1.007   7.497  0.7817 -0.6804 -1.2929
  156MOL   H25047060   1.712   0.923   7.615 -0.6294  1.1604 -0.2336
  156MOL   H25147061   1.547   0.769   7.413  0.8277  0.5834 -1.7382
  156MOL   H25247062   1.714   0.498   7.765  2.3157 -0.4030 -0.0249
  156MOL   H25347063   1.822   0.608   7.829  0.8292 -1.1462 -1.9876
  156MOL   H25447064   1.636   0.562   0.083 -1.3040 -0.1299 -0.5712
  156MOL   H25547065   1.517   0.642   7.882 -0.5691 -1.5352 -2.2966
  156MOL   H25647066   1.641   0.733   0.042 -0.3919 -0.2280  0.5803
  156MOL   C25747067   1.754   0.801   7.394 -0.3591  0.4225  0.0255
  156MOL   C25847068   1.775   0.680   7.300  0.1682  0.4864  0.0269
  156MOL   C25947069   1.915   0.696   7.236 -0.1589 -0.2232 -0.2969
  156MOL   O26047070   2.011   0.640   7.292  0.0973 -0.3197 -0.5016
  156MOL   O26147071   1.917   0.789   7.128 -0.1504  0.1946  0.2781
  156MOL   C26247072   2.044   0.833   7.079  0.6821  0.5449 -0.2975
  156MOL   C26347073   2.108   0.727   6.990 -0.1890  0.1071 -0.0320
  156MOL   H26447074   1.753   0.886   7.325  1.4859  1.7272  1.5547
  156MOL   H26547075   1.840   0.820   7.458 -1.9156 -0.4849  2.4274
  156MOL   H26647076   1.783   0.587   7.356  1.6080 -0.0012 -0.9287
  156MOL   H26747077   2.025   0.923   7.021  3.0843  0.8090 -0.7509
  156MOL   H26847078   2.111   0.852   7.163  0.0219 -1.7129  0.7801
  156MOL   H26947079   2.205   0.756   6.950  0.4190 -2.9643 -0.9508
  156MOL   H27047080   2.039   0.699   6.909 -1.3862  1.2033  0.5874
  156MOL   H27147081   2.127   0.631   7.039  3.7952  1.7734  1.8187
  156MOL   C27247082   1.657   0.672   7.196  0.1471  0.3039  0.0038
  156MOL   C27347083   1.559   0.552   7.208 -0.1748 -0.3405 -0.2353
  156MOL   C27447084   1.625   0.417   7.180  0.1935  0.0970 -0.2930
  156MOL   O27547085   1.594   0.357   7.076  0.2943  0.0043 -0.0948
  156MOL   O27647086   1.702   0.381   7.278 -0.5563 -0.6012 -0.4178
  156MOL   C27747087   1.722   0.244   7.308  0.8038  0.1484 -0.0381
  156MOL   C27847088   1.807   0.238   7.436  0.3502 -0.0164 -0.0821
  156MOL   H27947089   1.591   0.759   7.199 -1.3511 -0.8126  0.1438
  156MOL   H28047090   1.692   0.667   7.093  1.1374 -0.1989  0.3513
  156MOL   H28147091   1.519   0.549   7.309  1.8407 -0.4984  0.5804
  156MOL   H28247092   1.627   0.195   7.329 -0.6732  2.5314 -1.0403
  156MOL   H28347093   1.769   0.194   7.224 -0.6825  2.7314 -2.4829
  156MOL   H28447094   1.755   0.278   7.523  1.2005  1.4427 -0.2165
  156MOL   H28547095   1.899   0.290   7.411  2.0610 -2.1779  1.5049
  156MOL   H28647096   1.848   0.139   7.453 -2.5932 -1.0802  1.0963
  156MOL   C28747097   1.427   0.575   7.129  0.2150 -0.1361  0.2901
  156MOL   C28847098   1.314   0.482   7.135 -0.0750 -0.1520  0.2861
  156MOL   C28947099   1.252   0.461   7.268 -0.6194 -0.3846 -0.0924
  156MOL   O29047100   1.152   0.527   7.306  0.1358 -0.0249  0.1704
  156MOL   O29147101   1.313   0.361   7.340  0.6062  1.2676  0.3663
  156MOL   C29247102   1.287   0.347   7.476 -0.2367 -0.0726 -0.2101
  156MOL   C29347103   1.394   0.261   7.532 -0.6252  0.1939 -1.0792
  156MOL   H29447104   1.392   0.673   7.162  0.1791 -0.0352 -0.0416
  156MOL   H29547105   1.459   0.587   7.025  0.8455  1.9208  0.6972
  156MOL   H29647106   1.246   0.515   7.057 -2.7204 -1.4406  1.9757
  156MOL   H29747107   1.281   0.445   7.525  2.7481 -1.0194  2.2008
  156MOL   H29847108   1.186   0.311   7.492 -0.2389  0.2378  0.5364
  156MOL   H29947109   1.400   0.163   7.485  3.9299 -0.0251 -0.2415
  156MOL   H30047110   1.381   0.239   7.638 -1.0859  0.1532 -1.1415
  156MOL   H30147111   1.488   0.315   7.521 -0.1928 -0.2402  0.4146
  156MOL   H30247112   1.349   0.387   7.097  1.4966 -0.0168  1.3501
  157MOL     C147113   6.315   0.766   6.860 -0.0684  0.3144  0.5013
  157MOL     C247114   6.387   0.746   6.995  0.1812  0.2384  0.6626
  157MOL     C347115   6.311   0.659   7.095  0.4208  0.9226  0.3263
  157MOL     O447116   6.188   0.665   7.107  0.2977  0.2872 -0.2341
  157MOL     O547117   6.395   0.592   7.175  0.3671  0.0288  0.4449
  157MOL     C647118   6.345   0.506   7.277 -0.5752 -0.1222  0.0059
  157MOL     C747119   6.409   0.367   7.245  0.5243  0.1443 -0.1550
  157MOL     H847120   6.243   0.848   6.863  0.7002  0.9776  1.2313
  157MOL     H947121   6.258   0.680   6.826 -0.0813  1.5741 -2.8662
  157MOL    H1047122   6.482   0.699   6.969 -1.6608 -3.7616  0.7694
  157MOL    H1147123   6.381   0.550   7.370 -0.7139  1.6079 -0.7255
  157MOL    H1247124   6.236   0.506   7.279 -0.5966  0.3010 -0.6611
  157MOL    H1347125   6.359   0.328   7.157 -1.4827 -0.8843  1.4126
  157MOL    H1447126   6.377   0.299   7.324  1.2732 -0.7864 -0.6484
  157MOL    H1547127   6.517   0.360   7.231  0.6456 -0.1010  0.8985
  157MOL    H1647128   6.388   0.787   6.782 -0.4757  0.9593  0.2922
  157MOL    C1747129   6.431   0.872   7.056 -0.4148 -0.2203 -0.4216
  157MOL    C1847130   6.510   0.967   6.959  0.4582 -0.1361 -0.0595
  157MOL    C1947131   6.663   0.932   6.958  0.8477 -0.4762 -0.2509
  157MOL    O2047132   6.748   0.980   7.034 -0.0338 -0.3988  0.4290
  157MOL    O2147133   6.689   0.832   6.882 -0.4623  0.7172 -0.0715
  157MOL    C2247134   6.823   0.777   6.879 -0.2954 -0.1475 -0.0530
  157MOL    C2347135   6.818   0.629   6.838 -0.2905 -0.1163 -0.3736
  157MOL    H2447136   6.348   0.926   7.102 -0.7603 -0.5093 -0.7072
  157MOL    H2547137   6.505   0.867   7.136  0.4856 -0.5124 -1.2751
  157MOL    H2647138   6.474   0.957   6.857  2.9891  1.8540 -1.1986
  157MOL    H2747139   6.883   0.833   6.808 -1.9498 -1.4731 -2.5777
  157MOL    H2847140   6.856   0.772   6.983  2.3647  1.5460 -0.7571
  157MOL    H2947141   6.755   0.569   6.903 -1.1906  1.9643  0.7120
  157MOL    H3047142   6.916   0.584   6.829 -0.1405  0.3995 -1.4971
  157MOL    H3147143   6.783   0.618   6.735  3.8601 -0.2816 -1.8676
  157MOL    C3247144   6.467   1.116   6.997 -0.4527  1.0877  0.7633
  157MOL    C3347145   6.511   1.165   7.134 -0.1349 -0.6781  0.8026
  157MOL    C3447146   6.393   1.158   7.237 -0.3721 -0.0512  0.5786
  157MOL    O3547147   6.395   1.080   7.334 -0.2887  0.1391 -0.1840
  157MOL    O3647148   6.302   1.243   7.216 -0.2925  0.3723  0.2618
  157MOL    C3747149   6.206   1.264   7.307  0.3984 -0.6621  0.1191
  157MOL    C3847150   6.092   1.337   7.241  0.1485  0.4329 -0.2042
  157MOL    H3947151   6.509   1.184   6.923  1.3623  1.2769  1.9262
  157MOL    H4047152   6.359   1.121   6.984 -0.1435  2.3912 -1.5802
  157MOL    H4147153   6.600   1.111   7.165  1.4058  1.1517 -0.3166
  157MOL    H4247154   6.168   1.170   7.347 -0.0117 -0.8528 -0.7001
  157MOL    H4347155   6.240   1.314   7.398  0.0722 -1.5165  0.7157
  157MOL    H4447156   6.069   1.280   7.150  2.0994  1.9054 -1.6808
  157MOL    H4547157   6.125   1.438   7.220  1.0289  0.5224  1.5832
  157MOL    H4647158   6.011   1.346   7.313  0.4760 -1.7703  0.5011
  157MOL    C4747159   6.567   1.305   7.119 -0.2120 -0.4368 -0.1134
  157MOL    C4847160   6.705   1.331   7.062  0.0794 -0.5111  0.0032
  157MOL    C4947161   6.826   1.310   7.167  0.1784 -0.0290 -0.3687
  157MOL    O5047162   6.813   1.304   7.287  0.2262 -0.0272  0.1293
  157MOL    O5147163   6.951   1.301   7.111  0.3012  0.3088  0.5168
  157MOL    C5247164   7.068   1.286   7.187  0.8073  0.6185  0.0789
  157MOL    C5347165   7.159   1.204   7.095 -0.0366  0.2021 -0.6352
  157MOL    H5447166   6.492   1.361   7.063  0.0504 -0.7305 -0.7493
  157MOL    H5547167   6.570   1.340   7.223  1.1861 -2.3245  0.5140
  157MOL    H5647168   6.723   1.253   6.987 -1.1603 -1.2015  0.4149
  157MOL    H5747169   7.111   1.380   7.220  0.9087  0.8768 -0.7864
  157MOL    H5847170   7.051   1.226   7.276 -0.8431  2.7796  1.2808
  157MOL    H5947171   7.188   1.254   7.003  0.0106 -0.4629 -0.9883
  157MOL    H6047172   7.118   1.110   7.056 -0.0188 -1.2893  2.7799
  157MOL    H6147173   7.248   1.181   7.154 -0.0016  1.5485 -0.1588
  157MOL    C6247174   6.712   1.467   6.988  0.4281 -0.1411  1.0368
  157MOL    C6347175   6.661   1.491   6.845 -0.1926 -0.5322  0.1399
  157MOL    C6447176   6.702   1.384   6.748  0.8612  0.0608 -0.0043
  157MOL    O6547177   6.619   1.321   6.678 -0.2431 -0.3010 -0.2839
  157MOL    O6647178   6.832   1.370   6.738  0.1663  0.0979 -0.0991
  157MOL    C6747179   6.897   1.267   6.657  0.5428  0.7357  0.0801
  157MOL    C6847180   6.927   1.155   6.754  0.0669 -0.1420 -0.4516
  157MOL    H6947181   6.656   1.537   7.048 -1.2438  0.2160 -0.8780
  157MOL    H7047182   6.810   1.514   6.993  0.1194  0.4926  1.0967
  157MOL    H7147183   6.553   1.478   6.857 -0.2195  0.3641  0.9509
  157MOL    H7247184   6.820   1.230   6.590  0.6311  1.7977 -0.6249
  157MOL    H7347185   6.985   1.309   6.609  1.6279  2.0869  3.1154
  157MOL    H7447186   6.972   1.061   6.720 -0.9562  0.0248 -2.3756
  157MOL    H7547187   6.832   1.125   6.799 -0.1783  0.6690 -0.4270
  157MOL    H7647188   6.998   1.190   6.828  1.9347 -2.0414 -1.2834
  157MOL    C7747189   6.699   1.642   6.794 -0.1428  0.4461  0.1859
  157MOL    C7847190   6.604   1.701   6.697  0.0783 -0.5219 -0.1820
  157MOL    C7947191   6.635   1.649   6.558  0.1791  0.4258  0.0300
  157MOL    O8047192   6.549   1.601   6.489 -0.0676 -0.5142 -0.2181
  157MOL    O8147193   6.759   1.676   6.520  0.0418  0.6305 -0.1905
  157MOL    C8247194   6.791   1.689   6.384 -0.6656  0.5089  0.5240
  157MOL    C8347195   6.866   1.562   6.338 -0.8275  0.2233 -0.0974
  157MOL    H8447196   6.703   1.700   6.886 -4.1993 -2.5678  2.4273
  157MOL    H8547197   6.799   1.641   6.752 -0.0860  2.3710  0.2400
  157MOL    H8647198   6.506   1.681   6.740 -0.2389  3.1699  0.9879
  157MOL    H8747199   6.709   1.727   6.323  0.1321  1.2433 -0.1137
  157MOL    H8847200   6.870   1.765   6.381 -0.5057  0.2937 -1.5833
  157MOL    H8947201   6.886   1.560   6.231  0.3785  0.9846  0.1125
  157MOL    H9047202   6.813   1.469   6.359 -0.3227 -0.3821 -1.3872
  157MOL    H9147203   6.960   1.551   6.390  0.8913 -0.1761 -3.1438
  157MOL    C9247204   6.604   1.859   6.706 -0.4259 -0.5266 -1.0508
  157MOL    C9347205   6.486   1.926   6.639 -0.9213  0.1800 -0.6032
  157MOL    C9447206   6.501   1.949   6.487 -0.6594  0.5289  0.3967
  157MOL    O9547207   6.611   1.963   6.437 -0.1473 -0.3790  0.2886
  157MOL    O9647208   6.390   1.949   6.420 -0.5553  0.3012 -0.3198
  157MOL    C9747209   6.402   1.940   6.274  0.1645 -0.7227 -0.6918
  157MOL    C9847210   6.402   2.079   6.221 -0.2962  0.4317 -0.0888
  157MOL    H9947211   6.608   1.895   6.808  3.3886 -0.7821 -1.0473
  157MOL   H10047212   6.697   1.895   6.660 -0.8587 -0.0039 -1.5310
  157MOL   H10147213   6.404   1.854   6.650  0.2058 -1.0015  0.1522
  157MOL   H10247214   6.486   1.878   6.243 -0.0153 -1.8841  1.0859
  157MOL   H10347215   6.315   1.886   6.234 -1.3461  0.8090  0.4623
  157MOL   H10447216   6.319   2.138   6.262  0.4671  2.4169 -1.3039
  157MOL   H10547217   6.396   2.083   6.112 -0.1366  2.0087 -0.0571
  157MOL   H10647218   6.491   2.142   6.222 -1.1376  1.6236  0.8174
  157MOL   C10747219   6.447   2.060   6.711 -0.0722 -0.1546  1.5371
  157MOL   C10847220   6.299   2.098   6.685 -0.1706 -0.0203 -0.8476
  157MOL   C10947221   6.273   2.250   6.699  0.1522 -0.3119 -0.0318
  157MOL   O11047222   6.203   2.311   6.617 -0.1365 -0.4047 -0.3967
  157MOL   O11147223   6.330   2.306   6.807 -0.8193  0.4469  0.3301
  157MOL   C11247224   6.340   2.449   6.816  0.0308  0.3483 -0.3664
  157MOL   C11347225   6.455   2.488   6.718  0.5191 -0.7618  0.0360
  157MOL   H11447226   6.448   2.059   6.820 -3.3428 -1.3638  1.6291
  157MOL   H11547227   6.504   2.140   6.664  0.7885 -1.9701 -0.6012
  157MOL   H11647228   6.271   2.079   6.581 -1.6182 -0.4452 -0.3897
  157MOL   H11747229   6.246   2.504   6.805 -0.3124 -0.2332 -0.3277
  157MOL   H11847230   6.373   2.468   6.918 -2.3999  1.6566  0.2146
  157MOL   H11947231   6.542   2.423   6.720  1.2429  0.1562 -0.8812
  157MOL   H12047232   6.491   2.587   6.745 -0.8781  0.2692 -1.7636
  157MOL   H12147233   6.424   2.497   6.613 -0.4732  1.4728  0.4979
  157MOL   C12247234   6.191   2.012   6.758 -0.0414  0.2829 -0.1933
  157MOL   C12347235   6.171   2.046   6.907  0.0399  0.3216  0.3860
  157MOL   C12447236   6.175   1.923   6.989 -0.1795 -0.1941 -0.1434
  157MOL   O12547237   6.079   1.883   7.055 -0.0524  0.5301 -0.1495
  157MOL   O12647238   6.292   1.872   6.980 -0.2009 -0.0664 -0.3653
  157MOL   C12747239   6.323   1.760   7.054 -0.5680  0.0645  0.2149
  157MOL   C12847240   6.268   1.628   6.996  0.2768 -0.0998  0.1533
  157MOL   H12947241   6.100   2.042   6.706 -1.1320 -1.1894  0.7995
  157MOL   H13047242   6.215   1.907   6.743  1.2607  0.3012  1.5848
  157MOL   H13147243   6.258   2.106   6.936  0.4820 -0.5294  0.8530
  157MOL   H13247244   6.432   1.767   7.051 -0.3282 -3.3037  0.0769
  157MOL   H13347245   6.295   1.780   7.158  0.4425  1.6103  0.2114
  157MOL   H13447246   6.166   1.619   7.032  0.4969  1.0137  1.0801
  157MOL   H13547247   6.321   1.546   7.045  1.6391  0.9577  0.4666
  157MOL   H13647248   6.281   1.632   6.888 -1.5978 -0.1632 -0.0821
  157MOL   C13747249   6.042   2.131   6.931  0.9587  0.7078  0.0189
  157MOL   C13847250   6.031   2.192   7.071  0.7978 -0.5302  0.4252
  157MOL   C13947251   5.889   2.240   7.101 -0.8290 -0.5836  0.3950
  157MOL   O14047252   5.852   2.273   7.213 -0.1059 -0.1343 -0.1036
  157MOL   O14147253   5.811   2.245   6.993 -0.1983  0.6345  1.0566
  157MOL   C14247254   5.679   2.295   6.997 -0.0442 -0.2784 -0.1818
  157MOL   C14347255   5.674   2.447   6.983 -0.2951  0.2539  0.3611
  157MOL   H14447256   6.025   2.216   6.865 -4.4020  0.9940  1.5943
  157MOL   H14547257   5.957   2.065   6.915  2.2031 -1.1052  0.7112
  157MOL   H14647258   6.042   2.112   7.144 -0.3513  0.1032  1.2999
  157MOL   H14747259   5.617   2.234   6.931 -2.0603  1.0125  0.4895
  157MOL   H14847260   5.645   2.282   7.099  0.5475 -3.2758 -0.3361
  157MOL   H14947261   5.749   2.499   7.043 -1.5053 -0.6521  2.7232
  157MOL   H15047262   5.574   2.478   7.014 -1.1051 -1.2480 -0.7226
  157MOL   H15147263   5.705   2.458   6.879 -0.2195 -1.1648  0.2327
  157MOL   C15247264   6.121   2.316   7.104  0.2694 -0.2408 -0.1997
  157MOL   C15347265   6.198   2.294   7.244  0.1998  0.8920 -0.1074
  157MOL   C15447266   6.261   2.431   7.286  0.2721  0.3235 -0.3809
  157MOL   O15547267   6.306   2.509   7.201 -0.0928 -0.2627  0.2513
  157MOL   O15647268   6.262   2.444   7.415  0.4436  0.0648 -0.0929
  157MOL   C15747269   6.322   2.563   7.468  0.3396  0.2832  0.1214
  157MOL   C15847270   6.469   2.586   7.473 -0.7188 -0.6022 -0.3854
  157MOL   H15947271   6.192   2.331   7.023  1.4844  2.2107  1.2600
  157MOL   H16047272   6.068   2.411   7.095  1.9957  0.5679 -2.1475
  157MOL   H16147273   6.128   2.257   7.319  1.4057 -0.7342  0.2420
  157MOL   H16247274   6.278   2.642   7.407 -1.0791  0.2213  1.0303
  157MOL   H16347275   6.292   2.575   7.572 -0.0848 -0.6176  0.1033
  157MOL   H16447276   6.499   2.665   7.542 -2.2958 -1.7478  1.6576
  157MOL   H16547277   6.517   2.620   7.381 -0.4138  1.4867  0.5000
  157MOL   H16647278   6.518   2.504   7.525  0.4447  0.2345 -0.1578
  157MOL   C16747279   6.308   2.186   7.235  0.0519  0.3046 -0.2565
  157MOL   C16847280   6.381   2.145   7.368  0.3276  0.6473 -0.0188
  157MOL   C16947281   6.527   2.131   7.345 -0.4115  0.4621 -0.0712
  157MOL   O17047282   6.608   2.196   7.403 -0.0505 -0.1108 -0.2795
  157MOL   O17147283   6.557   2.023   7.261  0.9101  0.4942  0.0967
  157MOL   C17247284   6.692   1.980   7.241  0.4544 -0.2657  0.2353
  157MOL   C17347285   6.663   1.826   7.246  0.0881 -0.3333  0.3160
  157MOL   H17447286   6.243   2.112   7.187 -1.2400  1.2350  0.0231
  157MOL   H17547287   6.380   2.219   7.160 -0.8192 -0.8697 -1.6393
  157MOL   H17647288   6.366   2.214   7.452  1.0648 -0.5702  1.1308
  157MOL   H17747289   6.722   2.015   7.142  2.0152  1.1019  1.1659
  157MOL   H17847290   6.758   2.022   7.316 -0.4182  0.3469  0.6677
  157MOL   H17947291   6.611   1.798   7.338  0.4080  1.4231  1.0522
  157MOL   H18047292   6.757   1.770   7.246  0.2157 -0.1388  1.2760
  157MOL   H18147293   6.602   1.787   7.165  0.5579  1.3622 -0.8967
  157MOL   C18247294   6.323   2.012   7.419 -0.3746 -0.0295 -0.2586
  157MOL   C18347295   6.194   2.018   7.511 -0.5034  0.2297  0.3327
  157MOL   C18447296   6.227   2.093   7.642  0.0921 -0.2358  1.1545
  157MOL   O18547297   6.333   2.077   7.701 -0.1065 -0.3062  0.3123
  157MOL   O18647298   6.132   2.176   7.679 -0.2822 -0.4946 -0.3506
  157MOL   C18747299   6.156   2.271   7.782  0.4788 -0.2516 -0.4544
  157MOL   C18847300   6.026   2.305   7.865 -0.5973  0.7773  0.0428
  157MOL   H18947301   6.292   1.961   7.328  0.9618 -0.8425 -0.2718
  157MOL   H19047302   6.404   1.951   7.460 -1.7278 -0.7001  1.4425
  157MOL   H19147303   6.132   2.086   7.453 -1.5851  0.5122  1.7673
  157MOL   H19247304   6.228   2.230   7.853  0.1852  0.8517  0.4882
  157MOL   H19347305   6.196   2.359   7.732 -3.1314  1.2789 -0.7657
  157MOL   H19447306   6.049   2.351   0.052  0.9200  0.0942  0.0098
  157MOL   H19547307   5.980   2.209   7.886  1.0438 -0.5881 -2.3831
  157MOL   H19647308   5.961   2.375   7.811  1.1825 -0.9959 -4.6818
  157MOL   C19747309   6.119   1.880   7.531 -0.0875 -0.0991  0.2911
  157MOL   C19847310   6.215   1.759   7.575 -0.2024  0.1053  0.2980
  157MOL   C19947311   6.274   1.682   7.454 -0.4354  0.2597  0.2507
  157MOL   O20047312   6.205   1.653   7.355 -0.0630 -0.1497 -0.1853
  157MOL   O20147313   6.397   1.637   7.471  0.2093 -0.0747 -0.1884
  157MOL   C20247314   6.459   1.543   7.386 -0.1874  0.8341 -0.2169
  157MOL   C20347315   6.536   1.450   7.480 -0.1542  0.2818 -0.3951
  157MOL   H20447316   6.039   1.887   7.604  0.2966 -2.0442  0.9245
  157MOL   H20547317   6.073   1.838   7.441  0.0178  0.6271 -0.1080
  157MOL   H20647318   6.300   1.816   7.613 -0.9021  0.6235  1.0873
  157MOL   H20747319   6.387   1.480   7.333 -0.5430  0.4219  0.7593
  157MOL   H20847320   6.524   1.594   7.315  0.1224  1.0749  0.2439
  157MOL   H20947321   6.623   1.495   7.528  0.6255 -1.7336  0.1291
  157MOL   H21047322   6.584   1.372   7.421  1.6357  0.7234  0.4388
  157MOL   H21147323   6.467   1.406   7.553  1.3757 -1.5020  0.0036
  157MOL   C21247324   6.171   1.674   7.700  0.2855 -0.2542 -0.0318
  157MOL   C21347325   6.056   1.579   7.658 -0.1952 -0.2227  0.1912
  157MOL   C21447326   5.923   1.639   7.623  0.4362  0.2136  0.1585
  157MOL   O21547327   5.872   1.735   7.681  0.0748 -0.8184  0.1694
  157MOL   O21647328   5.869   1.577   7.512  0.2283 -0.0159  0.3939
  157MOL   C21747329   5.757   1.637   7.446 -0.6216  0.0363 -0.5800
  157MOL   C21847330   5.625   1.573   7.483  0.4961 -0.4939  0.0199
  157MOL   H21947331   6.261   1.624   7.737 -0.2414 -0.8312  0.4962
  157MOL   H22047332   6.150   1.749   7.775  2.8071  0.0622  0.4079
  157MOL   H22147333   6.082   1.520   7.570 -6.3711 -2.4081 -0.4217
  157MOL   H22247334   5.754   1.744   7.467  0.9376  0.1493 -0.8247
  157MOL   H22347335   5.766   1.629   7.338 -1.3000  0.1374 -0.6423
  157MOL   H22447336   5.537   1.617   7.436 -0.2286 -0.7874  1.0967
  157MOL   H22547337   5.604   1.578   7.589  1.0594  1.5565  0.0434
  157MOL   H22647338   5.610   1.467   7.461  1.1469 -0.6393  0.2796
  157MOL   C22747339   6.034   1.477   7.771 -0.5827 -0.4206  0.2945
  157MOL   C22847340   6.093   1.337   7.749 -0.4835 -0.8304 -1.0444
  157MOL   C22947341   6.001   1.258   7.663  0.7227  0.5092 -0.1102
  157MOL   O23047342   6.041   1.220   7.557  0.6046  0.2422 -0.1199
  157MOL   O23147343   5.878   1.225   7.718 -0.7629  0.0160  0.0672
  157MOL   C23247344   5.785   1.142   7.644  0.3633 -0.5991 -0.0840
  157MOL   C23347345   5.807   0.995   7.675 -0.3996 -0.4676  0.3530
  157MOL   H23447346   6.084   1.519   7.859 -1.3780 -1.2784  1.1677
  157MOL   H23547347   5.928   1.466   7.795 -0.9880 -0.8832 -1.6261
  157MOL   H23647348   6.190   1.342   7.700  0.2348 -0.4404  0.3947
  157MOL   H23747349   5.680   1.161   7.667  0.5407 -0.0014  0.2298
  157MOL   H23847350   5.794   1.156   7.536  1.3131  0.8444  0.1679
  157MOL   H23947351   5.730   0.940   7.622 -1.0223 -1.0479  1.8370
  157MOL   H24047352   5.804   0.971   7.781 -1.9606 -0.7446  0.2450
  157MOL   H24147353   5.905   0.957   7.644 -1.5689 -2.2851 -1.2449
  157MOL   C24247354   6.114   1.268   7.881 -0.2392 -0.4781  0.5732
  157MOL   C24347355   6.255   1.242   0.017  0.2361  0.4086  0.1931
  157MOL   C24447356   6.334   1.371   0.029 -0.7960  0.1854  0.3982
  157MOL   O24547357   6.409   1.409   7.844  0.9875 -0.3613 -0.7283
  157MOL   O24647358   6.326   1.423   0.155 -0.1135 -0.0037 -0.4252
  157MOL   C24747359   6.400   1.546   0.183 -0.8202 -0.1084 -0.4043
  157MOL   C24847360   6.303   1.667   0.172 -0.4653 -0.0001 -0.2280
  157MOL   H24947361   6.066   1.336   0.044  1.4460  2.5909 -1.0903
  157MOL   H25047362   6.064   1.172   7.891 -3.3449  1.0088  0.0759
  157MOL   H25147363   6.246   1.197   0.116  0.2897  3.0229  1.4265
  157MOL   H25247364   6.445   1.543   0.282 -1.2952  1.8373 -0.1140
  157MOL   H25347365   6.491   1.555   0.124 -0.3254 -0.3122  0.3102
  157MOL   H25447366   6.254   1.675   0.075 -1.6891 -0.5616  0.3203
  157MOL   H25547367   6.351   1.754   0.217 -0.8615  1.3354 -2.3516
  157MOL   H25647368   6.230   1.643   0.250 -3.8731 -0.1240 -3.2964
  157MOL   C25747369   6.326   1.145   7.823 -0.0307 -0.0445 -0.2979
  157MOL   C25847370   6.259   1.007   7.802 -0.2324  0.1659  0.3151
  157MOL   C25947371   6.214   0.945   0.033 -0.2019 -0.0938  0.7528
  157MOL   O26047372   6.096   0.927   0.057 -0.1096  0.1692  0.1019
  157MOL   O26147373   6.310   0.934   0.132  0.7079 -0.2722  0.3766
  157MOL   C26247374   6.272   0.919   0.270  0.6500  0.1073  1.1850
  157MOL   C26347375   6.376   0.983   0.362 -0.1945 -0.1326 -0.4200
  157MOL   H26447376   6.339   1.186   7.723 -1.7008  0.0566 -0.4898
  157MOL   H26547377   6.430   1.133   7.850 -0.7998 -1.3283  2.3018
  157MOL   H26647378   6.165   1.029   7.750  0.2023 -1.7385 -1.3542
  157MOL   H26747379   6.179   0.970   0.294  2.2336  4.4998 -1.4056
  157MOL   H26847380   6.255   0.812   0.286  0.0279 -0.4899 -2.8665
  157MOL   H26947381   6.474   0.938   0.352  0.6152  1.2659  1.0493
  157MOL   H27047382   6.356   0.970   0.468 -0.8475  1.1306 -0.3698
  157MOL   H27147383   6.388   1.089   0.341  0.0742  0.1817  1.2594
  157MOL   C27247384   6.352   0.905   7.726  0.3685  0.5021 -0.6118
  157MOL   C27347385   6.287   0.780   7.681 -0.4412  0.1041  0.0150
  157MOL   C27447386   6.374   0.658   7.703  0.0959 -0.0789 -0.1403
  157MOL   O27547387   6.348   0.579   7.793  0.6176  0.7605  0.7152
  157MOL   O27647388   6.468   0.645   7.602 -0.5988  0.1587  0.2671
  157MOL   C27747389   6.564   0.546   7.587  1.1674 -0.0981 -0.0843
  157MOL   C27847390   6.697   0.612   7.640 -0.4460 -0.1337 -0.0530
  157MOL   H27947391   6.376   0.961   7.636  0.6334  1.1933 -0.1133
  157MOL   H28047392   6.450   0.878   7.767  0.0392 -0.4398 -0.4227
  157MOL   H28147393   6.207   0.775   7.754  0.9283 -0.9282  1.4798
  157MOL   H28247394   6.549   0.451   7.638  0.8994  0.4549  0.8669
  157MOL   H28347395   6.590   0.526   7.483  0.5688  0.3867 -0.3290
  157MOL   H28447396   6.673   0.663   7.733 -2.5744 -0.8690 -0.1796
  157MOL   H28547397   6.736   0.695   7.580  0.4540 -1.1531 -0.9041
  157MOL   H28647398   6.780   0.545   7.661  0.1767  0.4441 -0.6016
  157MOL   C28747399   6.222   0.798   7.533  0.1954  0.2864  0.1747
  157MOL   C28847400   6.135   0.683   7.494 -0.0309 -0.1343 -0.3937
  157MOL   C28947401   6.017   0.668   7.588 -0.1585  0.7497  0.0562
  157MOL   O29047402   5.910   0.720   7.559 -0.0925 -0.4084 -0.5008
  157MOL   O29147403   6.055   0.596   7.696  0.1854  0.0194 -0.4514
  157MOL   C29247404   5.974   0.606   7.817  0.1223 -0.1688  0.0819
  157MOL   C29347405   6.054   0.567   0.029 -0.7569 -0.0618 -0.4084
  157MOL   H29447406   6.157   0.886   7.540  0.1064  0.0947  1.9408
  157MOL   H29547407   6.290   0.818   7.450 -0.7563  0.1376 -0.6580
  157MOL   H29647408   6.091   0.707   7.397  0.2635  2.0003 -0.0274
  157MOL   H29747409   5.930   0.704   7.838 -2.7827 -1.2844 -0.5707
  157MOL   H29847410   5.882   0.549   7.806 -1.5754  2.6388 -0.7743
  157MOL   H29947411   6.142   0.630   0.043 -2.1552  1.5775  1.3369
  157MOL   H30047412   6.087   0.463   0.022 -2.2818 -0.6484  0.8436
  157MOL   H30147413   6.005   0.582   0.125 -0.6745  1.3608 -0.5788
  157MOL   H30247414   6.186   0.587   7.489  2.2749  1.0307  0.1781
  158MOL     C147415   7.257   0.536   7.129  0.4921 -0.0225  0.1368
  158MOL     C247416   7.133   0.604   7.179  0.0045 -0.6007  0.2869
  158MOL     C347417   7.165   0.750   7.199  0.2049 -0.9103  0.3933
  158MOL     O447418   7.129   0.827   7.113 -0.1248 -0.5914  0.6198
  158MOL     O547419   7.242   0.784   7.313 -0.3691  0.3289  0.5261
  158MOL     C647420   7.270   0.922   7.339 -0.3475 -0.1024  0.4040
  158MOL     C747421   7.168   0.986   7.430  0.4810  0.4855 -0.4774
  158MOL     H847422   7.338   0.552   7.200  0.7927  1.7050 -0.5816
  158MOL     H947423   7.289   0.573   7.032  3.2198  1.0207  1.3756
  158MOL    H1047424   7.069   0.598   7.091  0.9913  0.1111 -0.5078
  158MOL    H1147425   7.370   0.918   7.384 -0.1302 -0.4079 -0.0981
  158MOL    H1247426   7.298   0.978   7.250 -0.1524 -1.8538 -0.6542
  158MOL    H1347427   7.079   1.010   7.372 -0.8666 -2.1439  0.4107
  158MOL    H1447428   7.201   1.083   7.468 -1.7750  1.4860 -0.9696
  158MOL    H1547429   7.134   0.925   7.515  0.6951  0.7380 -0.2079
  158MOL    H1647430   7.236   0.430   7.115  1.1152 -0.1423  0.0685
  158MOL    C1747431   7.081   0.539   7.303  0.7219  0.5236 -0.2025
  158MOL    C1847432   6.957   0.446   7.276 -0.2387 -0.1972 -0.8401
  158MOL    C1947433   6.832   0.524   7.235  0.3418 -0.0091 -0.2177
  158MOL    O2047434   6.770   0.485   7.140 -0.0058 -0.1462 -0.1618
  158MOL    O2147435   6.798   0.632   7.318 -0.1712  0.0237  0.0373
  158MOL    C2247436   6.703   0.723   7.269 -0.0155 -0.4111 -0.1390
  158MOL    C2347437   6.678   0.842   7.367  0.2167 -0.0817 -0.1781
  158MOL    H2447438   7.165   0.489   7.352  0.8077  2.1722  1.3728
  158MOL    H2547439   7.052   0.608   7.382  2.0812  2.9909 -1.7990
  158MOL    H2647440   6.981   0.388   7.187 -0.1823 -1.6763  0.1193
  158MOL    H2747441   6.749   0.774   7.184 -0.2867 -2.0624 -1.3189
  158MOL    H2847442   6.618   0.676   7.218  0.1563  0.8692 -1.6430
  158MOL    H2947443   6.614   0.806   7.447  0.1835 -1.5754 -0.8664
  158MOL    H3047444   6.614   0.914   7.316  1.3089  0.3955 -0.9245
  158MOL    H3147445   6.776   0.884   7.393 -0.6307  0.6579  1.8795
  158MOL    C3247446   6.922   0.350   7.385  0.1015 -0.1152  0.3569
  158MOL    C3347447   6.999   0.216   7.377 -0.4073  0.5595  0.8753
  158MOL    C3447448   6.939   0.120   7.268  0.9611 -0.1670  0.2823
  158MOL    O3547449   7.006   0.086   7.170  0.0648 -0.1267  0.0604
  158MOL    O3647450   6.805   0.089   7.290 -0.2187 -0.4176  0.0633
  158MOL    C3747451   6.733   7.902   7.215  0.2434 -0.2486  0.0480
  158MOL    C3847452   6.602   0.063   7.175 -0.2073  0.1541 -0.3098
  158MOL    H3947453   6.941   0.398   7.481 -0.1949 -3.0686  1.9520
  158MOL    H4047454   6.815   0.332   7.376  0.2178 -0.3923 -0.4589
  158MOL    H4147455   7.101   0.238   7.345 -0.0683 -0.9245  0.9015
  158MOL    H4247456   6.790   7.869   7.128  1.4521  1.5590  0.1378
  158MOL    H4347457   6.715   7.812   7.275 -1.9397 -0.0833 -0.3264
  158MOL    H4447458   6.522   7.899   7.156 -0.3631 -0.5173  2.5487
  158MOL    H4547459   6.621   0.126   7.089  0.3183 -0.6807 -0.8103
  158MOL    H4647460   6.570   0.126   7.258  1.5066 -2.4723  2.4760
  158MOL    C4747461   7.011   0.135   7.512 -0.1194 -0.6297 -0.6208
  158MOL    C4847462   7.149   0.169   7.588 -0.7325  0.0534  0.6936
  158MOL    C4947463   7.268   0.075   7.539  0.7098 -0.4378  0.3912
  158MOL    O5047464   7.329   0.110   7.434  0.1962  0.2012 -0.2138
  158MOL    O5147465   7.288   7.878   7.612  0.5025 -0.2741  0.6863
  158MOL    C5247466   7.374   7.782   7.557  0.0404 -0.2372 -0.1496
  158MOL    C5347467   7.385   7.653   7.648  0.5416  0.2763  0.6381
  158MOL    H5447468   6.921   0.159   7.568  0.8108  0.6021  0.4103
  158MOL    H5547469   7.013   0.028   7.495 -2.0656 -0.7130 -0.3717
  158MOL    H5647470   7.186   0.266   7.556 -2.2111 -0.0810 -1.5695
  158MOL    H5747471   7.348   7.754   7.455  0.7183 -0.9792 -0.1252
  158MOL    H5847472   7.470   7.833   7.545 -0.0179  0.2679  1.4530
  158MOL    H5947473   7.408   7.694   7.747 -2.7864 -0.4764  1.8076
  158MOL    H6047474   7.462   7.586   7.611  0.0676 -0.8578  1.6772
  158MOL    H6147475   7.288   7.605   7.659 -0.0598  0.9054 -1.7032
  158MOL    C6247476   7.137   0.181   7.742 -0.0862 -0.1455  0.2049
  158MOL    C6347477   7.067   0.305   7.797 -0.1998  1.1819  0.6265
  158MOL    C6447478   7.132   0.430   7.742 -0.0651  0.2755  0.0033
  158MOL    O6547479   7.079   0.503   7.656 -0.0469  0.7829  0.0879
  158MOL    O6647480   7.246   0.458   7.797  0.1534  0.0326 -0.5367
  158MOL    C6747481   7.330   0.562   7.744  0.2807  0.2571 -0.1250
  158MOL    C6847482   7.453   0.558   7.833  0.3699  0.2312 -0.6679
  158MOL    H6947483   7.075   0.096   7.766 -1.7870  0.8689 -0.4941
  158MOL    H7047484   7.237   0.175   7.786  0.7675 -0.1135 -1.6299
  158MOL    H7147485   6.964   0.298   7.763  0.4983 -1.2439 -1.0957
  158MOL    H7247486   7.351   0.549   7.638 -0.8676  0.4423 -0.3746
  158MOL    H7347487   7.279   0.658   7.752 -0.0942  0.1036 -0.6606
  158MOL    H7447488   7.515   0.474   7.803 -2.9800 -2.1863 -1.2269
  158MOL    H7547489   7.431   0.556   0.032 -0.4400  0.0572 -0.8271
  158MOL    H7647490   7.507   0.652   7.826 -1.6194  1.6291  1.9176
  158MOL    C7747491   7.053   0.303   0.043  0.1547 -0.2435 -0.7915
  158MOL    C7847492   6.962   0.411   0.112  0.0871 -0.0603  0.2027
  158MOL    C7947493   7.032   0.538   0.157 -0.1534  0.3128 -0.0100
  158MOL    O8047494   7.020   0.646   0.107  0.6838 -0.1699 -0.0707
  158MOL    O8147495   7.121   0.516   0.261 -0.7519  0.7009  0.2709
  158MOL    C8247496   7.194   0.632   0.310  0.7124  0.1603 -0.1570
  158MOL    C8347497   7.263   0.591   0.436 -0.2547 -0.1140 -0.8495
  158MOL    H8447498   7.028   0.200   0.071 -0.0880 -0.3017 -1.2247
  158MOL    H8547499   7.152   0.305   0.089  0.1323 -0.1975 -0.7453
  158MOL    H8647500   6.885   0.447   0.043  1.6838  1.4970 -0.8116
  158MOL    H8747501   7.274   0.638   0.236  2.2391 -0.5720  1.3927
  158MOL    H8847502   7.132   0.722   0.307  1.1286  0.5240  1.3900
  158MOL    H8947503   7.324   0.501   0.426 -2.6417 -1.8285 -0.6212
  158MOL    H9047504   7.185   0.572   0.510 -0.4224 -3.3487 -1.7665
  158MOL    H9147505   7.330   0.669   0.472 -1.8277  1.3381 -1.0425
  158MOL    C9247506   6.874   0.344   0.227 -0.5510 -0.0902  0.2038
  158MOL    C9347507   6.748   0.267   0.179  0.2001  0.5218  0.2207
  158MOL    C9447508   6.644   0.363   0.112  0.1558  0.2039  0.9030
  158MOL    O9547509   6.634   0.381   7.895 -0.0776 -0.4681  0.3424
  158MOL    O9647510   6.566   0.417   0.198 -0.3363  0.2883  0.3529
  158MOL    C9747511   6.447   0.487   0.169  1.0233 -0.2007  0.3249
  158MOL    C9847512   6.379   0.547   0.291  0.2257  0.1300 -0.2981
  158MOL    H9947513   6.933   0.274   0.286 -1.3022  0.3123  1.4476
  158MOL   H10047514   6.838   0.423   0.292  0.4115  1.5348 -1.1812
  158MOL   H10147515   6.776   0.195   0.102  0.4877  0.8761 -0.0105
  158MOL   H10247516   6.480   0.567   0.103  1.4145 -1.9632 -1.6794
  158MOL   H10347517   6.387   0.425   0.103  2.0320 -0.3222 -0.4757
  158MOL   H10447518   6.448   0.613   0.343  1.3885 -1.2635 -0.0328
  158MOL   H10547519   6.352   0.465   0.357 -0.2478  0.4813 -0.0501
  158MOL   H10647520   6.289   0.591   0.248 -0.0999 -1.9961 -1.8945
  158MOL   C10747521   6.678   0.184   0.296 -0.7651 -0.6501 -0.3667
  158MOL   C10847522   6.552   0.097   0.278  0.6227 -0.4989  0.6540
  158MOL   C10947523   6.474   0.089   0.417 -0.1537 -0.0875  0.5855
  158MOL   O11047524   6.378   0.158   0.457 -0.3541  0.5717 -0.5981
  158MOL   O11147525   6.528   0.000   0.496  0.5670  0.1109  0.4025
  158MOL   C11247526   6.470   7.854   0.615 -0.5118  0.3805 -0.2045
  158MOL   C11347527   6.574   7.855   0.724  0.4601  0.3755 -0.4074
  158MOL   H11447528   6.752   0.115   0.339  1.2666  2.2031  0.8796
  158MOL   H11547529   6.667   0.254   0.379 -0.9233 -1.0953 -0.0118
  158MOL   H11647530   6.476   0.148   0.219 -0.1361 -1.9908  0.3173
  158MOL   H11747531   6.393   0.018   0.643 -1.0508  0.1504 -1.0474
  158MOL   H11847532   6.423   7.757   0.595  1.4238 -0.3857 -1.1697
  158MOL   H11947533   6.656   7.788   0.696  1.4744  0.8045  1.4329
  158MOL   H12047534   6.527   7.816   0.814  0.8321 -1.8460 -1.1232
  158MOL   H12147535   6.601   0.050   0.745 -0.3852  0.5637 -0.2225
  158MOL   C12247536   6.584   7.878   0.203 -0.1223  0.2551  0.0818
  158MOL   C12347537   6.473   7.768   0.176 -0.1820  0.2244  0.7321
  158MOL   C12447538   6.492   7.653   0.273 -0.1592  0.0672 -0.0961
  158MOL   O12547539   6.411   7.640   0.365  0.4202  0.5238 -0.0757
  158MOL   O12647540   6.586   7.561   0.241  0.0728  0.5620 -0.0757
  158MOL   C12747541   6.603   7.440   0.315  0.2018  0.3096 -0.7256
  158MOL   C12847542   6.751   7.430   0.363  0.0391 -0.4279 -0.1087
  158MOL   H12947543   6.624   0.002   0.107  1.1868 -1.5832 -0.0364
  158MOL   H13047544   6.675   7.830   0.240  2.3320  2.4591 -2.8191
  158MOL   H13147545   6.384   7.826   0.199 -1.0649  0.6121 -3.3177
  158MOL   H13247546   6.530   7.443   0.396  1.7442 -4.1569  0.9916
  158MOL   H13347547   6.579   7.351   0.257  1.4773  0.2467 -1.1756
  158MOL   H13447548   6.836   7.447   0.296 -0.5854 -1.6123 -1.2362
  158MOL   H13547549   6.772   7.331   0.402  2.3188 -0.4265 -1.2319
  158MOL   H13647550   6.769   7.507   0.438 -1.9078 -1.6406  1.6667
  158MOL   C13747551   6.482   7.713   0.024 -0.9979 -0.7414 -0.1650
  158MOL   C13847552   6.390   7.588   7.893  0.2543  0.3092  0.2558
  158MOL   C13947553   6.467   7.516   7.785  0.4831  0.4923  0.5601
  158MOL   O14047554   6.540   7.570   7.710 -0.0297  0.0130  0.0929
  158MOL   O14147555   6.425   7.400   7.770 -0.0240  0.5378  0.2550
  158MOL   C14247556   6.426   7.325   7.649  0.0200 -0.1920 -0.5304
  158MOL   C14347557   6.540   7.218   7.657  0.0403 -0.3394 -0.2599
  158MOL   H14447558   6.459   7.790   7.858 -0.8047 -0.9213 -0.4099
  158MOL   H14547559   6.588   7.691   0.008 -0.2008  2.9626 -0.5929
  158MOL   H14647560   6.391   7.527   0.075  0.4170  0.6211  0.4653
  158MOL   H14747561   6.330   7.274   7.653 -0.5281  1.0110  3.1372
  158MOL   H14847562   6.424   7.378   7.554 -0.5440  3.2826  1.3462
  158MOL   H14947563   6.640   7.257   7.638  0.9756 -2.9048 -0.7522
  158MOL   H15047564   6.516   7.129   7.598 -1.3505  0.2779 -0.6363
  158MOL   H15147565   6.565   7.187   7.758  1.4968 -0.0420 -0.5221
  158MOL   C15247566   6.250   7.625   7.852  0.3409 -0.5343 -0.3733
  158MOL   C15347567   6.150   7.706   0.038  0.4476  0.3865  0.3205
  158MOL   C15447568   6.122   7.620   0.160 -0.3271  0.0579  0.2851
  158MOL   O15547569   6.120   7.499   0.139  0.2842  0.0076 -0.2891
  158MOL   O15647570   6.115   7.688   0.278  0.3859  0.5983 -0.6865
  158MOL   C15747571   6.098   7.601   0.391 -0.4955 -0.6203 -0.0449
  158MOL   C15847572   6.091   7.694   0.515  0.7636 -0.4651  1.0112
  158MOL   H15947573   6.273   7.683   7.763  1.5118 -2.7354 -1.5267
  158MOL   H16047574   6.206   7.533   7.815 -0.1346 -0.5101  0.1182
  158MOL   H16147575   6.206   7.795   0.067 -0.8893  0.9103  1.3875
  158MOL   H16247576   6.008   7.541   0.382 -1.3367  0.7565 -0.9661
  158MOL   H16347577   6.188   7.539   0.391 -1.9959 -2.9007 -2.5884
  158MOL   H16447578   5.997   7.747   0.527  1.0932  0.4382 -0.2712
  158MOL   H16547579   6.178   7.757   0.538 -0.1497  1.1566  0.1037
  158MOL   H16647580   6.080   7.620   0.595 -2.2443 -0.8715  0.2554
  158MOL   C16747581   6.016   7.751   7.877 -0.8344 -0.0835 -0.3338
  158MOL   C16847582   6.023   7.786   7.726 -0.4039  0.6217  0.3063
  158MOL   C16947583   6.119   7.894   7.686 -0.0509  0.6212  0.2121
  158MOL   O17047584   6.159   7.904   7.570 -0.6407 -0.1295  0.3153
  158MOL   O17147585   6.152   0.070   7.781 -0.2600  0.3946  0.7256
  158MOL   C17247586   6.213   0.191   7.742 -0.3196 -0.1183  0.2649
  158MOL   C17347587   6.310   0.233   7.853  0.5262 -0.5452 -0.0365
  158MOL   H17447588   5.949   7.666   7.895 -0.3947 -0.4084 -0.2359
  158MOL   H17547589   5.995   7.839   0.030 -1.5852 -0.9231  0.6389
  158MOL   H17647590   6.060   7.695   7.678 -1.2240 -0.8427  2.3944
  158MOL   H17747591   6.266   0.185   7.647  0.1095  2.2018  0.3349
  158MOL   H17847592   6.137   0.268   7.727 -1.0499 -1.1836 -1.6077
  158MOL   H17947593   6.374   0.316   7.823 -1.6038  1.8519  1.7893
  158MOL   H18047594   6.370   0.151   7.893  0.8984  0.5543  1.6915
  158MOL   H18147595   6.258   0.269   0.033 -2.0615 -0.9323 -1.3383
  158MOL   C18247596   5.888   7.813   7.661 -0.4836 -0.0796  0.2428
  158MOL   C18347597   5.872   7.811   7.507 -0.6302  0.0573 -0.3176
  158MOL   C18447598   5.730   7.844   7.463 -0.2688 -0.3101  0.0064
  158MOL   O18547599   5.627   7.827   7.530  0.2616  0.0869 -0.2023
  158MOL   O18647600   5.734   7.897   7.343  0.7541  0.4140  0.0328
  158MOL   C18747601   5.616   7.906   7.259  0.2399  0.8063 -0.3302
  158MOL   C18847602   5.643   0.002   7.107  0.1686  0.6526 -0.5894
  158MOL   H18947603   5.815   7.746   7.706 -0.7053  0.1222  0.1869
  158MOL   H19047604   5.862   0.007   7.691 -0.6242 -0.2223  0.6119
  158MOL   H19147605   5.933   7.895   7.473 -1.8734  0.1690 -2.3257
  158MOL   H19247606   5.545   7.825   7.276  0.8666  0.7004  1.9913
  158MOL   H19347607   5.560   0.086   7.289 -1.5591  0.2440 -1.8806
  158MOL   H19447608   5.684   7.814   7.077 -1.5693  0.7760 -3.5743
  158MOL   H19547609   5.695   0.096   7.088 -2.2163  1.8119 -1.6410
  158MOL   H19647610   5.541   0.013   7.072 -0.4613 -0.0394  0.9858
  158MOL   C19747611   5.927   7.686   7.442  0.1094  1.0457  0.1954
  158MOL   C19847612   5.835   7.561   7.451  0.5849  0.5843  0.8323
  158MOL   C19947613   5.822   7.476   7.578 -0.2509 -0.6505  0.5418
  158MOL   O20047614   5.712   7.459   7.629 -0.5945  0.1263  0.6539
  158MOL   O20147615   5.941   7.433   7.633  0.1812 -0.0127 -0.4958
  158MOL   C20247616   5.942   7.350   7.747 -0.3021  0.4754 -0.9269
  158MOL   C20347617   5.935   7.199   7.708  0.5120 -0.3242  0.3810
  158MOL   H20447618   5.934   7.708   7.335 -2.0325 -0.5582 -0.3141
  158MOL   H20547619   6.025   7.669   7.484 -0.3508 -1.2500  0.3790
  158MOL   H20647620   5.733   7.597   7.437  1.4346  2.7916  0.0825
  158MOL   H20747621   6.037   7.358   7.800  0.3513 -2.2200 -1.6199
  158MOL   H20847622   5.874   7.371   7.829  0.5785 -0.0830 -0.0381
  158MOL   H20947623   5.915   7.130   7.789  0.5388 -0.0621  0.6112
  158MOL   H21047624   6.033   7.166   7.671  0.7999 -1.1125  1.8497
  158MOL   H21147625   5.859   7.179   7.633 -0.0302  3.6034 -0.2198
  158MOL   C21247626   5.861   7.474   7.324  0.5026  0.2738 -0.4756
  158MOL   C21347627   5.958   7.351   7.314 -0.3241  0.6918 -0.7422
  158MOL   C21447628   6.101   7.399   7.342 -0.3877 -0.1311 -0.7057
  158MOL   O21547629   6.172   7.340   7.430  0.5199 -0.5833  0.4118
  158MOL   O21647630   6.145   7.503   7.267  0.2927 -0.4864 -0.0821
  158MOL   C21747631   6.269   7.562   7.297 -0.1055  0.3109 -0.7050
  158MOL   C21847632   6.315   7.636   7.169 -0.1562 -0.2606  0.6492
  158MOL   H21947633   5.765   7.437   7.288  1.1349  0.6291 -2.6240
  158MOL   H22047634   5.873   7.542   7.239 -1.0441 -1.7733 -2.4042
  158MOL   H22147635   5.915   7.277   7.381  1.6883 -1.2268 -1.5189
  158MOL   H22247636   6.244   7.637   7.372 -1.7085 -1.2740  0.3953
  158MOL   H22347637   6.342   7.495   7.342  1.2118  2.4033  0.3876
  158MOL   H22447638   6.406   7.694   7.184  0.1397 -0.5806  0.1223
  158MOL   H22547639   6.244   7.707   7.129  0.4027 -0.9371 -1.6162
  158MOL   H22647640   6.331   7.563   7.089 -1.3716 -0.0427  0.2074
  158MOL   C22747641   5.961   7.285   7.165  0.2473 -0.2948 -0.2608
  158MOL   C22847642   5.836   7.198   7.138 -0.3339  0.0514  0.0925
  158MOL   C22947643   5.807   7.077   7.231 -0.4465 -0.9281  0.4470
  158MOL   O23047644   5.891   7.020   7.301 -0.0460 -0.4860  0.0721
  158MOL   O23147645   5.677   7.050   7.231  0.7626  0.1676  0.1373
  158MOL   C23247646   5.631   6.949   7.324  0.3179 -0.0555  0.5674
  158MOL   C23347647   5.590   7.016   7.463 -0.5998 -0.4867 -0.9127
  158MOL   H23447648   5.972   7.353   7.080 -0.5047  1.6966  1.1913
  158MOL   H23547649   6.052   7.226   7.168 -0.9262 -2.2659 -1.9364
  158MOL   H23647650   5.751   7.260   7.166  1.1450  2.1213  0.1633
  158MOL   H23747651   5.548   6.893   7.282  1.3652 -2.2007  1.2886
  158MOL   H23847652   5.706   6.876   7.353 -2.0417 -2.6915  0.2579
  158MOL   H23947653   5.516   7.096   7.460  0.9370  1.2015  2.8656
  158MOL   H24047654   5.682   7.054   7.509 -0.9444  0.3215 -0.8808
  158MOL   H24147655   5.548   6.934   7.521  0.5069 -0.5124 -0.1265
  158MOL   C24247656   5.819   7.169   6.986 -0.4967  0.6044 -0.7272
  158MOL   C24347657   5.924   7.071   6.925 -0.3877  0.0633 -0.2411
  158MOL   C24447658   6.022   7.145   6.835  0.3048  0.0238  0.0328
  158MOL   O24547659   5.997   7.168   6.715 -0.0042  0.0675  0.0578
  158MOL   O24647660   6.133   7.180   6.900 -0.2877 -0.0050  0.1927
  158MOL   C24747661   6.233   7.266   6.848  0.3147  0.9403  0.2166
  158MOL   C24847662   6.324   7.286   6.960 -0.2333 -0.4232  0.0359
  158MOL   H24947663   5.720   7.127   6.968  0.2367 -0.9076 -1.3379
  158MOL   H25047664   5.822   7.264   6.934 -0.6629  1.4992  0.8776
  158MOL   H25147665   5.977   7.031   7.011 -2.5093 -1.4765  0.3964
  158MOL   H25247666   6.281   7.225   6.760  0.4881 -0.3165  0.8831
  158MOL   H25347667   6.188   7.363   6.827 -1.3042  0.1367 -0.0858
  158MOL   H25447668   6.272   7.335   7.043 -2.0392 -1.4965 -0.4439
  158MOL   H25547669   6.410   7.345   6.927 -0.4021  0.6487  1.4329
  158MOL   H25647670   6.353   7.186   6.990 -1.4365 -0.6460  0.4999
  158MOL   C25747671   5.851   6.945   6.865 -0.2025  0.0378 -0.0137
  158MOL   C25847672   5.923   6.812   6.881  0.0537  0.4567 -0.2200
  158MOL   C25947673   6.050   6.817   6.798  0.2311  0.2699 -0.1227
  158MOL   O26047674   6.162   6.812   6.851 -0.7076 -0.0183 -0.0047
  158MOL   O26147675   6.026   6.807   6.667 -0.0528 -0.5550  0.3552
  158MOL   C26247676   6.131   6.802   6.568  0.1768  0.1883  0.3316
  158MOL   C26347677   6.178   6.666   6.538 -0.3200  0.2316  0.3625
  158MOL   H26447678   5.756   6.930   6.916 -0.4692 -0.0250 -0.5266
  158MOL   H26547679   5.839   6.965   6.758  0.5899  2.7459  0.3631
  158MOL   H26647680   5.958   6.800   6.984 -3.0243  1.4856  1.0063
  158MOL   H26747681   6.074   6.845   6.486  0.3083  2.5942  1.4635
  158MOL   H26847682   6.216   6.868   6.585  0.0411  0.2438  0.8162
  158MOL   H26947683   6.100   6.606   6.492  2.7461 -1.4426 -2.8547
  158MOL   H27047684   6.221   6.613   6.623 -1.8558  1.8798  2.2228
  158MOL   H27147685   6.251   6.687   6.460 -2.9398 -1.5849 -2.6836
  158MOL   C27247686   5.839   6.690   6.852  0.4095 -0.1053 -0.0080
  158MOL   C27347687   5.751   6.647   6.971  0.4085 -0.1670 -0.4125
  158MOL   C27447688   5.826   6.624   7.103  0.3777 -0.0861 -0.1011
  158MOL   O27547689   5.807   6.696   7.202 -0.1431  0.3785 -0.2103
  158MOL   O27647690   5.924   6.541   7.089  0.5770 -0.3286 -0.0724
  158MOL   C27747691   6.003   6.512   7.207  0.0393 -0.0262  0.2456
  158MOL   C27847692   6.154   6.533   7.194  0.1259  0.4269  0.4279
  158MOL   H27947693   5.781   6.716   6.763  2.7626  0.1458 -1.4979
  158MOL   H28047694   5.894   6.604   6.815  0.4544 -0.3360  0.5913
  158MOL   H28147695   5.686   6.728   7.004 -0.2755 -0.0574 -1.9626
  158MOL   H28247696   5.971   6.563   7.297  1.5755 -0.5879  1.1163
  158MOL   H28347697   5.992   6.406   7.231  1.5741 -0.0655  0.8350
  158MOL   H28447698   6.157   6.637   7.161 -1.1965  0.3978  0.1756
  158MOL   H28547699   6.196   6.463   7.121  1.0491  0.9202  0.4797
  158MOL   H28647700   6.206   6.537   7.289  1.2219  3.2905 -0.2432
  158MOL   C28747701   5.658   6.522   6.936 -0.4659 -0.5192  0.4304
  158MOL   C28847702   5.719   6.387   6.897  0.0205  0.0076  0.0643
  158MOL   C28947703   5.611   6.275   6.890 -0.9001  0.2377  0.8266
  158MOL   O29047704   5.587   6.230   6.775 -0.1497 -0.2462 -0.1671
  158MOL   O29147705   5.570   6.227   7.005 -0.1966  0.0583 -0.4151
  158MOL   C29247706   5.480   6.117   7.018  0.6154  0.5805 -0.2850
  158MOL   C29347707   5.559   5.992   7.008  0.2546  0.2081  0.3958
  158MOL   H29447708   5.597   6.504   7.024 -1.3446 -0.3106 -0.1239
  158MOL   H29547709   5.591   6.550   6.854 -0.7484 -0.8655  0.5397
  158MOL   H29647710   5.767   6.398   6.800 -2.2026  1.1018 -0.9350
  158MOL   H29747711   5.419   6.124   7.108  0.8711  0.6751 -0.1158
  158MOL   H29847712   5.402   6.119   6.942  1.4391  0.6605 -1.1308
  158MOL   H29947713   5.626   5.969   7.091 -0.3826  0.1529  0.8982
  158MOL   H30047714   5.634   5.998   6.928  0.5082 -0.6649  0.5684
  158MOL   H30147715   5.498   5.902   6.997  1.5361 -0.6312  0.0080
  158MOL   H30247716   5.794   6.350   6.968  0.2706 -0.0505 -0.2312
  159MOL     C147717   0.931   7.704   7.554 -0.2545 -0.2557 -0.0351
  159MOL     C247718   0.955   7.821   7.462  0.1896 -0.0670 -0.3258
  159MOL     C347719   1.010   0.025   7.557  0.2485  0.7469 -0.3029
  159MOL     O447720   1.134   0.044   7.563 -0.4759  0.3717  0.1422
  159MOL     O547721   0.915   0.080   7.628 -0.6602  0.1260  0.5816
  159MOL     C647722   0.948   0.166   7.737 -0.0101  0.1111 -0.0311
  159MOL     C747723   0.827   0.236   7.784  0.2707 -0.4816  0.8049
  159MOL     H847724   0.927   7.612   7.496 -1.2243 -0.1813 -0.0978
  159MOL     H947725   0.838   7.727   7.606 -0.1759 -0.3370  0.1433
  159MOL    H1047726   1.036   7.801   7.392 -0.7260 -0.7162 -1.2027
  159MOL    H1147727   1.000   0.106   7.811  0.2119 -0.1446 -0.3916
  159MOL    H1247728   1.014   0.240   7.690  0.0209  0.4813  0.5968
  159MOL    H1347729   0.766   0.163   7.838  0.7152 -1.1814  0.3764
  159MOL    H1447730   0.772   0.283   7.703 -0.0897 -0.4682  1.0556
  159MOL    H1547731   0.852   0.311   7.859  0.9539  1.0002 -0.8619
  159MOL    H1647732   1.015   7.694   7.623 -1.1490 -2.4872  0.7952
  159MOL    C1747733   0.821   7.846   7.390  0.1207 -0.4057  0.0858
  159MOL    C1847734   0.832   0.030   7.265  0.1952  0.7942 -0.2232
  159MOL    C1947735   0.874   0.173   7.292 -0.0615 -0.2762 -0.4210
  159MOL    O2047736   0.979   0.212   7.244  0.5370  0.0237  1.3661
  159MOL    O2147737   0.799   0.254   7.373  0.3584  0.1569  0.3643
  159MOL    C2247738   0.864   0.369   7.430  0.2528 -0.0242 -1.2807
  159MOL    C2347739   0.757   0.457   7.502 -0.3280 -0.8727 -0.1081
  159MOL    H2447740   0.787   7.745   7.364 -0.4757 -0.9469  2.8361
  159MOL    H2547741   0.743   7.880   7.457 -0.7158 -2.2498  0.0968
  159MOL    H2647742   0.913   7.890   7.209 -1.2013 -0.6176 -1.0867
  159MOL    H2747743   0.932   0.333   7.507 -3.5645 -0.6315  1.9538
  159MOL    H2847744   0.918   0.426   7.353 -0.7983  1.3144 -1.0500
  159MOL    H2947745   0.671   0.406   7.545 -0.8795 -0.0763 -0.2576
  159MOL    H3047746   0.717   0.538   7.440  0.1033 -0.3205  0.3221
  159MOL    H3147747   0.819   0.505   7.578  0.1192  0.7650 -1.4729
  159MOL    C3247748   0.692   0.029   7.179  0.3618  0.1049  0.7515
  159MOL    C3347749   0.631   7.806   7.123 -0.8388  0.9575 -0.3798
  159MOL    C3447750   0.743   7.727   7.049  0.4409 -0.3474 -0.2947
  159MOL    O3547751   0.750   7.604   7.063 -0.0052  0.0524  0.5648
  159MOL    O3647752   0.817   7.802   6.966  0.3672 -0.2504 -0.0624
  159MOL    C3747753   0.903   7.743   6.875 -0.9825  0.5689  0.0130
  159MOL    C3847754   1.050   7.784   6.894  0.9230  0.3428  0.0072
  159MOL    H3947755   0.616   0.072   7.244  0.6835  1.4088  0.2718
  159MOL    H4047756   0.701   0.093   7.091 -0.2395  1.4430  1.6415
  159MOL    H4147757   0.598   7.737   7.201 -2.0270 -0.4705 -2.1195
  159MOL    H4247758   0.918   7.636   6.889  0.0130  1.0344  2.9162
  159MOL    H4347759   0.860   7.762   6.777 -1.5299  0.5558  0.2443
  159MOL    H4447760   1.119   7.717   6.842  0.6884  1.1542 -1.3614
  159MOL    H4547761   1.071   7.775   7.000 -2.7672  1.0321  0.8588
  159MOL    H4647762   1.061   7.890   6.871 -0.6081  0.0744 -2.1866
  159MOL    C4747763   0.507   7.840   7.037 -0.1231 -0.2462  0.2269
  159MOL    C4847764   0.390   7.892   7.124  0.4444 -0.0923  0.3900
  159MOL    C4947765   0.264   7.810   7.086  0.1158 -0.0222  0.2834
  159MOL    O5047766   0.222   7.815   6.975 -0.0858 -0.0930  0.5860
  159MOL    O5147767   0.216   7.739   7.194  0.5712 -0.5514  0.3148
  159MOL    C5247768   0.103   7.671   7.174  0.2796  0.3496 -0.5329
  159MOL    C5347769   0.139   7.534   7.109  0.3918 -0.9786 -0.2384
  159MOL    H5447770   0.545   7.908   6.962 -2.5039  0.3019 -0.5063
  159MOL    H5547771   0.487   7.744   6.989  0.5899 -0.6663  0.7391
  159MOL    H5647772   0.412   7.884   7.230  3.5364 -0.7709 -0.2787
  159MOL    H5747773   0.061   7.647   7.272 -0.5420 -1.3567 -1.2801
  159MOL    H5847774   0.031   7.735   7.123 -0.7617 -0.2349  0.1596
  159MOL    H5947775   0.201   7.469   7.171  1.1762 -0.7734 -0.8055
  159MOL    H6047776   0.186   7.537   7.011 -0.4755  0.8067 -0.6246
  159MOL    H6147777   0.051   7.473   7.088 -0.2202  0.1402 -0.9655
  159MOL    C6247778   0.361   0.128   7.081 -0.5013 -0.4267 -0.1330
  159MOL    C6347779   0.271   0.208   7.169 -0.0926  0.1501  0.0032
  159MOL    C6447780   0.328   0.259   7.302  0.6725  0.0414  0.2084
  159MOL    O6547781   0.364   0.377   7.317  0.1546 -0.3612 -0.7254
  159MOL    O6647782   0.326   0.162   7.389 -0.1168  0.4861  0.2992
  159MOL    C6747783   0.395   0.185   7.517 -0.6816  0.6115  0.0199
  159MOL    C6847784   0.454   0.056   7.589 -0.0579 -0.2801 -0.1453
  159MOL    H6947785   0.452   0.189   7.072 -2.1528  2.1091 -0.2748
  159MOL    H7047786   0.325   0.132   6.978  0.6766  0.8385 -0.5179
  159MOL    H7147787   0.263   0.292   7.100 -1.0746 -0.5381 -0.7504
  159MOL    H7247788   0.486   0.240   7.490 -0.8877  0.4540 -1.0125
  159MOL    H7347789   0.326   0.235   7.585  0.5735  1.3118  0.8061
  159MOL    H7447790   0.383   7.887   7.617  0.7887 -1.3920 -1.0494
  159MOL    H7547791   0.489   0.089   7.687 -3.0965 -0.3579  1.0205
  159MOL    H7647792   0.536   0.013   7.532  1.1452  0.8343  0.7105
  159MOL    C7747793   0.122   0.159   7.179 -0.3323  0.1192  0.0633
  159MOL    C7847794   0.028   0.263   7.246  0.4618 -0.5939 -0.1688
  159MOL    C7947795   7.796   0.204   7.278  0.4715  0.3800  0.2958
  159MOL    O8047796   7.763   0.091   7.234  0.1591  0.3400  0.6122
  159MOL    O8147797   7.722   0.280   7.359 -0.2307 -0.4248  0.0386
  159MOL    C8247798   7.591   0.241   7.388  0.0235  0.0465 -0.1418
  159MOL    C8347799   7.514   0.372   7.420  0.4441 -0.0882  0.4467
  159MOL    H8447800   0.085   0.136   7.079 -2.0135 -0.0660  0.7108
  159MOL    H8547801   0.109   0.065   7.233  0.4609 -0.4217 -0.6760
  159MOL    H8647802   0.063   0.295   7.345  2.9028  1.0633 -1.5234
  159MOL    H8747803   7.556   0.183   7.302 -2.4655  0.3775  0.6282
  159MOL    H8847804   7.595   0.177   7.476 -0.3008  0.6765  0.3344
  159MOL    H8947805   7.406   0.366   7.434  0.2259 -1.2009 -1.5427
  159MOL    H9047806   7.537   0.444   7.342 -0.4082 -0.0214  0.2480
  159MOL    H9147807   7.556   0.418   7.509 -1.6711  5.7711 -1.3784
  159MOL    C9247808   0.003   0.387   7.152  0.3474  0.4420  0.3407
  159MOL    C9347809   0.078   0.514   7.181 -0.1774 -0.5855  0.0965
  159MOL    C9447810   0.021   0.598   7.292  0.3928 -0.4245  0.3252
  159MOL    O9547811   0.082   0.599   7.402 -0.0839  0.1142 -0.1616
  159MOL    O9647812   7.816   0.664   7.264  0.2064  0.0092 -0.5456
  159MOL    C9747813   7.759   0.740   7.371  0.0765  0.7292  0.2969
  159MOL    C9847814   7.607   0.775   7.354  0.9595  0.6267  0.3602
  159MOL    H9947815   0.022   0.359   7.048  0.4437 -0.2293  0.5385
  159MOL   H10047816   7.805   0.408   7.145  0.6089  1.4258 -1.0242
  159MOL   H10147817   0.175   0.484   7.221 -0.2078 -1.1012 -0.2188
  159MOL   H10247818   7.776   0.699   7.471 -0.0394 -0.7628 -0.2783
  159MOL   H10347819   7.815   0.833   7.371 -2.0445  2.0800 -1.6393
  159MOL   H10447820   7.536   0.693   7.340 -1.2636  1.9880  3.0911
  159MOL   H10547821   7.577   0.848   7.279 -2.6073 -1.0622  0.0329
  159MOL   H10647822   7.578   0.821   7.449  1.3562  1.3432  0.1373
  159MOL   C10747823   0.117   0.599   7.053  0.7505 -0.2673  0.1754
  159MOL   C10847824   0.210   0.722   7.072 -0.8962 -0.5590  0.8782
  159MOL   C10947825   0.212   0.818   6.955 -0.1184  0.5854 -0.4459
  159MOL   O11047826   0.172   0.935   6.968  0.2059  0.2117  0.4323
  159MOL   O11147827   0.261   0.771   6.840  0.1083 -0.1345 -0.2445
  159MOL   C11247828   0.223   0.831   6.719  0.2780  0.2793  0.4082
  159MOL   C11347829   0.116   0.746   6.644 -0.3563 -0.1734  0.3345
  159MOL   H11447830   0.165   0.527   6.986 -1.6733 -0.4810 -1.3771
  159MOL   H11547831   0.032   0.641   6.999  0.6785 -0.7726 -0.1013
  159MOL   H11647832   0.167   0.771   7.159 -0.6031  1.9504 -0.3392
  159MOL   H11747833   0.186   0.934   6.716 -1.4521 -0.3459 -0.1888
  159MOL   H11847834   0.315   0.827   6.660  0.4895  1.2982  0.6559
  159MOL   H11947835   0.144   0.641   6.655  1.6023  0.5394  2.6819
  159MOL   H12047836   0.102   0.777   6.541 -3.2836 -0.6721  0.5408
  159MOL   H12147837   0.015   0.749   6.684  0.2257  0.5680  1.7861
  159MOL   C12247838   0.344   0.673   7.123 -0.7753  0.2916 -0.0950
  159MOL   C12347839   0.466   0.771   7.118  0.5649  0.1431  0.0423
  159MOL   C12447840   0.597   0.699   7.159  0.4104 -0.5506  0.0875
  159MOL   O12547841   0.652   0.742   7.261 -0.3072 -0.0880 -0.6024
  159MOL   O12647842   0.630   0.590   7.082  0.3372  0.0478 -0.1851
  159MOL   C12747843   0.762   0.547   7.091 -0.2608  0.4034 -0.3008
  159MOL   C12847844   0.750   0.396   7.043  0.0384 -0.2314 -0.1720
  159MOL   H12947845   0.338   0.644   7.228  1.1785 -1.9254 -0.5646
  159MOL   H13047846   0.376   0.586   7.067  0.1603 -0.2610  1.2564
  159MOL   H13147847   0.465   0.791   7.011 -1.3744 -0.9555 -0.1697
  159MOL   H13247848   0.832   0.607   7.032 -2.7018  1.4214 -2.2158
  159MOL   H13347849   0.794   0.555   7.195  0.3652 -2.4603 -0.2277
  159MOL   H13447850   0.718   0.389   6.939  2.3637  0.4915 -0.9773
  159MOL   H13547851   0.682   0.341   7.108 -1.2614  1.7216  0.1585
  159MOL   H13647852   0.850   0.358   7.064  1.3980  2.7935 -0.8532
  159MOL   C13747853   0.449   0.898   7.200  0.2355 -0.9614  0.1822
  159MOL   C13847854   0.551   1.011   7.172  0.4656 -0.3487 -0.4883
  159MOL   C13947855   0.534   1.125   7.273  0.3620 -0.5461 -0.9394
  159MOL   O14047856   0.622   1.170   7.346 -0.0243  0.1899  0.1410
  159MOL   O14147857   0.407   1.178   7.274  0.4527  0.2833 -0.3881
  159MOL   C14247858   0.377   1.284   7.368 -0.4898  0.0444  0.2204
  159MOL   C14347859   0.330   1.224   7.492  0.3705 -0.1243  0.1865
  159MOL   H14447860   0.347   0.930   7.178 -0.2250 -1.9641  0.8100
  159MOL   H14547861   0.449   0.883   7.308  1.7677  1.7600  0.5968
  159MOL   H14647862   0.652   0.972   7.183  1.1735  1.7119  0.5541
  159MOL   H14747863   0.469   1.341   7.381  0.9425 -2.3541  0.8273
  159MOL   H14847864   0.296   1.348   7.333  0.1393  0.9103  0.3174
  159MOL   H14947865   0.248   1.152   7.479  0.1823 -0.0901  1.1231
  159MOL   H15047866   0.314   1.304   7.563 -1.5688  2.2061 -2.7520
  159MOL   H15147867   0.417   1.173   7.533 -0.0311 -0.4448  0.6476
  159MOL   C15247868   0.543   1.068   7.033 -0.4258 -0.6051  0.6478
  159MOL   C15347869   0.627   1.004   6.921  0.4236  0.0705  0.0675
  159MOL   C15447870   0.770   1.058   6.929  0.4455  0.0307  0.2521
  159MOL   O15547871   0.855   0.979   6.966  0.0160 -0.0220  0.4043
  159MOL   O15647872   0.778   1.188   6.895 -0.6975  0.0628  0.4802
  159MOL   C15747873   0.898   1.260   6.895  0.5751  0.1603 -0.3696
  159MOL   C15847874   0.889   1.371   6.787 -0.2577 -0.3393 -0.0188
  159MOL   H15947875   0.436   1.069   7.012 -0.8509  1.3262  2.7395
  159MOL   H16047876   0.568   1.174   7.030 -2.6440 -0.0830 -3.2657
  159MOL   H16147877   0.637   0.895   6.930  2.0018  0.1810 -0.1760
  159MOL   H16247878   0.918   1.301   6.995 -0.5911 -1.9649  0.7597
  159MOL   H16347879   0.978   1.187   6.882  0.8577  0.3648  0.1528
  159MOL   H16447880   0.973   1.441   6.793 -0.8997  0.4527 -0.1554
  159MOL   H16547881   0.801   1.435   6.780  2.0846  2.7384 -2.8508
  159MOL   H16647882   0.900   1.323   6.689  0.4010 -0.7823  0.2661
  159MOL   C16747883   0.572   1.014   6.776  0.7804 -0.2575 -0.2342
  159MOL   C16847884   0.666   0.968   6.661 -0.0671 -0.7501  0.4173
  159MOL   C16947885   0.595   0.998   6.523 -0.0979  0.3658 -0.3156
  159MOL   O17047886   0.639   1.080   6.445 -0.5107  1.0350  0.4043
  159MOL   O17147887   0.480   0.935   6.504 -0.8200  0.1952 -0.3790
  159MOL   C17247888   0.390   0.985   6.400 -0.5159  0.2248  0.3594
  159MOL   C17347889   0.430   0.948   6.259 -0.9210 -0.5725 -0.0594
  159MOL   H17447890   0.470   0.976   6.773  0.4837  0.1818  3.1320
  159MOL   H17547891   0.557   1.122   6.764  1.1729 -0.1857 -0.0632
  159MOL   H17647892   0.755   1.032   6.657  0.8037 -2.0456 -3.5607
  159MOL   H17747893   0.288   0.950   6.417 -0.3035 -1.2420 -1.1902
  159MOL   H17847894   0.384   1.094   6.406 -0.3932  0.3665 -1.6916
  159MOL   H17947895   0.523   0.995   6.228 -0.2367 -0.2344  2.3918
  159MOL   H18047896   0.348   0.969   6.191 -0.6347  1.6880  0.2586
  159MOL   H18147897   0.456   0.844   6.239  0.9990 -0.2327  0.5679
  159MOL   C18247898   0.706   0.821   6.669 -0.1359 -0.0894  0.4756
  159MOL   C18347899   0.864   0.791   6.670  0.1161 -0.2334 -0.4306
  159MOL   C18447900   0.922   0.857   6.546  0.2196 -0.2742  0.1591
  159MOL   O18547901   0.985   0.962   6.555  0.7140 -0.5206  0.1516
  159MOL   O18647902   0.899   0.798   6.433  0.2875  0.5004  0.7612
  159MOL   C18747903   0.930   0.864   6.313 -0.1170 -0.2509  0.7524
  159MOL   C18847904   0.848   0.800   6.201  0.5402  0.2445 -0.0119
  159MOL   H18947905   0.671   0.776   6.762  1.2023 -0.8016  0.6455
  159MOL   H19047906   0.653   0.763   6.592 -1.4302 -1.6641  2.4933
  159MOL   H19147907   0.907   0.834   6.760 -1.2071  1.8386 -0.7282
  159MOL   H19247908   0.889   0.965   6.314  0.1330 -0.1136 -1.9480
  159MOL   H19347909   1.037   0.859   6.294 -0.0513 -0.3343  1.1363
  159MOL   H19447910   0.891   0.713   6.151  2.2412  0.2046  1.4843
  159MOL   H19547911   0.844   0.871   6.118 -3.0891 -0.4786 -0.5308
  159MOL   H19647912   0.744   0.792   6.230  0.1423  0.9685 -1.2177
  159MOL   C19747913   0.892   0.637   6.676 -0.2423  0.9024  0.1292
  159MOL   C19847914   1.038   0.595   6.681 -0.2315 -0.8206  0.1560
  159MOL   C19947915   1.053   0.441   6.673 -0.0459  0.1168  0.3579
  159MOL   O20047916   1.116   0.393   6.579  0.2681 -0.4155  0.4972
  159MOL   O20147917   0.995   0.369   6.775 -0.2642  0.0086  0.6817
  159MOL   C20247918   1.035   0.239   6.818  0.1542  0.0254 -0.6350
  159MOL   C20347919   1.132   0.253   6.932  0.0691  0.2180 -0.1938
  159MOL   H20447920   0.843   0.594   6.764  1.4596 -1.1057  0.1474
  159MOL   H20547921   0.835   0.591   6.596  1.7777 -0.1586 -0.7486
  159MOL   H20647922   1.092   0.623   6.591  2.9625 -1.7895  1.6893
  159MOL   H20747923   0.945   0.184   6.847 -0.3000  0.2208 -1.6378
  159MOL   H20847924   1.096   0.192   6.741 -3.2966 -3.4779 -1.3668
  159MOL   H20947925   1.166   0.159   6.975 -0.4820 -0.2061 -0.6781
  159MOL   H21047926   1.088   0.314   7.010 -0.4363 -0.0218 -0.2926
  159MOL   H21147927   1.221   0.298   6.888  2.1624 -2.8046  0.7842
  159MOL   C21247928   1.102   0.650   6.812  0.5323  0.3145 -0.3870
  159MOL   C21347929   1.194   0.769   6.780  0.3166 -0.4161  1.0011
  159MOL   C21447930   1.319   0.729   6.708 -0.1829  0.3136  0.2889
  159MOL   O21547931   1.342   0.771   6.591  0.7714  0.5071  0.2727
  159MOL   O21647932   1.410   0.653   6.787  0.7324  0.6207 -0.3057
  159MOL   C21747933   1.546   0.636   6.759 -0.3980 -0.5943  0.0951
  159MOL   C21847934   1.635   0.753   6.814 -0.2552  0.4579 -0.9275
  159MOL   H21947935   1.023   0.687   6.878  0.9290  0.0846  0.2256
  159MOL   H22047936   1.137   0.565   6.871 -1.5221  0.2421  0.7919
  159MOL   H22147937   1.129   0.833   6.720  0.2623 -2.4768 -1.2046
  159MOL   H22247938   1.596   0.551   6.805 -0.0406 -0.9437 -0.9227
  159MOL   H22347939   1.549   0.612   6.652  0.1786  0.2868 -0.0892
  159MOL   H22447940   1.621   0.845   6.757 -0.2301  1.8724  1.2428
  159MOL   H22547941   1.740   0.727   6.819 -0.4988 -0.4795 -0.6534
  159MOL   H22647942   1.613   0.773   6.919 -0.7814 -1.6270 -0.6263
  159MOL   C22747943   1.226   0.861   6.897  1.2578 -0.1077 -0.1769
  159MOL   C22847944   1.315   0.986   6.878  0.2517  0.1512  0.4981
  159MOL   C22947945   1.376   1.029   7.011 -0.2883 -0.1122  0.0010
  159MOL   O23047946   1.304   1.064   7.102  0.3164 -0.1420  0.5575
  159MOL   O23147947   1.505   1.025   7.014 -0.2733  0.5277 -0.0288
  159MOL   C23247948   1.575   1.088   7.124  0.1781  0.5995  0.3080
  159MOL   C23347949   1.724   1.111   7.107 -0.2143  0.0281 -0.4006
  159MOL   H23447950   1.134   0.895   6.943  2.0482  0.3786  1.0727
  159MOL   H23547951   1.274   0.799   6.973  0.6250 -2.9495 -2.0095
  159MOL   H23647952   1.403   0.954   6.822 -0.7912 -2.4480  0.2641
  159MOL   H23747953   1.518   1.181   7.127  0.5103  0.7912  0.9485
  159MOL   H23847954   1.566   1.028   7.215 -0.4548 -0.7934 -0.6706
  159MOL   H23947955   1.769   1.020   7.147 -0.1453  0.6114  0.9048
  159MOL   H24047956   1.751   1.186   7.181 -1.6513  0.2949 -0.1163
  159MOL   H24147957   1.768   1.142   7.013 -0.9701 -0.3512 -0.8852
  159MOL   C24247958   1.240   1.109   6.816  0.1487 -0.0138 -0.3244
  159MOL   C24347959   1.317   1.226   6.761  0.1782 -0.6238  0.1184
  159MOL   C24447960   1.364   1.327   6.874 -0.1554  0.5653  0.3118
  159MOL   O24547961   1.484   1.347   6.899 -0.2929  0.3178 -0.5261
  159MOL   O24647962   1.249   1.378   6.936  0.1130 -0.7824 -0.0624
  159MOL   C24747963   1.261   1.482   7.033 -0.6458 -0.4837 -0.1220
  159MOL   C24847964   1.126   1.541   7.074  0.1271 -0.4589 -0.1855
  159MOL   H24947965   1.180   1.077   6.731  1.2539 -0.1938 -1.0512
  159MOL   H25047966   1.162   1.147   6.881  0.0404 -0.1627 -0.3689
  159MOL   H25147967   1.407   1.181   6.720  1.3305  0.4881  1.3686
  159MOL   H25247968   1.308   1.442   7.124  0.3417 -1.8103 -1.1876
  159MOL   H25347969   1.325   1.562   6.996 -1.4334 -0.2222 -0.9237
  159MOL   H25447970   1.088   1.602   6.992 -1.3129 -1.0515  0.0172
  159MOL   H25547971   1.138   1.592   7.169 -1.4070  1.0813 -0.7842
  159MOL   H25647972   1.049   1.465   7.085 -2.2264  1.3097 -3.3649
  159MOL   C25747973   1.242   1.303   6.651  0.4529 -0.6335 -0.2030
  159MOL   C25847974   1.214   1.234   6.509 -0.8416  0.1100 -0.3767
  159MOL   C25947975   1.341   1.186   6.429  0.4502 -0.1605 -0.2834
  159MOL   O26047976   1.442   1.258   6.427  0.4441  0.1443 -0.1919
  159MOL   O26147977   1.336   1.068   6.373  0.0641  0.5728  0.3222
  159MOL   C26247978   1.464   1.017   6.330  0.2682  0.2507  0.9310
  159MOL   C26347979   1.468   0.869   6.283  0.3651  0.8273  0.5581
  159MOL   H26447980   1.145   1.323   6.695  0.0490  1.7763 -2.0753
  159MOL   H26547981   1.287   1.400   6.630 -0.0448 -0.4790 -0.5424
  159MOL   H26647982   1.164   1.140   6.531 -0.3453 -0.1251 -0.2668
  159MOL   H26747983   1.514   1.086   6.263 -1.6012  1.7079  0.9952
  159MOL   H26847984   1.531   1.030   6.414  1.9641  0.8220 -0.4718
  159MOL   H26947985   1.431   0.805   6.363  1.0427  0.1093  0.2976
  159MOL   H27047986   1.564   0.837   6.242 -0.8257 -0.4383 -1.2593
  159MOL   H27147987   1.396   0.855   6.203 -0.0602  0.6769  0.9662
  159MOL   C27247988   1.122   1.321   6.422 -0.0410  0.1484  0.1048
  159MOL   C27347989   1.040   1.250   6.305  0.1388  0.2194  0.1626
  159MOL   C27447990   1.121   1.216   6.184  0.0090  1.3487 -0.5726
  159MOL   O27547991   1.211   1.289   6.134  0.1956 -0.0188  0.2969
  159MOL   O27647992   1.095   1.094   6.136  0.3103  0.1476  0.3771
  159MOL   C27747993   1.179   1.028   6.045  0.1297 -0.0867 -0.3128
  159MOL   C27847994   1.139   1.023   5.899 -0.1472 -0.1060  0.1783
  159MOL   H27947995   1.054   1.373   6.489  1.8540  0.6109  1.7238
  159MOL   H28047996   1.180   1.398   6.370 -0.8581  0.7153  0.0169
  159MOL   H28147997   0.996   1.157   6.339 -1.0571  1.2881  1.6030
  159MOL   H28247998   1.280   1.067   6.052  1.0588 -2.4709  0.1121
  159MOL   H28347999   1.189   0.928   6.087  2.7075  0.4824  0.4960
  159MOL   H28448000   1.036   0.988   5.890  0.1147 -0.7976 -0.1476
  159MOL   H28548001   1.200   0.951   5.846 -0.3231  0.1903 -0.4298
  159MOL   H28648002   1.147   1.117   5.845 -0.1442 -0.9363 -1.2805
  159MOL   C28748003   0.918   1.329   6.255 -0.7693 -0.4831 -0.7911
  159MOL   C28848004   0.815   1.233   6.187  0.5194 -0.7419 -0.6223
  159MOL   C28948005   0.669   1.288   6.194 -0.2001  0.3143  0.3685
  159MOL   O29048006   0.600   1.280   6.091  0.0870  0.1149  0.1871
  159MOL   O29148007   0.628   1.327   6.310 -0.3055  0.0684 -0.2144
  159MOL   C29248008   0.495   1.359   6.335  0.1907 -0.7887 -0.0529
  159MOL   C29348009   0.487   1.379   6.485  0.1509 -0.0572 -0.5571
  159MOL   H29448010   0.870   1.378   6.340 -1.1165 -0.0139 -1.2516
  159MOL   H29548011   0.943   1.415   6.192  0.5790  0.7055  1.3238
  159MOL   H29648012   0.846   1.200   6.088 -2.5109  0.1833 -1.9517
  159MOL   H29748013   0.468   1.445   6.273  1.1162 -0.1321  0.4326
  159MOL   H29848014   0.438   1.272   6.305 -1.5462 -0.1754  1.3477
  159MOL   H29948015   0.549   1.306   6.537  1.3545  1.2741 -0.0695
  159MOL   H30048016   0.386   1.358   6.519 -0.0255  1.1530 -0.3041
  159MOL   H30148017   0.523   1.480   6.510 -1.0126  0.5271 -1.2199
  159MOL   H30248018   0.811   1.144   6.250 -1.0847 -1.1147 -1.2255
  160MOL     C148019   2.397   0.485   5.001 -0.6843 -0.1451  0.2093
  160MOL     C248020   2.365   0.340   5.039  1.2211  0.3952  0.0789
  160MOL     C348021   2.251   0.299   4.952  0.0505  0.4158  0.2686
  160MOL     O448022   2.238   0.179   4.925  0.3291  0.0953  0.7704
  160MOL     O548023   2.162   0.394   4.922 -0.0622  0.0853  0.2155
  160MOL     C648024   2.040   0.363   4.857 -0.3498  0.0295  0.4142
  160MOL     C748025   1.943   0.387   4.972  0.4994  0.0919  0.8830
  160MOL     H848026   2.490   0.517   5.046  0.8020  1.7878 -3.9702
  160MOL     H948027   2.312   0.549   5.025 -1.2907 -0.7833 -0.1852
  160MOL    H1048028   2.448   0.275   5.010  0.9843 -0.1803  0.6778
  160MOL    H1148029   2.021   0.437   4.779  1.0604  2.4891  2.3088
  160MOL    H1248030   2.039   0.265   4.809 -0.2055  0.1624  0.1361
  160MOL    H1348031   1.904   0.489   4.974  0.8157  0.2410 -0.1236
  160MOL    H1448032   1.990   0.362   5.067  0.9889 -0.6727  0.4548
  160MOL    H1548033   1.860   0.318   4.955 -0.5616  1.4551  0.4562
  160MOL    H1648034   2.413   0.486   4.893 -0.9301  1.8376  0.1843
  160MOL    C1748035   2.326   0.325   5.192 -0.0914  0.8717 -0.2677
  160MOL    C1848036   2.278   0.181   5.252 -0.0117 -0.0604 -0.1431
  160MOL    C1948037   2.213   0.189   5.390 -0.1707 -0.4792  0.1246
  160MOL    O2048038   2.117   0.123   5.423 -0.5431  0.3537  0.6758
  160MOL    O2148039   2.277   0.281   5.468  0.0787 -0.0280  0.3486
  160MOL    C2248040   2.235   0.286   5.601  1.1739 -0.3259 -0.3794
  160MOL    C2348041   2.357   0.336   5.673  0.3050 -0.2713 -0.2525
  160MOL    H2448042   2.410   0.354   5.255  0.5727 -3.1181  0.8179
  160MOL    H2548043   2.254   0.402   5.219 -0.4980  0.2368  0.4727
  160MOL    H2648044   2.200   0.164   5.178 -1.5265 -1.0343  1.6406
  160MOL    H2748045   2.148   0.351   5.608 -0.1131 -1.7825 -2.1853
  160MOL    H2848046   2.205   0.185   5.631 -0.2629 -1.1144 -4.1390
  160MOL    H2948047   2.445   0.273   5.655  2.3843  1.9393  1.8950
  160MOL    H3048048   2.341   0.348   5.780 -0.3388  1.8899 -0.5766
  160MOL    H3148049   2.382   0.438   5.645  0.0350 -0.3108 -0.6338
  160MOL    C3248050   2.382   0.070   5.241  0.4675  0.5976  0.1530
  160MOL    C3348051   2.508   0.077   5.326 -0.0333 -0.1475  0.1211
  160MOL    C3448052   2.610   0.178   5.276  0.2552 -0.5238 -0.3113
  160MOL    O3548053   2.646   0.176   5.160 -0.1566 -0.2884 -0.3529
  160MOL    O3648054   2.654   0.249   5.378  0.2163  0.3542 -0.5257
  160MOL    C3748055   2.762   0.338   5.363 -0.0427 -0.0889 -0.6221
  160MOL    C3848056   2.900   0.271   5.376  0.4779 -0.3796 -0.6278
  160MOL    H3948057   2.321   7.897   5.280 -2.4990  3.3317  1.4557
  160MOL    H4048058   2.406   0.048   5.137 -0.2247  3.7241 -0.7057
  160MOL    H4148059   2.481   0.108   5.427 -1.3641  0.5789 -0.4489
  160MOL    H4248060   2.760   0.389   5.266 -0.2751 -0.6131 -0.8930
  160MOL    H4348061   2.752   0.408   5.446 -0.3141  0.3632 -1.0284
  160MOL    H4448062   2.887   0.197   5.456  1.7148  1.1529  1.0252
  160MOL    H4548063   2.981   0.339   5.400  0.8073 -0.7251 -0.7471
  160MOL    H4648064   2.922   0.223   5.281  1.6302 -0.2813 -0.4190
  160MOL    C4748065   2.591   7.851   5.332  0.4199 -0.5000 -0.1754
  160MOL    C4848066   2.516   7.731   5.391  0.0013 -0.2114 -0.6062
  160MOL    C4948067   2.472   7.772   5.530 -0.0226  0.7265 -0.0752
  160MOL    O5048068   2.544   7.800   5.621 -0.4617 -0.2531  0.6769
  160MOL    O5148069   2.336   7.757   5.543  0.7908  0.1060 -0.2058
  160MOL    C5248070   2.267   7.800   5.650 -0.6734 -0.3711  0.2277
  160MOL    C5348071   2.271   7.697   5.773 -0.0018  0.8414 -0.0295
  160MOL    H5448072   2.625   7.822   5.233  0.8324 -0.7150  0.0301
  160MOL    H5548073   2.672   7.874   5.401 -1.0311  2.0896  0.7124
  160MOL    H5648074   2.436   7.717   5.319  0.1037 -1.3160 -0.5174
  160MOL    H5748075   2.291   7.900   5.687  0.9919 -0.1562 -1.3501
  160MOL    H5848076   2.164   7.806   5.615 -0.6091  1.5166  0.3101
  160MOL    H5948077   2.372   7.696   5.813 -0.3673 -2.0237  0.9567
  160MOL    H6048078   2.240   7.595   5.747  1.3435 -0.0159  1.6262
  160MOL    H6148079   2.212   7.730   5.858  1.2263  0.6649  0.9031
  160MOL    C6248080   2.603   7.607   5.385  0.1285 -0.0835 -0.0655
  160MOL    C6348081   2.530   7.479   5.437  0.2164 -0.0472  0.1864
  160MOL    C6448082   2.639   7.367   5.436 -0.6288  0.1935  0.7904
  160MOL    O6548083   2.646   7.285   5.342  0.0389  0.0860  0.2873
  160MOL    O6648084   2.719   7.367   5.544  0.4586 -0.1168  0.4195
  160MOL    C6748085   2.797   7.254   5.582 -0.0738  0.3275  0.2264
  160MOL    C6848086   2.729   7.187   5.704  0.1346  0.3677  0.2632
  160MOL    H6948087   2.648   7.585   5.288  1.8709 -0.7248  0.8686
  160MOL    H7048088   2.691   7.630   5.445 -0.2097  0.6528  0.1529
  160MOL    H7148089   2.485   7.494   5.535 -3.3666 -0.1526 -1.3338
  160MOL    H7248090   2.812   7.177   5.506  1.1409 -0.6303  1.4061
  160MOL    H7348091   2.901   7.277   5.606  1.1452 -1.6431 -2.9300
  160MOL    H7448092   2.791   7.103   5.735 -0.8197 -0.1745  0.7175
  160MOL    H7548093   2.628   7.164   5.671  0.3243  0.3885 -0.3348
  160MOL    H7648094   2.715   7.257   5.786 -2.0326 -0.4707  0.6278
  160MOL    C7748095   2.412   7.438   5.346  0.4415 -0.5933 -0.0150
  160MOL    C7848096   2.278   7.410   5.422  0.0582 -0.1511 -0.5796
  160MOL    C7948097   2.291   7.275   5.502  0.6277 -0.5098  0.3045
  160MOL    O8048098   2.286   7.163   5.446  0.0444  0.8192 -0.2579
  160MOL    O8148099   2.276   7.305   5.630 -0.0323 -0.2320  0.6460
  160MOL    C8248100   2.277   7.200   5.725 -0.6411 -0.4674 -0.9081
  160MOL    C8348101   2.355   7.243   5.845  0.3722  0.2539 -0.2799
  160MOL    H8448102   2.396   7.524   5.281 -2.5232 -0.1033  1.2756
  160MOL    H8548103   2.436   7.354   5.281  0.3597 -2.0096  1.7593
  160MOL    H8648104   2.272   7.484   5.501  1.0410 -0.2708 -0.3905
  160MOL    H8748105   2.173   7.175   5.746 -1.7804  3.3118 -1.6259
  160MOL    H8848106   2.314   7.105   5.685 -0.2555 -0.1856 -1.2243
  160MOL    H8948107   2.321   7.340   5.883 -0.2695 -0.6133  1.4184
  160MOL    H9048108   2.463   7.255   5.834  0.0540  1.0215 -2.7474
  160MOL    H9148109   2.322   7.181   5.929  0.6272  1.0063  0.3858
  160MOL    C9248110   2.156   7.419   5.328 -0.1703 -0.0024  0.3812
  160MOL    C9348111   2.020   7.415   5.404  0.0321 -0.4122 -0.0137
  160MOL    C9448112   1.917   7.392   5.290  0.5780  0.1704 -0.1921
  160MOL    O9548113   1.884   7.268   5.267  0.3594 -1.0732 -0.1590
  160MOL    O9648114   1.871   7.494   5.221  0.0100  0.0925  0.0971
  160MOL    C9748115   1.755   7.482   5.127  0.0317  0.6325  0.6809
  160MOL    C9848116   1.656   7.593   5.139 -0.4231  0.0270 -0.0725
  160MOL    H9948117   2.171   7.505   5.263  0.1053  0.7016  1.3586
  160MOL   H10048118   2.162   7.333   5.262  2.1111  0.3892  0.0393
  160MOL   H10148119   2.026   7.342   5.484  1.5072 -0.4120 -0.1246
  160MOL   H10248120   1.797   7.489   5.027  0.6931 -2.6156  0.6789
  160MOL   H10348121   1.700   7.388   5.129 -1.2227  1.3644  0.8986
  160MOL   H10448122   1.604   7.586   5.235 -2.0769  0.1427 -0.9289
  160MOL   H10548123   1.584   7.590   5.057 -0.6821 -0.8617  0.1846
  160MOL   H10648124   1.694   7.691   5.110 -3.0888  1.5539  1.3026
  160MOL   C10748125   1.990   7.556   5.468 -0.0202  0.1919 -0.0530
  160MOL   C10848126   1.891   7.553   5.582 -0.0049  0.4194 -0.0738
  160MOL   C10948127   1.843   7.697   5.598 -0.3427 -0.0927 -0.7600
  160MOL   O11048128   1.925   7.780   5.636  0.1410 -0.0990 -0.2248
  160MOL   O11148129   1.720   7.721   5.548  0.2266  0.6320 -0.4894
  160MOL   C11248130   1.681   7.850   5.520 -0.3022 -0.3902 -0.4533
  160MOL   C11348131   1.612   0.011   5.647 -0.1442  0.0240 -0.0705
  160MOL   H11448132   2.086   7.594   5.502  0.2212 -0.6752  0.2387
  160MOL   H11548133   1.960   7.637   5.401  0.6368  0.4926  0.0092
  160MOL   H11648134   1.801   7.499   5.553 -0.4091  1.0499  0.0155
  160MOL   H11748135   1.773   7.900   5.488 -0.0479 -1.1962 -1.0000
  160MOL   H11848136   1.616   7.849   5.432 -2.0181 -2.3312  0.8006
  160MOL   H11948137   1.507   7.893   5.656 -0.4107  0.6857 -1.2475
  160MOL   H12048138   1.607   0.118   5.627 -0.1788 -0.1851 -1.2296
  160MOL   H12148139   1.664   7.890   5.738  0.2280 -1.9283 -0.8859
  160MOL   C12248140   1.945   7.489   5.714  0.2774 -0.5734  0.7258
  160MOL   C12348141   1.850   7.399   5.798  0.0763  0.4721  0.2664
  160MOL   C12448142   1.816   7.270   5.733 -0.0191  0.0679  0.0767
  160MOL   O12548143   1.850   7.237   5.621  0.0552 -0.3421  0.3955
  160MOL   O12648144   1.732   7.206   5.806 -0.6474 -0.0700  0.2764
  160MOL   C12748145   1.687   7.074   5.774  0.6140 -0.2488  0.1091
  160MOL   C12848146   1.799   6.973   5.800 -0.2677 -0.5904  0.9242
  160MOL   H12948147   2.041   7.437   5.704  0.1983 -0.7408  0.8195
  160MOL   H13048148   1.983   7.561   5.786 -0.1166 -0.5837  0.9480
  160MOL   H13148149   1.918   7.378   5.881  1.1575  1.2093 -0.4156
  160MOL   H13248150   1.597   7.048   5.831  0.4809  0.3216  0.1653
  160MOL   H13348151   1.653   7.066   5.671  1.6056 -1.5173 -0.1277
  160MOL   H13448152   1.886   6.992   5.737 -1.7952  1.6334 -0.5703
  160MOL   H13548153   1.770   6.870   5.782 -0.3254 -0.2438 -1.0250
  160MOL   H13648154   1.843   6.984   5.900  2.0380 -3.9914  0.3569
  160MOL   C13748155   1.726   7.473   5.855  0.1469 -0.6976  0.5408
  160MOL   C13848156   1.758   7.603   5.939  0.4036 -0.5101 -0.4286
  160MOL   C13948157   1.839   7.567   6.074 -0.2881 -0.5810 -0.5753
  160MOL   O14048158   1.839   7.455   6.123  0.3245  0.1321  0.0678
  160MOL   O14148159   1.910   7.677   6.120 -0.2734 -0.5609 -0.0191
  160MOL   C14248160   1.982   7.683   6.241  0.6985 -0.0172 -0.4343
  160MOL   C14348161   2.107   7.599   6.210  0.3990 -0.3825 -0.0826
  160MOL   H14448162   1.659   7.499   5.773  0.7146 -1.7868 -0.2778
  160MOL   H14548163   1.665   7.409   5.919 -0.2497 -0.9270 -0.0599
  160MOL   H14648164   1.820   7.667   5.876  0.8031 -0.8790 -0.4140
  160MOL   H14748165   2.006   7.789   6.255 -0.4398 -0.1675  3.2047
  160MOL   H14848166   1.920   7.648   6.323  0.4098  0.1263 -0.5901
  160MOL   H14948167   2.180   7.617   6.288  2.0580  1.2088 -1.9480
  160MOL   H15048168   2.149   7.627   6.113  1.9848  0.2346  0.7667
  160MOL   H15148169   2.090   7.491   6.207  0.1015 -0.3040 -2.7182
  160MOL   C15248170   1.632   7.693   5.975  0.1419 -0.4759 -0.1872
  160MOL   C15348171   1.527   7.623   6.066 -0.4770 -0.1013  0.0409
  160MOL   C15448172   1.422   7.548   5.983 -0.1792 -0.3796  0.2296
  160MOL   O15548173   1.416   7.422   5.972  0.3713 -0.4427  0.3572
  160MOL   O15648174   1.342   7.630   5.908 -0.5301  0.2043 -0.5181
  160MOL   C15748175   1.255   7.579   5.812  0.4840 -0.3365  0.4483
  160MOL   C15848176   1.228   7.691   5.708 -0.2173 -0.1723 -0.5515
  160MOL   H15948177   1.670   7.786   6.016  0.0688 -0.5471  0.0407
  160MOL   H16048178   1.586   7.723   5.881  1.0899 -0.5729 -0.6967
  160MOL   H16148179   1.569   7.543   6.127  0.4106 -0.1067 -0.5727
  160MOL   H16248180   1.299   7.495   5.759  2.1277  0.5959  0.2931
  160MOL   H16348181   1.168   7.536   5.862 -0.5624 -0.4497 -1.4285
  160MOL   H16448182   1.194   7.648   5.613  0.6127 -0.5288 -0.6884
  160MOL   H16548183   1.325   7.735   5.687  0.2754 -1.3718 -0.8333
  160MOL   H16648184   1.158   7.759   5.756 -0.5598  0.3981 -1.8244
  160MOL   C16748185   1.454   7.719   6.155 -0.7743 -0.2656 -0.1891
  160MOL   C16848186   1.383   7.639   6.277  0.1162  0.1736 -0.1264
  160MOL   C16948187   1.256   7.711   6.319 -0.3325  0.1983  0.0473
  160MOL   O17048188   1.157   7.648   6.306  0.3927  0.2815 -0.0848
  160MOL   O17148189   1.261   7.833   6.355  0.9331  0.6361 -0.5182
  160MOL   C17248190   1.155   0.011   6.334 -0.1793  0.1188 -0.3408
  160MOL   C17348191   1.124   0.070   6.463  0.2446 -0.6289  0.8606
  160MOL   H17448192   1.513   7.800   6.198  1.3997 -0.5236 -2.5278
  160MOL   H17548193   1.376   7.773   6.101 -1.9599 -1.5221  0.2561
  160MOL   H17648194   1.346   7.541   6.249  0.2956  0.3670 -1.0434
  160MOL   H17748195   1.192   0.098   6.280 -1.5313  1.5716  1.0220
  160MOL   H17848196   1.065   7.879   6.287  1.0085 -2.4237 -0.4890
  160MOL   H17948197   1.130   7.908   6.546 -0.7680 -1.1425  0.5007
  160MOL   H18048198   1.022   0.109   6.462  0.2813 -0.5547 -0.1644
  160MOL   H18148199   1.203   0.139   6.493  1.0940 -1.0078 -0.4679
  160MOL   C18248200   1.483   7.638   6.405  0.0506  0.0372 -0.4196
  160MOL   C18348201   1.609   7.543   6.392 -0.0785 -0.0391  0.3469
  160MOL   C18448202   1.554   7.404   6.364  0.4784  0.4518 -0.0151
  160MOL   O18548203   1.438   7.365   6.383 -0.7270 -0.1934  0.0605
  160MOL   O18648204   1.649   7.324   6.319 -0.0546 -0.1289 -0.6041
  160MOL   C18748205   1.624   7.183   6.301  0.5574  0.4651 -0.1634
  160MOL   C18848206   1.591   7.152   6.149 -0.3137 -0.6400 -0.7138
  160MOL   H18948207   1.515   7.741   6.420  0.4763 -0.2761  0.8421
  160MOL   H19048208   1.429   7.607   6.494 -0.7946  0.8464 -0.6376
  160MOL   H19148209   1.670   7.576   6.308 -1.0401 -0.5265 -0.5606
  160MOL   H19248210   1.704   7.113   6.326 -0.5621 -0.4003  1.1050
  160MOL   H19348211   1.533   7.147   6.348 -0.1144  0.1323 -1.7086
  160MOL   H19448212   1.678   7.185   6.093  0.4330 -0.8878  0.3061
  160MOL   H19548213   1.507   7.213   6.114 -0.7837 -1.9790 -1.9435
  160MOL   H19648214   1.572   7.047   6.131  3.0150 -1.5679  0.8771
  160MOL   C19748215   1.713   7.574   6.507 -0.3411  0.1781  0.3252
  160MOL   C19848216   1.680   7.513   6.643 -0.4074 -0.5811  0.5390
  160MOL   C19948217   1.581   7.595   6.724 -0.0281 -0.7736  0.3029
  160MOL   O20048218   1.505   7.540   6.806 -0.4448  0.1278 -0.6271
  160MOL   O20148219   1.584   7.725   6.698 -0.2828 -0.5158  0.0207
  160MOL   C20248220   1.488   7.806   6.764  0.0735 -0.1189  0.8514
  160MOL   C20348221   1.351   7.820   6.680  0.3812 -0.1687 -0.3631
  160MOL   H20448222   1.810   7.540   6.472 -1.1245 -0.6444 -1.1362
  160MOL   H20548223   1.731   7.681   6.516  0.2053 -0.0622  2.2287
  160MOL   H20648224   1.643   7.411   6.627  0.4217 -0.6573 -0.9998
  160MOL   H20748225   1.464   7.777   6.866 -0.2684 -1.5689  0.3768
  160MOL   H20848226   1.538   7.902   6.767 -2.4683  1.2685  0.1244
  160MOL   H20948227   1.364   7.861   6.581 -1.9560 -0.7355 -0.9317
  160MOL   H21048228   1.277   7.876   6.737  0.0856 -1.3476  0.4438
  160MOL   H21148229   1.310   7.720   6.666 -0.7266  0.0254  1.2871
  160MOL   C21248230   1.813   7.498   6.722 -0.2670 -0.6227  0.2901
  160MOL   C21348231   1.812   7.405   6.853  0.2087 -0.0636  0.2180
  160MOL   C21448232   1.782   7.478   6.987 -0.1705  0.0202  0.9091
  160MOL   O21548233   1.709   7.433   7.067 -0.1622 -0.2333 -0.2623
  160MOL   O21648234   1.847   7.602   6.997 -0.2098 -1.0206  0.3361
  160MOL   C21748235   1.812   7.696   7.095  0.0207  1.0480  0.1401
  160MOL   C21848236   1.722   7.797   7.042 -0.6423  0.3512 -0.2563
  160MOL   H21948237   1.886   7.446   6.660  2.2626  1.3252  1.4975
  160MOL   H22048238   1.865   7.591   6.745 -2.7156  1.4270 -2.1835
  160MOL   H22148239   1.734   7.333   6.829  0.0011  0.3451 -0.3491
  160MOL   H22248240   1.764   7.646   7.179 -2.4177  1.0932 -1.1985
  160MOL   H22348241   1.902   7.748   7.131 -0.6351  1.1049  1.7547
  160MOL   H22448242   1.692   7.860   7.125  0.2212 -1.5923  1.5645
  160MOL   H22548243   1.644   7.749   6.982 -0.2509 -0.2715 -0.2755
  160MOL   H22648244   1.774   7.871   6.982 -2.5969  0.7459 -1.5331
  160MOL   C22748245   1.943   7.322   6.865  0.2675 -0.2506  0.5942
  160MOL   C22848246   2.079   7.398   6.871  0.0702 -0.1949  0.4374
  160MOL   C22948247   2.144   7.412   6.728  0.4610 -0.0776 -0.5235
  160MOL   O23048248   2.203   7.522   6.703 -0.3116  0.3845  0.0445
  160MOL   O23148249   2.139   7.301   6.655  0.0652 -0.6258  0.1752
  160MOL   C23248250   2.209   7.285   6.537  0.7569 -0.9667  0.3028
  160MOL   C23348251   2.122   7.334   6.419 -0.4294 -0.4804 -0.5620
  160MOL   H23448252   1.935   7.253   6.948  1.1106 -1.4997 -0.3431
  160MOL   H23548253   1.931   7.251   6.783 -0.1719  0.2405  0.2248
  160MOL   H23648254   2.060   7.494   6.920 -1.9428  0.7255 -2.0522
  160MOL   H23748255   2.300   7.344   6.552 -0.2479  0.9646 -0.9266
  160MOL   H23848256   2.239   7.182   6.519  0.0650 -1.2433  0.7104
  160MOL   H23948257   2.031   7.275   6.404 -0.2689 -0.6251 -0.9812
  160MOL   H24048258   2.195   7.330   6.339  1.1284 -0.1465  0.8134
  160MOL   H24148259   2.095   7.439   6.425 -0.7795 -0.6551  1.0864
  160MOL   C24248260   2.183   7.321   6.966 -0.4682 -0.7873  0.1140
  160MOL   C24348261   2.292   7.418   7.026 -0.3211 -0.4309  0.5238
  160MOL   C24448262   2.420   7.334   7.035  0.1287 -0.2922 -0.0008
  160MOL   O24548263   2.509   7.350   6.953 -0.0093  0.5205 -0.0536
  160MOL   O24648264   2.423   7.244   7.130  0.2819  0.0262  0.0816
  160MOL   C24748265   2.544   7.190   7.175 -0.1883 -0.6968  0.0782
  160MOL   C24848266   2.524   7.079   7.279 -0.0441 -0.0300  0.5819
  160MOL   H24948267   2.122   7.276   7.044 -0.1746  0.9698  1.3798
  160MOL   H25048268   2.231   7.232   6.926  1.0106  1.0474 -2.3280
  160MOL   H25148269   2.303   7.506   6.964 -1.8324 -0.5769  0.0375
  160MOL   H25248270   2.595   7.146   7.090  1.7659  1.7978 -0.1065
  160MOL   H25348271   2.600   7.270   7.224  1.8803 -2.0342 -0.0719
  160MOL   H25448272   2.461   6.997   7.245  1.9957 -1.0073 -1.0042
  160MOL   H25548273   2.478   7.117   7.370 -0.5830 -1.1286  0.7713
  160MOL   H25648274   2.620   7.036   7.306  0.5944  0.1103 -1.3487
  160MOL   C25748275   2.237   7.466   7.159  0.1643 -0.3527 -0.0608
  160MOL   C25848276   2.323   7.589   7.212  0.3661 -0.0308  0.3125
  160MOL   C25948277   2.387   7.551   7.343  0.7216 -0.2761 -0.4869
  160MOL   O26048278   2.328   7.585   7.445  0.5047  0.0038  0.3746
  160MOL   O26148279   2.502   7.485   7.338  0.5481  1.1493  0.4480
  160MOL   C26248280   2.562   7.438   7.458  1.1724  0.4403 -0.2737
  160MOL   C26348281   2.712   7.415   7.440 -0.8539  0.3296 -0.1138
  160MOL   H26448282   2.135   7.503   7.154  0.0489 -0.4867  1.0657
  160MOL   H26548283   2.245   7.385   7.232  0.7771 -0.2262  0.0159
  160MOL   H26648284   2.409   7.605   7.147  1.0864 -0.1962  1.2143
  160MOL   H26748285   2.548   7.515   7.534  2.8001  0.5345 -0.0550
  160MOL   H26848286   2.507   7.355   7.504  1.1806  1.1008  0.9679
  160MOL   H26948287   2.762   7.367   7.524 -0.7191  0.7034  0.0209
  160MOL   H27048288   2.765   7.508   7.421  0.4331 -0.4799 -0.5674
  160MOL   H27148289   2.729   7.344   7.359 -0.3705 -0.3941  0.6113
  160MOL   C27248290   2.239   7.719   7.228  0.0368 -0.1029 -0.6545
  160MOL   C27348291   2.223   7.804   7.094  0.1490  0.6090 -0.8721
  160MOL   C27448292   2.350   7.851   7.027 -0.4318  0.9759 -0.3318
  160MOL   O27548293   2.381   7.812   6.919 -1.1329 -0.1132  0.5605
  160MOL   O27648294   2.408   0.046   7.088  0.2002 -0.2259 -0.0436
  160MOL   C27748295   2.524   0.106   7.037  0.5053  0.2488 -0.4603
  160MOL   C27848296   2.588   0.206   7.134 -0.0426 -0.4940 -0.2763
  160MOL   H27948297   2.146   7.687   7.275 -0.3057 -1.0862 -1.9856
  160MOL   H28048298   2.275   7.794   7.299  1.3454  0.2995 -1.7153
  160MOL   H28148299   2.171   7.741   7.022  0.6992 -1.9889  0.9196
  160MOL   H28248300   2.597   0.032   7.007 -0.0712 -1.7637  2.9208
  160MOL   H28348301   2.501   0.153   6.941  0.9440 -1.8935 -1.6407
  160MOL   H28448302   2.686   0.237   7.097  0.8083  0.6540  2.7711
  160MOL   H28548303   2.604   0.157   7.230 -2.9711 -1.5225 -0.2435
  160MOL   H28648304   2.529   0.297   7.141  1.0728  0.2909 -0.9346
  160MOL   C28748305   2.122   0.015   7.112 -0.2604  0.0116 -0.1240
  160MOL   C28848306   2.077   0.073   6.981  0.1370 -0.0419 -0.1933
  160MOL   C28948307   1.979   0.186   6.990 -0.3405 -0.3170  0.1321
  160MOL   O29048308   1.964   0.258   7.091  0.4800  0.2632  0.0834
  160MOL   O29148309   1.920   0.205   6.878 -0.0869  0.0439  0.0592
  160MOL   C29248310   1.888   0.342   6.850 -0.1648 -0.2814 -0.4815
  160MOL   C29348311   1.895   0.367   6.702  0.2907 -0.1113  1.5092
  160MOL   H29448312   2.034   7.880   7.158 -1.3722  0.5995 -1.6482
  160MOL   H29548313   2.158   0.088   7.185 -0.2712  1.8139 -1.8566
  160MOL   H29648314   2.161   0.121   6.930 -1.4351  1.8082 -1.1007
  160MOL   H29748315   1.788   0.370   6.883 -0.4899  0.4752 -2.0628
  160MOL   H29848316   1.958   0.412   6.897 -1.9504 -0.4186  2.5088
  160MOL   H29948317   1.869   0.470   6.680  0.6707  0.2595  2.7274
  160MOL   H30048318   1.827   0.299   6.652  0.8310  0.8371 -0.5576
  160MOL   H30148319   1.997   0.354   6.664 -0.3984 -3.2406  0.6075
  160MOL   H30248320   2.042   7.897   6.921  1.9847 -0.2320 -1.0246
  161MOL     C148321   5.335   3.637   3.418 -0.6441  0.4931  0.6251
  161MOL     C248322   5.212   3.550   3.419  0.0454 -0.3947  0.2664
  161MOL     C348323   5.105   3.585   3.318 -0.0471 -0.5876  0.1018
  161MOL     O448324   5.090   3.513   3.225 -0.4529 -0.1479  0.0910
  161MOL     O548325   5.037   3.704   3.334  0.0700 -0.7066 -0.7669
  161MOL     C648326   4.934   3.732   3.244  0.6302  0.2047  0.0668
  161MOL     C748327   4.857   3.860   3.281 -0.2573  0.3818  0.4463
  161MOL     H848328   5.420   3.572   3.440  0.6316  1.6714 -0.7048
  161MOL     H948329   5.317   3.728   3.475  2.3864 -0.4849  3.2582
  161MOL    H1048330   5.235   3.447   3.391  1.8161 -0.2620  1.1405
  161MOL    H1148331   4.984   3.747   3.149  0.9803 -0.4548  0.1465
  161MOL    H1248332   4.858   3.654   3.232 -0.3231  0.8822  1.4460
  161MOL    H1348333   4.801   3.844   3.373 -0.4758 -1.3953  0.0238
  161MOL    H1448334   4.777   3.869   3.208 -0.3821  2.5422  0.8110
  161MOL    H1548335   4.914   3.952   3.283 -1.2580  0.9933  2.0778
  161MOL    H1648336   5.346   3.675   3.317 -0.3754 -1.5576 -0.1382
  161MOL    C1748337   5.162   3.544   3.560  0.6235  0.2277  0.0665
  161MOL    C1848338   5.074   3.412   3.584 -0.0328 -0.2626 -0.1424
  161MOL    C1948339   4.948   3.433   3.667  0.3501 -0.0983 -0.4867
  161MOL    O2048340   4.841   3.396   3.622  0.3664 -0.2749  0.3919
  161MOL    O2148341   4.958   3.491   3.791 -0.2344 -0.1956  0.0700
  161MOL    C2248342   4.843   3.470   3.876  0.1864  0.0214 -0.2785
  161MOL    C2348343   4.876   3.467   4.018 -0.3507  0.2890  0.7089
  161MOL    H2448344   5.240   3.517   3.631  1.9999 -2.5006 -2.3543
  161MOL    H2548345   5.114   3.632   3.601  1.0113  0.1128  0.7778
  161MOL    H2648346   5.023   3.397   3.489 -0.2241  1.5571 -0.3420
  161MOL    H2748347   4.775   3.552   3.854 -1.5857 -1.2199  0.4568
  161MOL    H2848348   4.797   3.374   3.855 -2.6538  1.0498  1.0627
  161MOL    H2948349   4.798   3.416   4.073  0.5627 -1.7814  0.1224
  161MOL    H3048350   4.895   3.563   4.067  0.5194  1.8396 -2.4612
  161MOL    H3148351   4.971   3.419   4.043 -1.0440 -1.2897  0.3496
  161MOL    C3248352   5.162   3.282   3.614  0.7907  0.8562 -0.1849
  161MOL    C3348353   5.072   3.156   3.633 -0.4991  0.0715  0.7922
  161MOL    C3448354   5.057   3.121   3.786 -0.5033  0.1858 -0.6263
  161MOL    O3548355   5.119   3.179   3.871 -1.1690 -0.2113 -0.0035
  161MOL    O3648356   4.962   3.029   3.805 -0.5391  0.0785 -0.5115
  161MOL    C3748357   4.948   2.974   3.928 -0.0907  0.2604 -0.4982
  161MOL    C3848358   4.967   2.816   3.921  0.1712 -0.3028  0.3842
  161MOL    H3948359   5.229   3.265   3.530 -0.4473  2.0942 -1.4373
  161MOL    H4048360   5.238   3.297   3.692 -1.2618 -0.1723  2.0945
  161MOL    H4148361   4.969   3.173   3.601 -0.5693  0.1255  1.0515
  161MOL    H4248362   5.021   3.003   4.004  0.3750 -1.5395 -0.2096
  161MOL    H4348363   4.850   3.005   3.962  0.8580  1.6040  1.1097
  161MOL    H4448364   4.956   2.763   4.016  1.8701 -1.2967  0.0397
  161MOL    H4548365   5.069   2.800   3.886  0.3235 -1.8344  1.4517
  161MOL    H4648366   4.895   2.771   3.852  2.3483  0.3255 -2.3377
  161MOL    C4748367   5.130   3.038   3.555 -0.1162  0.6005 -0.5529
  161MOL    C4848368   5.113   3.048   3.401  0.7346  0.6768  0.3893
  161MOL    C4948369   4.973   3.076   3.344  0.3506  0.1593  0.3416
  161MOL    O5048370   4.877   2.994   3.368  0.2095 -0.3691 -0.2865
  161MOL    O5148371   4.956   3.188   3.275  0.4172  0.2361 -0.2089
  161MOL    C5248372   4.825   3.218   3.230 -0.6280  0.8667 -0.7686
  161MOL    C5348373   4.830   3.345   3.154 -0.1766  0.0406 -0.3064
  161MOL    H5448374   5.237   3.026   3.569  0.3283  2.0087 -2.5347
  161MOL    H5548375   5.085   2.944   3.587  0.7286 -0.7336 -3.1643
  161MOL    H5648376   5.167   3.142   3.389 -1.3224  2.1743  2.6674
  161MOL    H5748377   4.794   3.132   3.171  2.3408 -0.0220 -1.0893
  161MOL    H5848378   4.774   3.230   3.326 -0.3271  0.4741 -0.5591
  161MOL    H5948379   4.842   3.423   3.229 -3.5126  0.3610 -0.0602
  161MOL    H6048380   4.741   3.358   3.093  0.7215  0.1857 -1.6259
  161MOL    H6148381   4.912   3.334   3.083  1.4152 -0.6500  1.6140
  161MOL    C6248382   5.187   2.941   3.317 -0.3864 -0.1774  0.3446
  161MOL    C6348383   5.345   2.942   3.323  0.3628 -0.1409  0.0485
  161MOL    C6448384   5.400   3.081   3.308 -0.7177 -0.1240  0.3742
  161MOL    O6548385   5.433   3.147   3.408  0.4983 -0.3429 -0.3358
  161MOL    O6648386   5.378   3.132   3.182  0.3574  0.1506  0.6048
  161MOL    C6748387   5.407   3.274   3.169 -0.4318  0.0142  0.3210
  161MOL    C6848388   5.328   3.326   3.043 -0.8761 -0.0508  0.5190
  161MOL    H6948389   5.149   2.846   3.354  1.6973 -1.0170  0.3930
  161MOL    H7048390   5.161   2.946   3.211 -2.8374 -0.6958  0.8898
  161MOL    H7148391   5.370   2.914   3.426 -0.7487  2.5135  1.0947
  161MOL    H7248392   5.390   3.334   3.258 -1.0479  2.5505 -1.4831
  161MOL    H7348393   5.510   3.282   3.137 -0.7735  0.0161 -0.7763
  161MOL    H7448394   5.374   3.422   3.019 -2.4660  0.1022 -2.1103
  161MOL    H7548395   5.223   3.344   3.069 -0.8308  0.0510  0.6319
  161MOL    H7648396   5.343   3.255   2.962  1.8332  0.2585  0.7131
  161MOL    C7748397   5.398   2.832   3.218 -0.9059 -0.1390 -0.7170
  161MOL    C7848398   5.530   2.774   3.241  1.1005 -0.2622  0.2911
  161MOL    C7948399   5.553   2.735   3.383  0.4004 -0.3462 -0.3519
  161MOL    O8048400   5.633   2.797   3.453  0.0310 -0.0522 -0.3585
  161MOL    O8148401   5.477   2.626   3.433 -0.4940 -0.7567  0.4529
  161MOL    C8248402   5.518   2.561   3.552  0.3240  0.7950 -0.0788
  161MOL    C8348403   5.482   2.415   3.564  0.0026 -1.0205  0.2798
  161MOL    H8448404   5.327   2.752   3.200 -3.0589  1.0308  2.0543
  161MOL    H8548405   5.406   2.876   3.119  0.7089 -1.0585 -0.9941
  161MOL    H8648406   5.515   2.676   3.197 -1.9654  0.7654 -1.0664
  161MOL    H8748407   5.626   2.569   3.565  0.3749 -1.6375  1.4152
  161MOL    H8848408   5.477   2.622   3.633  0.0702  0.6009 -0.0600
  161MOL    H8948409   5.511   2.373   3.661  1.5751 -0.9396 -0.1416
  161MOL    H9048410   5.515   2.362   3.475 -0.0198 -1.2610  0.4134
  161MOL    H9148411   5.375   2.398   3.553 -0.3870  0.6006  1.4624
  161MOL    C9248412   5.644   2.872   3.186  0.1050 -0.0201 -0.4199
  161MOL    C9348413   5.781   2.805   3.154 -0.0007  0.7268 -1.2330
  161MOL    C9448414   5.900   2.883   3.209  0.2192 -0.2726  0.0117
  161MOL    O9548415   5.981   2.929   3.130  0.9309 -0.6118  0.4192
  161MOL    O9648416   5.913   2.900   3.338  0.3218  0.5402 -0.3223
  161MOL    C9748417   6.030   2.964   3.400 -0.1050 -0.0796  0.9821
  161MOL    C9848418   6.030   2.959   3.550 -0.2743  0.3372 -0.0010
  161MOL    H9948419   5.610   2.917   3.092  0.0715 -0.7404 -0.7574
  161MOL   H10048420   5.659   2.962   3.245  1.9516 -0.6063  0.0412
  161MOL   H10148421   5.780   2.721   3.224 -3.5137  0.7130 -1.2207
  161MOL   H10248422   6.121   2.924   3.355 -0.4659  0.3308 -0.1317
  161MOL   H10348423   6.022   3.071   3.380 -1.1653 -0.3291  0.0215
  161MOL   H10448424   6.044   2.856   3.585 -0.2697  0.1091 -0.6787
  161MOL   H10548425   5.930   2.984   3.585 -0.1622  0.7429  0.0278
  161MOL   H10648426   6.105   3.019   3.602  0.1214  1.0908 -1.4383
  161MOL   C10748427   5.801   2.752   3.010 -0.2548 -0.7804 -0.0053
  161MOL   C10848428   5.744   2.604   2.995  0.6109 -0.6293 -0.2758
  161MOL   C10948429   5.836   2.509   3.074 -0.0695  0.3285 -0.0125
  161MOL   O11048430   5.955   2.491   3.039  0.0312  0.4040 -0.0345
  161MOL   O11148431   5.773   2.468   3.191  0.3535  0.3902  0.5842
  161MOL   C11248432   5.842   2.428   3.302  0.6221  0.2168 -0.6961
  161MOL   C11348433   5.883   2.551   3.392 -0.0500 -0.2576  0.8065
  161MOL   H11448434   5.774   2.818   2.927  0.1151  1.1382  1.3707
  161MOL   H11548435   5.907   2.728   2.997  0.0331 -1.0129  2.5252
  161MOL   H11648436   5.641   2.595   3.027  0.6868 -1.1082 -0.1561
  161MOL   H11748437   5.773   2.361   3.353 -1.1435  2.6907  0.2549
  161MOL   H11848438   5.924   2.359   3.280  0.9964  0.3390  0.2995
  161MOL   H11948439   5.951   2.617   3.339  0.4107 -1.8884 -0.6756
  161MOL   H12048440   5.940   2.519   3.480  2.7214  0.6216 -0.6065
  161MOL   H12148441   5.793   2.597   3.432  1.1644  0.4538  2.8320
  161MOL   C12248442   5.741   2.572   2.844 -0.4996  0.1800  0.2784
  161MOL   C12348443   5.685   2.433   2.811 -0.1361 -0.3285 -0.1456
  161MOL   C12448444   5.724   2.406   2.667  0.2867  0.2641 -0.3998
  161MOL   O12548445   5.647   2.418   2.573 -0.2749 -0.1522  0.1150
  161MOL   O12648446   5.853   2.368   2.657 -0.0150  0.0517 -0.1820
  161MOL   C12748447   5.910   2.328   2.531 -0.5136 -0.1053  0.2933
  161MOL   C12848448   6.062   2.334   2.526  0.5392 -0.3957  0.7555
  161MOL   H12948449   5.700   2.650   2.781  1.6231  0.7635 -0.4012
  161MOL   H13048450   5.845   2.582   2.814 -0.3938  0.4276  0.7224
  161MOL   H13148451   5.736   2.355   2.868  0.8875  0.1019 -0.4698
  161MOL   H13248452   5.860   2.243   2.485 -0.4145 -0.5223  0.9575
  161MOL   H13348453   5.882   2.414   2.471  2.4853  0.9045  0.2280
  161MOL   H13448454   6.100   2.418   2.585 -1.1031  0.7151  0.2721
  161MOL   H13548455   6.101   2.355   2.426 -1.3623 -0.1282  0.0453
  161MOL   H13648456   6.108   2.238   2.549 -0.3514 -0.8188  0.7886
  161MOL   C13748457   5.536   2.423   2.839 -0.2174  0.6747 -0.4177
  161MOL   C13848458   5.429   2.511   2.766 -0.8724  0.5302  0.1079
  161MOL   C13948459   5.420   2.649   2.824  0.0096 -0.0127 -0.2184
  161MOL   O14048460   5.383   2.668   2.935  0.3584  1.0167  0.0418
  161MOL   O14148461   5.436   2.748   2.737  0.2772 -0.2450  0.0185
  161MOL   C14248462   5.414   2.886   2.775  0.1037 -0.3752  0.2169
  161MOL   C14348463   5.417   2.978   2.654  0.3210 -0.0013  0.2980
  161MOL   H14448464   5.505   2.319   2.830  3.9519 -0.9603  2.2536
  161MOL   H14548465   5.534   2.434   2.947 -0.3950  3.3362 -0.6611
  161MOL   H14648466   5.460   2.527   2.663 -0.1860 -0.0117  0.2228
  161MOL   H14748467   5.326   2.891   2.838  0.3486  1.6665  0.4106
  161MOL   H14848468   5.499   2.912   2.837 -0.8407  0.2763  1.2435
  161MOL   H14948469   5.432   3.082   2.681  1.6739 -0.0931 -0.0928
  161MOL   H15048470   5.323   2.970   2.599 -0.6734 -0.2777  1.9981
  161MOL   H15148471   5.500   2.944   2.593 -0.4254  0.1441 -0.8078
  161MOL   C15248472   5.288   2.437   2.753  0.0389  0.4562  0.5259
  161MOL   C15348473   5.170   2.510   2.671 -0.5513 -0.7518  0.1112
  161MOL   C15448474   5.223   2.557   2.535  0.0773 -0.0528  0.3546
  161MOL   O15548475   5.241   2.673   2.512  0.0396  0.8469  0.6608
  161MOL   O15648476   5.257   2.456   2.453  0.1539  0.2153 -0.3189
  161MOL   C15748477   5.332   2.478   2.335 -0.4506  0.7628 -0.0082
  161MOL   C15848478   5.254   2.542   2.221  0.1392 -0.1405 -0.1975
  161MOL   H15948479   5.305   2.338   2.710 -1.9644 -0.6163  2.0649
  161MOL   H16048480   5.240   2.418   2.850 -0.0274 -0.8476  0.2558
  161MOL   H16148481   5.095   2.436   2.644  0.4210 -2.1710  1.2116
  161MOL   H16248482   5.423   2.532   2.363 -0.6609  0.7414  0.7373
  161MOL   H16348483   5.376   2.382   2.306 -0.4598  0.0355  2.2181
  161MOL   H16448484   5.214   2.640   2.246 -2.5473 -1.7373  2.0622
  161MOL   H16548485   5.160   2.489   2.203  0.4324 -1.0090  0.7822
  161MOL   H16648486   5.317   2.543   2.132  1.9009 -1.9391  1.0032
  161MOL   C16748487   5.110   2.626   2.755 -0.1548  0.3124 -0.1159
  161MOL   C16848488   4.955   2.657   2.727 -0.7441 -0.2546 -0.0728
  161MOL   C16948489   4.944   2.808   2.746 -0.4206  0.7433  0.0515
  161MOL   O17048490   4.902   2.873   2.650 -0.7145 -0.1105 -0.3883
  161MOL   O17148491   4.959   2.855   2.872 -0.8001 -0.1201 -0.0507
  161MOL   C17248492   4.940   2.998   2.894 -0.4025 -0.3378 -0.4480
  161MOL   C17348493   5.073   3.076   2.889  0.5468 -0.6758  0.5355
  161MOL   H17448494   5.119   2.597   2.860 -2.7272 -1.3273 -0.3082
  161MOL   H17548495   5.175   2.709   2.726  2.4325 -1.8956 -0.8714
  161MOL   H17648496   4.943   2.637   2.620 -0.7624 -3.2307  0.4525
  161MOL   H17748497   4.869   3.044   2.825  0.1153  0.8792 -0.1785
  161MOL   H17848498   4.892   3.015   2.990 -1.3016  1.4781 -1.1917
  161MOL   H17948499   5.116   3.094   2.791  0.2780  0.7739  0.6729
  161MOL   H18048500   5.138   3.030   2.963  0.1937  0.3639  1.5118
  161MOL   H18148501   5.055   3.178   2.923 -4.4488 -1.3507  0.3140
  161MOL   C18248502   4.860   2.568   2.811  1.2175  0.1474 -0.0442
  161MOL   C18348503   4.705   2.572   2.790  0.4686 -0.0688  0.2248
  161MOL   C18448504   4.647   2.490   2.905  0.1761 -0.0838  0.1983
  161MOL   O18548505   4.580   2.545   2.987  0.5325  0.5838  0.0488
  161MOL   O18648506   4.668   2.366   2.886  0.0905 -0.0109 -1.1685
  161MOL   C18748507   4.618   2.279   2.987 -0.0175 -0.4540 -0.4197
  161MOL   C18848508   4.621   2.146   2.922  0.2453  1.3458  0.1291
  161MOL   H18948509   4.903   2.468   2.804  0.9199  0.0393 -0.3805
  161MOL   H19048510   4.878   2.593   2.915 -0.9067 -0.2146  0.4285
  161MOL   H19148511   4.667   2.673   2.804 -2.6300 -0.8929 -1.9074
  161MOL   H19248512   4.686   2.295   3.070 -1.2272  0.3941  0.4099
  161MOL   H19348513   4.515   2.293   3.019  0.6841  1.6341  0.9738
  161MOL   H19448514   4.721   2.111   2.895 -0.3751 -2.0093  1.8467
  161MOL   H19548515   4.548   2.140   2.841 -0.0108 -1.1200  0.4984
  161MOL   H19648516   4.594   2.069   2.995 -1.0095  0.9387 -0.7328
  161MOL   C19748517   4.658   2.519   2.651  0.0637 -0.9329 -0.7488
  161MOL   C19848518   4.664   2.627   2.540 -0.1108 -0.2084 -0.2498
  161MOL   C19948519   4.551   2.731   2.537 -0.3031  0.1109 -0.5074
  161MOL   O20048520   4.459   2.725   2.614 -0.0240  0.0804  0.2018
  161MOL   O20148521   4.567   2.830   2.444 -0.0484  0.3814 -0.2258
  161MOL   C20248522   4.470   2.936   2.441  0.2079  0.5912  0.1494
  161MOL   C20348523   4.522   3.061   2.513  0.2918 -0.0284  0.7793
  161MOL   H20448524   4.722   2.437   2.618  0.3618 -0.3477 -1.6463
  161MOL   H20548525   4.553   2.488   2.656  0.0702 -0.7568  0.7113
  161MOL   H20648526   4.756   2.685   2.555 -0.3574  0.0524  0.2621
  161MOL   H20748527   4.428   2.963   2.344 -1.2581  0.6616  0.8036
  161MOL   H20848528   4.386   2.913   2.506  1.1896  1.1294  1.6223
  161MOL   H20948529   4.582   3.124   2.448 -2.1967  0.9484 -0.5958
  161MOL   H21048530   4.588   3.019   2.590  1.6835 -0.3636 -0.5765
  161MOL   H21148531   4.443   3.121   2.558 -0.3234 -0.5713  0.4227
  161MOL   C21248532   4.676   2.561   2.402  0.1161 -0.1193  0.2707
  161MOL   C21348533   4.815   2.532   2.346  0.1147 -0.7883  0.0588
  161MOL   C21448534   4.858   2.651   2.256  0.8747 -0.0857 -0.2138
  161MOL   O21548535   4.811   2.665   2.141 -0.0279 -0.4886 -0.0737
  161MOL   O21648536   4.950   2.727   2.312 -0.1336 -0.3175 -0.1829
  161MOL   C21748537   4.976   2.846   2.248  0.3023  0.3506 -0.3801
  161MOL   C21848538   5.114   2.912   2.297 -0.0335  0.2151  0.5724
  161MOL   H21948539   4.596   2.487   2.399  0.3279 -0.3897  1.0986
  161MOL   H22048540   4.637   2.632   2.329  1.2096  0.4898  0.2684
  161MOL   H22148541   4.880   2.540   2.433 -0.1952 -1.2534  0.3340
  161MOL   H22248542   4.990   2.822   2.142  2.7994 -2.0768  0.4411
  161MOL   H22348543   4.882   2.900   2.253 -1.3372 -2.5417  0.9961
  161MOL   H22448544   5.118   2.959   2.396 -1.6332 -1.8005  1.6516
  161MOL   H22548545   5.150   2.987   2.227  4.1791 -0.9845  1.3328
  161MOL   H22648546   5.184   2.831   2.315  0.2422  0.0699 -1.0828
  161MOL   C22748547   4.827   2.395   2.275 -0.0344 -0.3581  0.4197
  161MOL   C22848548   4.815   2.265   2.357 -0.5631 -0.3661  0.3591
  161MOL   C22948549   4.930   2.238   2.456  0.2410 -0.5985 -0.5777
  161MOL   O23048550   4.918   2.244   2.578 -0.5339  0.0510  0.5076
  161MOL   O23148551   5.048   2.200   2.392  0.3082 -0.1905  0.1762
  161MOL   C23248552   5.154   2.147   2.474  0.4938 -0.0145 -0.3352
  161MOL   C23348553   5.270   2.113   2.382 -0.5185 -0.4015  0.1524
  161MOL   H23448554   4.743   2.387   2.207  0.2706 -0.9074  0.1032
  161MOL   H23548555   4.924   2.402   2.225  0.1919 -2.6515  0.4906
  161MOL   H23648556   4.728   2.265   2.423 -0.8156  0.7820  0.0469
  161MOL   H23748557   5.189   2.224   2.542  0.0404 -0.1629  0.0648
  161MOL   H23848558   5.117   2.060   2.528  1.4923 -0.5350 -0.4753
  161MOL   H23948559   5.364   2.093   2.432 -1.2071  0.2702  1.7522
  161MOL   H24048560   5.281   2.178   2.295  0.6414 -1.0281 -0.1761
  161MOL   H24148561   5.230   2.026   2.329  0.0336 -0.9593  0.6474
  161MOL   C24248562   4.794   2.145   2.260 -0.0313  0.4178 -0.0407
  161MOL   C24348563   4.781   2.008   2.341 -0.1044  0.3577 -0.4526
  161MOL   C24448564   4.745   1.898   2.237 -0.0607  0.7543  0.0124
  161MOL   O24548565   4.634   1.904   2.181 -0.3200 -0.4384  0.2944
  161MOL   O24648566   4.844   1.812   2.216 -0.5734  0.2598  0.0949
  161MOL   C24748567   4.830   1.736   2.097 -0.3856  0.7358  0.0202
  161MOL   C24848568   4.923   1.786   1.991 -0.4324 -0.0125  0.4567
  161MOL   H24948569   4.707   2.147   2.194  1.4580 -0.0078 -2.0562
  161MOL   H25048570   4.880   2.147   2.194 -0.8550 -2.5943 -1.3158
  161MOL   H25148571   4.874   1.978   2.389 -1.1769 -1.6659  0.4242
  161MOL   H25248572   4.852   1.631   2.120  2.3955  1.1058 -0.7920
  161MOL   H25348573   4.730   1.736   2.053 -0.5613  0.9478  0.4142
  161MOL   H25448574   4.879   1.871   1.938 -1.2824 -0.9801 -0.4106
  161MOL   H25548575   4.954   1.719   1.910 -1.5770  1.5785 -1.3644
  161MOL   H25648576   5.016   1.827   2.030 -1.0000  1.2253  0.5341
  161MOL   C25748577   4.676   1.996   2.451 -0.1211  0.2464  0.1961
  161MOL   C25848578   4.671   1.861   2.540  0.0409  0.2153 -0.4088
  161MOL   C25948579   4.539   1.835   2.605 -0.4026 -0.1082 -0.0920
  161MOL   O26048580   4.478   1.923   2.663 -0.0269 -0.2229  0.2996
  161MOL   O26148581   4.498   1.712   2.577  0.7476 -0.5237 -0.2176
  161MOL   C26248582   4.374   1.664   2.613 -0.5402  0.0531  0.3057
  161MOL   C26348583   4.373   1.512   2.649 -0.5815 -0.2385  0.7240
  161MOL   H26448584   4.701   2.076   2.520 -2.5066 -0.0825  1.5236
  161MOL   H26548585   4.576   2.023   2.416 -0.7121 -2.1321 -0.0781
  161MOL   H26648586   4.705   1.782   2.472  1.8887  0.9366 -0.3385
  161MOL   H26748587   4.333   1.721   2.696  3.6931  2.1315  1.1320
  161MOL   H26848588   4.309   1.691   2.530 -0.0091 -1.8636 -0.7718
  161MOL   H26948589   4.437   1.496   2.735 -0.7084  0.0575  0.8728
  161MOL   H27048590   4.400   1.443   2.569  1.1334 -0.6649  1.6576
  161MOL   H27148591   4.274   1.489   2.688 -1.0147 -1.2093 -0.8741
  161MOL   C27248592   4.784   1.867   2.650 -1.1001 -0.8737 -0.1880
  161MOL   C27348593   4.853   1.727   2.675  0.2426 -0.7302  0.1517
  161MOL   C27448594   4.765   1.647   2.763 -0.5561  0.3818  0.7986
  161MOL   O27548595   4.715   1.546   2.722 -0.2634  0.0029 -0.3079
  161MOL   O27648596   4.758   1.683   2.886 -0.5589  0.2255 -0.3329
  161MOL   C27748597   4.701   1.589   2.978  0.1579  0.4513 -0.7657
  161MOL   C27848598   4.683   1.659   3.109  0.7579 -0.0209 -0.2912
  161MOL   H27948599   4.869   1.930   2.625 -1.3014 -0.5168  0.0240
  161MOL   H28048600   4.747   1.894   2.749  0.7766 -2.0509  0.8540
  161MOL   H28148601   4.858   1.684   2.575  1.0980 -0.4072  0.0484
  161MOL   H28248602   4.608   1.543   2.945  0.4598 -0.8625  0.1848
  161MOL   H28348603   4.766   1.504   2.997  1.7523  1.7833 -0.0855
  161MOL   H28448604   4.775   1.705   3.144 -0.0642  0.9121  0.7011
  161MOL   H28548605   4.644   1.596   3.190  1.7767  1.0869  1.0923
  161MOL   H28648606   4.613   1.740   3.091  0.8166  0.0324 -0.2775
  161MOL   C28748607   4.993   1.736   2.728 -0.1036  0.0803  0.0186
  161MOL   C28848608   5.065   1.601   2.707 -0.0354  1.1349 -0.3085
  161MOL   C28948609   5.095   1.543   2.565  0.3634  0.2233 -0.2068
  161MOL   O29048610   5.090   1.422   2.539  0.1572 -0.1535 -0.1776
  161MOL   O29148611   5.140   1.635   2.479  0.0379  0.4445  0.1449
  161MOL   C29248612   5.177   1.586   2.352 -0.3721  0.4393 -0.4934
  161MOL   C29348613   5.181   1.707   2.253 -0.0815  0.2210 -0.0500
  161MOL   H29448614   5.053   1.804   2.667  1.1351 -1.9610 -1.1121
  161MOL   H29548615   4.983   1.774   2.829  0.8721 -0.2438  0.2448
  161MOL   H29648616   5.160   1.602   2.761 -0.9043  0.0058  1.2964
  161MOL   H29748617   5.267   1.526   2.361  0.6560  2.0948  0.6553
  161MOL   H29848618   5.096   1.519   2.325 -1.6013  1.5219  0.4265
  161MOL   H29948619   5.140   1.673   2.158 -1.4771  2.3282 -0.2310
  161MOL   H30048620   5.286   1.739   2.251 -0.1813  0.4694 -1.8991
  161MOL   H30148621   5.124   1.799   2.268 -0.9773 -0.3490  0.0017
  161MOL   H30248622   5.011   1.522   2.759  1.0513  1.4035  1.2605
  162MOL     C148623   0.386   1.667   1.140  0.3590 -0.2864 -0.4596
  162MOL     C248624   0.406   1.785   1.237  0.0573  0.1512 -0.7137
  162MOL     C348625   0.294   1.800   1.345 -0.1032 -0.2032 -0.0110
  162MOL     O448626   0.317   1.817   1.465  0.2598 -0.1501  0.3532
  162MOL     O548627   0.169   1.801   1.293 -0.1366 -0.5292 -0.0834
  162MOL     C648628   0.054   1.814   1.379 -0.5967 -0.2796 -0.0034
  162MOL     C748629   7.842   1.794   1.288  0.2862 -0.1320 -0.0130
  162MOL     H848630   0.380   1.565   1.177 -0.2095 -0.6447 -1.5224
  162MOL     H948631   0.475   1.661   1.078  0.9062  2.3567 -0.0156
  162MOL    H1048632   0.493   1.767   1.300  0.7609  0.6714 -1.5196
  162MOL    H1148633   0.064   1.738   1.456  0.0275  1.0087  1.2028
  162MOL    H1248634   0.053   1.910   1.431  0.1860 -0.2084 -0.1027
  162MOL    H1348635   7.752   1.813   1.347  0.8633 -2.7573  1.8230
  162MOL    H1448636   7.832   1.691   1.254  0.7552 -0.2368  0.1607
  162MOL    H1548637   7.844   1.860   1.201 -1.7988 -0.7761 -0.5720
  162MOL    H1648638   0.298   1.677   1.077 -0.8732  1.3985  1.4615
  162MOL    C1748639   0.423   1.910   1.149  0.8165  0.7578 -0.4406
  162MOL    C1848640   0.452   2.042   1.238 -1.0319 -0.1667  0.3127
  162MOL    C1948641   0.371   2.155   1.189 -0.1385 -0.1210  0.2252
  162MOL    O2048642   0.411   2.247   1.117  0.1285  0.1660 -0.1998
  162MOL    O2148643   0.243   2.143   1.237  0.2867  0.3947 -0.2629
  162MOL    C2248644   0.157   2.266   1.240 -0.4128  0.1311 -0.5744
  162MOL    C2348645   0.031   2.224   1.315 -0.4929  0.6896  0.0876
  162MOL    H2448646   0.509   1.904   1.083  1.2858  1.6309  0.0716
  162MOL    H2548647   0.332   1.926   1.090  1.2102 -0.4107 -1.3712
  162MOL    H2648648   0.419   2.029   1.341  0.7197 -1.1748  0.7673
  162MOL    H2748649   0.206   2.350   1.289 -0.6225  1.1750 -2.1100
  162MOL    H2848650   0.136   2.295   1.137  1.1518  1.2443 -0.5959
  162MOL    H2948651   0.039   2.213   1.423  0.6106  0.3378 -0.0226
  162MOL    H3048652   0.002   2.129   1.269 -0.7933 -0.6283  2.8929
  162MOL    H3148653   7.859   2.294   1.291  1.3341  3.2047  1.0749
  162MOL    C3248654   0.605   2.080   1.242 -0.0924  0.4569  0.1945
  162MOL    C3348655   0.646   2.198   1.331 -0.3520  0.1680 -0.4412
  162MOL    C3448656   0.786   2.248   1.289  0.4711  0.0482 -0.3487
  162MOL    O3548657   0.887   2.186   1.312  0.1236  0.3022 -0.0779
  162MOL    O3648658   0.790   2.370   1.248 -0.1437 -0.4288 -0.4916
  162MOL    C3748659   0.906   2.440   1.222  0.1470 -0.2412 -0.4704
  162MOL    C3848660   0.875   2.583   1.181  0.5984  0.5331 -0.1483
  162MOL    H3948661   0.654   1.993   1.286 -0.9321 -1.1768 -2.0090
  162MOL    H4048662   0.650   2.075   1.143  1.0539  0.2259  0.7222
  162MOL    H4148663   0.584   2.283   1.305  1.2347  0.8462 -2.1170
  162MOL    H4248664   0.952   2.445   1.320  0.0633 -3.8636 -0.1719
  162MOL    H4348665   0.971   2.398   1.145  0.0788  1.1885 -1.3217
  162MOL    H4448666   0.958   2.649   1.158 -0.1080  0.2149 -3.8428
  162MOL    H4548667   0.815   2.621   1.264 -0.0740  0.3601 -0.5579
  162MOL    H4648668   0.819   2.586   1.088 -0.1028 -3.0752  0.0634
  162MOL    C4748669   0.659   2.168   1.483  0.4074 -0.6545  0.4287
  162MOL    C4848670   0.578   2.255   1.574  0.4015  0.1862  1.0774
  162MOL    C4948671   0.421   2.239   1.560 -0.9421 -0.3233  0.5501
  162MOL    O5048672   0.349   2.312   1.493 -0.6348 -0.1754  0.7796
  162MOL    O5148673   0.383   2.132   1.636  0.9405  0.0749  0.1253
  162MOL    C5248674   0.243   2.090   1.648 -0.7922  0.0643  0.1011
  162MOL    C5348675   0.158   2.179   1.746  0.2119  0.3675 -0.6767
  162MOL    H5448676   0.629   2.063   1.488 -0.4414 -0.3997  0.9619
  162MOL    H5548677   0.762   2.162   1.516  0.3486 -0.1216  0.7065
  162MOL    H5648678   0.604   2.227   1.676  0.6846  0.2245  1.0150
  162MOL    H5748679   0.188   2.095   1.554  0.4892  1.1996 -0.5907
  162MOL    H5848680   0.232   1.988   1.685 -2.0334  0.3919  0.6891
  162MOL    H5948681   0.052   2.159   1.734 -0.3244  1.3998  1.9963
  162MOL    H6048682   0.178   2.283   1.719  1.1343  0.2898 -0.3228
  162MOL    H6148683   0.184   2.166   1.851  2.5075  0.3797 -1.2187
  162MOL    C6248684   0.620   2.396   1.563 -0.3641 -0.8703  0.1718
  162MOL    C6348685   0.750   2.434   1.637  0.6729  0.9342  0.4450
  162MOL    C6448686   0.725   2.416   1.788 -0.0846 -0.2854 -0.8770
  162MOL    O6548687   0.611   2.434   1.838 -0.5498 -0.3876  0.2806
  162MOL    O6648688   0.838   2.388   1.850 -0.1608  0.4155 -0.4916
  162MOL    C6748689   0.842   2.378   1.988  0.7725 -0.0688  0.0264
  162MOL    C6848690   0.953   2.293   2.037  0.0246  0.4785 -0.3065
  162MOL    H6948691   0.629   2.418   1.457 -0.9361  1.2552  0.5356
  162MOL    H7048692   0.541   2.458   1.606 -1.0552 -1.0052 -0.8821
  162MOL    H7148693   0.828   2.370   1.597  0.4164  2.2088 -2.1727
  162MOL    H7248694   0.855   2.478   2.028  0.2431  0.1572 -0.3667
  162MOL    H7348695   0.750   2.334   2.027  0.2169 -0.6329 -1.8780
  162MOL    H7448696   0.969   2.287   2.145 -1.4238  1.5153 -0.0164
  162MOL    H7548697   1.042   2.316   1.980 -0.5470 -1.1357 -1.9108
  162MOL    H7648698   0.938   2.186   2.021 -0.1868  0.4209  0.2654
  162MOL    C7748699   0.800   2.575   1.604  0.0300 -0.2369  0.1696
  162MOL    C7848700   0.745   2.696   1.687  0.3835 -0.7143  0.6316
  162MOL    C7948701   0.593   2.746   1.665 -0.0468  0.1449  0.1233
  162MOL    O8048702   0.518   2.711   1.570 -0.1291  0.2216  0.0710
  162MOL    O8148703   0.554   2.837   1.761 -0.2016 -0.4249  0.7601
  162MOL    C8248704   0.415   2.877   1.756  0.1183 -0.6421 -1.1901
  162MOL    C8348705   0.372   2.923   1.892  0.2206  0.4208 -0.5565
  162MOL    H8448706   0.909   2.575   1.614  0.0295  1.3257  0.2994
  162MOL    H8548707   0.796   2.591   1.496  0.0403 -3.6211 -0.3869
  162MOL    H8648708   0.751   2.683   1.795 -1.1716  0.7307  0.9032
  162MOL    H8748709   0.399   2.963   1.690 -1.7585  0.5058  0.7268
  162MOL    H8848710   0.356   2.793   1.720 -0.0551 -0.8755 -0.3472
  162MOL    H8948711   0.433   3.011   1.917  0.1740  1.3214 -3.4709
  162MOL    H9048712   0.399   2.840   1.957 -0.8544  1.5942  1.4525
  162MOL    H9148713   0.268   2.952   1.880 -0.0116  0.2309  0.8338
  162MOL    C9248714   0.826   2.826   1.664  0.2857  0.3084 -0.3115
  162MOL    C9348715   0.976   2.821   1.678 -0.7762 -0.2611  0.1909
  162MOL    C9448716   1.007   2.769   1.816  0.8351 -0.1248 -0.2270
  162MOL    O9548717   1.055   2.656   1.839 -0.4845  0.2401  0.6868
  162MOL    O9648718   0.973   2.862   1.911  0.5583 -0.1879  0.4297
  162MOL    C9748719   0.978   2.827   2.051  0.5264 -0.0852  0.4088
  162MOL    C9848720   0.839   2.808   2.100 -0.6935  0.1987  0.3308
  162MOL    H9948721   0.800   2.851   1.562  1.1004  0.3360 -0.5127
  162MOL   H10048722   0.800   2.905   1.735  0.7149 -1.2876  1.6954
  162MOL   H10148723   1.018   2.755   1.602 -3.4606 -0.7168 -0.9594
  162MOL   H10248724   1.038   2.740   2.077 -1.7927 -1.3949  1.5274
  162MOL   H10348725   1.035   2.906   2.101  1.5501 -0.5932  0.0500
  162MOL   H10448726   0.786   2.904   2.101 -0.1022  0.5224  0.6316
  162MOL   H10548727   0.831   2.769   2.201  3.4241  1.4883  1.2565
  162MOL   H10648728   0.788   2.730   2.044 -0.6675 -0.9508  1.8855
  162MOL   C10748729   1.024   2.966   1.653 -0.0546 -0.0487  0.0073
  162MOL   C10848730   1.177   2.990   1.652  0.1156  0.6020 -0.2208
  162MOL   C10948731   1.258   2.896   1.570 -0.6145  0.4122 -0.2862
  162MOL   O11048732   1.366   2.852   1.609 -0.4452  1.2208 -0.1371
  162MOL   O11148733   1.210   2.868   1.454  0.1156  0.4276 -0.3816
  162MOL   C11248734   1.279   2.784   1.361  0.5511 -0.4022 -0.0577
  162MOL   C11348735   1.251   2.639   1.404  0.0198 -0.3624 -0.4548
  162MOL   H11448736   0.988   2.997   1.556 -1.6673 -0.4077  0.4809
  162MOL   H11548737   0.972   3.024   1.730 -0.0025 -1.2485  0.9526
  162MOL   H11648738   1.189   3.077   1.587 -1.1766  0.2845 -0.9014
  162MOL   H11748739   1.249   2.807   1.259 -0.2814  1.1486  0.5157
  162MOL   H11848740   1.385   2.808   1.371  0.1867  0.8937  0.8837
  162MOL   H11948741   1.299   2.633   1.502 -0.1753  2.3604 -0.1427
  162MOL   H12048742   1.307   2.572   1.338 -2.3720 -0.3775 -2.5336
  162MOL   H12148743   1.145   2.616   1.417  0.3299 -0.5827  1.8172
  162MOL   C12248744   1.244   3.035   1.788  0.0382 -0.0671 -0.5903
  162MOL   C12348745   1.183   3.165   1.856  0.5916  0.0808 -0.0636
  162MOL   C12448746   1.255   3.291   1.809 -0.3044 -0.0875 -0.2509
  162MOL   O12548747   1.198   3.376   1.745  0.5459  0.0495  0.4650
  162MOL   O12648748   1.381   3.295   1.836 -0.1076  0.0842  0.4204
  162MOL   C12748749   1.470   3.404   1.795  0.1922 -0.5155  0.1716
  162MOL   C12848750   1.526   3.390   1.646 -0.1625 -0.3196  0.5682
  162MOL   H12948751   1.235   2.952   1.858 -1.7482  0.0051 -0.7199
  162MOL   H13048752   1.351   3.051   1.774 -0.0789 -0.0791 -1.5140
  162MOL   H13148753   1.078   3.174   1.831  0.6743  1.7741  0.1600
  162MOL   H13248754   1.430   3.500   1.827 -0.2752 -0.5480 -0.3008
  162MOL   H13348755   1.552   3.374   1.860 -0.6138 -2.8266  0.1805
  162MOL   H13448756   1.628   3.428   1.637 -0.2260 -0.7005 -1.9332
  162MOL   H13548757   1.459   3.432   1.571  0.5318 -0.7926 -0.3292
  162MOL   H13648758   1.534   3.286   1.614 -3.6653 -0.2220 -0.8852
  162MOL   C13748759   1.195   3.162   2.003  0.0624  0.1991 -0.7900
  162MOL   C13848760   1.111   3.265   2.078  0.5691 -0.1944 -1.0106
  162MOL   C13948761   1.196   3.301   2.203 -0.3955  0.5504 -0.6297
  162MOL   O14048762   1.167   3.268   2.316 -0.1433 -0.5678  0.1341
  162MOL   O14148763   1.312   3.368   2.172 -0.0696 -0.4545 -0.2697
  162MOL   C14248764   1.392   3.409   2.275  0.4720 -0.1084 -0.0651
  162MOL   C14348765   1.527   3.450   2.215 -0.7310  0.3116  0.0268
  162MOL   H14448766   1.163   3.063   2.038  2.0041 -0.4370 -0.7643
  162MOL   H14548767   1.301   3.161   2.028  0.2190  0.6097 -1.4308
  162MOL   H14648768   1.111   3.364   2.032  0.0245  0.3068  0.0530
  162MOL   H14748769   1.351   3.493   2.333 -0.7016 -1.6557  1.4144
  162MOL   H14848770   1.398   3.328   2.347  1.0025 -1.4707 -1.6344
  162MOL   H14948771   1.570   3.386   2.138  0.3776  1.9377 -0.7492
  162MOL   H15048772   1.588   3.460   2.306  0.4335  2.8411 -0.9708
  162MOL   H15148773   1.522   3.551   2.174  1.6657  0.2160 -0.5472
  162MOL   C15248774   0.965   3.217   2.112  0.7265  0.5656 -0.8484
  162MOL   C15348775   0.852   3.295   2.029 -0.4749  0.4038 -0.4497
  162MOL   C15448776   0.815   3.434   2.088  0.0867 -0.3810 -0.2569
  162MOL   O15548777   0.879   3.539   2.061 -0.4716 -0.2790 -0.2794
  162MOL   O15648778   0.711   3.441   2.169 -0.1653 -0.3119  0.0730
  162MOL   C15748779   0.685   3.569   2.228 -0.1176 -0.5916  0.3222
  162MOL   C15848780   0.641   3.557   2.375 -0.2792  0.3027  0.0645
  162MOL   H15948781   0.954   3.109   2.097 -1.6024  0.8464 -1.3530
  162MOL   H16048782   0.942   3.221   2.218  0.3681  2.6682 -0.9835
  162MOL   H16148783   0.907   3.310   1.936 -0.4547  2.3184 -0.1448
  162MOL   H16248784   0.764   3.643   2.233 -2.2936  1.7767  0.4326
  162MOL   H16348785   0.604   3.621   2.177  0.1055 -0.4110  0.1545
  162MOL   H16448786   0.543   3.513   2.393  0.9838 -1.8878  1.7833
  162MOL   H16548787   0.632   3.658   2.414 -0.4720  0.9695 -1.6469
  162MOL   H16648788   0.716   3.504   2.433  1.0371 -0.4345 -2.2113
  162MOL   C16748789   0.722   3.211   2.003  0.1208 -0.3351 -1.0020
  162MOL   C16848790   0.626   3.246   1.883  0.3980 -0.9380  0.2632
  162MOL   C16948791   0.692   3.220   1.746 -0.0518  0.0468  0.0429
  162MOL   O17048792   0.674   3.113   1.683 -0.0819  0.0007 -0.5784
  162MOL   O17148793   0.788   3.311   1.710 -0.0812  0.1448 -0.1354
  162MOL   C17248794   0.865   3.282   1.590  0.5323  0.2729  0.3438
  162MOL   C17348795   0.912   3.407   1.520  0.1869  0.5223  0.0935
  162MOL   H17448796   0.761   3.112   1.980  0.8739 -0.0294 -1.0611
  162MOL   H17548797   0.663   3.200   2.094  1.8701  1.0801  0.3500
  162MOL   H17648798   0.547   3.172   1.878  0.4327 -0.9174 -0.7179
  162MOL   H17748799   0.952   3.223   1.619 -0.3943 -2.0798 -1.4699
  162MOL   H17848800   0.791   3.236   1.523  0.5323  0.7551  0.0091
  162MOL   H17948801   0.976   3.471   1.581  1.0380 -0.2396  0.0089
  162MOL   H18048802   0.829   3.470   1.489  0.6893  0.9104 -0.4846
  162MOL   H18148803   0.968   3.378   1.431  0.4495  0.5901  0.2342
  162MOL   C18248804   0.547   3.380   1.893 -1.0615  0.7323 -0.6381
  162MOL   C18348805   0.435   3.407   1.789  0.3874 -0.3857 -0.0459
  162MOL   C18448806   0.433   3.547   1.735  0.7933 -0.1421 -0.1647
  162MOL   O18548807   0.454   3.574   1.615  0.1373  0.2430 -0.9378
  162MOL   O18648808   0.410   3.638   1.831 -0.4991 -0.3146 -0.3816
  162MOL   C18748809   0.396   3.787   1.808  0.0808  0.4358  0.6769
  162MOL   C18848810   0.524   3.860   1.784 -0.0924 -0.4623  0.1927
  162MOL   H18948811   0.526   3.425   1.990 -0.7017 -1.7569  0.6203
  162MOL   H19048812   0.629   3.451   1.881 -1.2069  1.5395  2.7578
  162MOL   H19148813   0.462   3.351   1.699 -0.3262  1.3930 -1.4174
  162MOL   H19248814   0.335   3.803   1.718 -0.0964 -2.3605  0.2517
  162MOL   H19348815   0.339   3.834   1.888 -3.1175 -2.3100  0.1488
  162MOL   H19448816   0.606   3.825   1.847  1.0483  1.3939 -0.2228
  162MOL   H19548817   0.523   3.966   1.806  0.0829 -0.2210 -0.9075
  162MOL   H19648818   0.563   3.836   1.685  1.5341 -0.0538  0.7133
  162MOL   C19748819   0.294   3.365   1.841  0.0338  0.6799 -0.0600
  162MOL   C19848820   0.202   3.305   1.728 -0.4632  0.7313 -0.9274
  162MOL   C19948821   0.123   3.405   1.653 -0.3254  0.3209  0.4451
  162MOL   O20048822   0.129   3.408   1.530  0.5348  0.5008  0.5288
  162MOL   O20148823   0.050   3.484   1.734 -0.3410 -0.4839  0.2967
  162MOL   C20248824   7.890   3.597   1.682 -0.7743 -0.0516 -0.2377
  162MOL   C20348825   0.058   3.729   1.698  0.8320 -0.1319 -0.8513
  162MOL   H20448826   0.326   3.289   1.912 -0.5905 -0.7736 -1.2995
  162MOL   H20548827   0.251   3.452   1.891  0.4341  0.9225 -0.1339
  162MOL   H20648828   0.258   3.254   1.649  0.1118 -1.4154  0.8060
  162MOL   H20748829   7.878   3.592   1.574 -0.3996 -1.5621 -0.2195
  162MOL   H20848830   7.791   3.605   1.728 -1.4534 -1.7116 -1.3881
  162MOL   H20948831   0.151   3.731   1.640  1.2304  0.3692 -0.1979
  162MOL   H21048832   0.083   3.735   1.804 -0.3341  4.4299 -0.7470
  162MOL   H21148833   7.899   3.810   1.671 -1.2400 -1.5868 -0.1949
  162MOL   C21248834   0.103   3.205   1.795  0.0868 -0.4213 -0.1826
  162MOL   C21348835   0.016   3.111   1.704  0.2804 -0.0830 -0.1341
  162MOL   C21448836   7.815   3.040   1.788 -0.5661  0.2213 -0.0724
  162MOL   O21548837   7.697   3.073   1.787 -0.0390 -0.8872 -0.4646
  162MOL   O21648838   7.867   2.939   1.858 -0.1054 -0.6584  0.0860
  162MOL   C21748839   7.785   2.854   1.935 -0.7436 -0.0818 -0.0963
  162MOL   C21848840   7.878   2.777   2.029 -0.6180  0.5931  0.7408
  162MOL   H21948841   0.164   3.140   1.858 -0.8488 -1.9912 -0.8825
  162MOL   H22048842   0.042   3.263   1.865 -1.6991 -1.0304 -1.2119
  162MOL   H22148843   7.871   3.172   1.631 -0.2675 -0.2657  0.1059
  162MOL   H22248844   7.711   2.911   1.991  0.0980  1.2875 -0.3453
  162MOL   H22348845   7.734   2.781   1.873 -2.0286 -0.0415  0.8815
  162MOL   H22448846   7.817   2.702   2.078 -0.7235  0.1416 -0.0664
  162MOL   H22548847   0.005   2.846   2.106 -0.6174  2.0135 -0.4967
  162MOL   H22648848   0.059   2.734   1.984 -0.1293  0.2101  2.0544
  162MOL   C22748849   0.099   3.005   1.625 -0.4622 -0.1284 -0.8964
  162MOL   C22848850   0.013   2.910   1.530 -0.2858  1.0297 -0.4737
  162MOL   C22948851   0.089   2.781   1.499 -0.0131  0.0533 -0.2102
  162MOL   O23048852   0.152   2.769   1.389  0.7987 -0.1181 -0.0091
  162MOL   O23148853   0.094   2.694   1.600  0.2649  0.8845  0.1105
  162MOL   C23248854   0.203   2.595   1.604  0.3405  0.2520 -0.3799
  162MOL   C23348855   0.210   2.566   1.756  0.3683 -0.0334  0.1294
  162MOL   H23448856   0.163   3.066   1.560  0.7818  1.3023  1.6035
  162MOL   H23548857   0.157   2.937   1.688 -0.4538 -1.2820 -2.1156
  162MOL   H23648858   7.825   2.874   1.568 -1.2377  3.1442 -0.8573
  162MOL   H23748859   0.187   2.507   1.543 -0.4459  1.7463 -2.3785
  162MOL   H23848860   0.297   2.642   1.574  0.3637  1.2357  1.1536
  162MOL   H23948861   0.275   2.478   1.765  0.2629 -0.0235  1.0181
  162MOL   H24048862   0.115   2.545   1.806 -0.2025  0.5212 -0.7141
  162MOL   H24148863   0.250   2.647   1.816 -0.3577  0.3046  0.1680
  162MOL   C24248864   7.881   2.992   1.403 -0.5081  0.1457 -1.0737
  162MOL   C24348865   7.732   3.048   1.414  0.6099 -0.2697  0.1922
  162MOL   C24448866   7.631   2.932   1.428 -0.4972  0.1419 -0.1363
  162MOL   O24548867   7.647   2.822   1.378  0.2480 -0.3367  0.2453
  162MOL   O24648868   7.529   2.970   1.509 -0.2729  0.3160 -0.4501
  162MOL   C24748869   7.429   2.873   1.547 -0.3915 -0.0110 -0.3644
  162MOL   C24848870   7.372   2.916   1.694 -0.4296  0.0334 -0.0197
  162MOL   H24948871   0.048   3.069   1.385 -0.7608  0.5535 -0.3968
  162MOL   H25048872   7.879   2.925   1.317 -0.5122 -0.6840 -0.4306
  162MOL   H25148873   7.728   3.114   1.501 -0.6204 -0.3142  0.1820
  162MOL   H25248874   7.354   2.859   1.469 -1.4723  0.4271  0.5710
  162MOL   H25348875   7.472   2.774   1.563 -0.0932  0.6491  3.5353
  162MOL   H25448876   7.448   2.924   1.772 -0.4156  2.9732 -0.2918
  162MOL   H25548877   7.303   2.840   1.731 -2.0395  1.2361 -0.5348
  162MOL   H25648878   7.322   3.011   1.679 -0.1053  0.4143  1.2374
  162MOL   C25748879   7.703   3.126   1.283 -0.6512  0.1588 -0.3621
  162MOL   C25848880   7.754   3.272   1.288 -0.3741  0.3016  0.5345
  162MOL   C25948881   7.645   3.360   1.356 -0.4424 -0.4335  0.0354
  162MOL   O26048882   7.672   3.430   1.453  0.2355 -0.2690 -0.1059
  162MOL   O26148883   7.521   3.368   1.296  0.0896 -0.4102 -0.2078
  162MOL   C26248884   7.412   3.441   1.357  0.2684  0.4131 -0.3149
  162MOL   C26348885   7.335   3.346   1.453 -0.2903 -0.1347  0.4389
  162MOL   H26448886   7.745   3.065   1.203  0.3539  0.3905 -0.0115
  162MOL   H26548887   7.596   3.122   1.262 -1.0153  2.1054  0.9612
  162MOL   H26648888   7.831   3.282   1.364  1.8034 -1.1720 -1.4087
  162MOL   H26748889   7.443   3.524   1.420  3.2075 -0.0799 -1.0526
  162MOL   H26848890   7.354   3.498   1.284 -0.8274  2.2165  1.9078
  162MOL   H26948891   7.391   3.313   1.540  1.1802 -1.7445 -1.0583
  162MOL   H27048892   7.315   3.257   1.394  0.3049 -0.4133  0.6520
  162MOL   H27148893   7.237   3.381   1.484 -0.7382 -0.6724 -0.3737
  162MOL   C27248894   7.800   3.338   1.156 -0.3968 -0.1660 -0.1387
  162MOL   C27348895   0.032   3.406   1.153  0.0156  0.2909 -0.2494
  162MOL   C27448896   0.063   3.493   1.026  0.0803 -0.2471  0.0818
  162MOL   O27548897   7.877   3.522   0.953  0.3016 -0.7283 -0.1877
  162MOL   O27648898   0.191   3.532   1.017  0.2610 -0.3700 -0.0943
  162MOL   C27748899   0.227   3.578   0.885  0.7176  0.2072  0.0246
  162MOL   C27848900   0.370   3.643   0.898  0.4721  0.1136  0.8497
  162MOL   H27948901   7.786   3.267   1.075  0.1676 -0.3643 -0.0661
  162MOL   H28048902   7.734   3.418   1.122 -0.6216  0.3956  1.5653
  162MOL   H28148903   0.038   3.485   1.228  1.7321  0.3236 -0.4092
  162MOL   H28248904   0.239   3.488   0.824 -1.6615 -0.9273  1.1689
  162MOL   H28348905   0.157   3.649   0.841  0.2813  2.0743  3.5530
  162MOL   H28448906   0.398   3.697   0.808 -0.5423 -1.2986 -0.3179
  162MOL   H28548907   0.444   3.566   0.920  0.8565  0.0879 -0.4945
  162MOL   H28648908   0.374   3.727   0.968  2.3101 -0.1272  1.0613
  162MOL   C28748909   0.143   3.308   1.197 -0.2062  0.0294  0.2466
  162MOL   C28848910   0.161   3.197   1.093  0.1001  0.0252  0.4054
  162MOL   C28948911   0.221   3.078   1.148 -0.0223 -0.5177  0.6231
  162MOL   O29048912   0.154   2.976   1.141  0.7319  0.3112  0.0895
  162MOL   O29148913   0.337   3.091   1.212 -0.5992  0.2901  0.2010
  162MOL   C29248914   0.391   2.973   1.279 -0.0724 -0.1556  1.0213
  162MOL   C29348915   0.461   3.013   1.411 -0.0656 -0.2324 -0.9136
  162MOL   H29448916   0.240   3.357   1.205 -0.1283 -0.1416  0.3561
  162MOL   H29548917   0.131   3.277   1.301 -0.5788  3.7459  1.3881
  162MOL   H29648918   0.065   3.164   1.053  0.5528 -0.5134 -0.2410
  162MOL   H29748919   0.313   2.897   1.289 -1.6149  1.4491  1.2917
  162MOL   H29848920   0.457   2.931   1.202 -0.5891  0.1491  0.4134
  162MOL   H29948921   0.451   2.915   1.457 -1.0815 -0.4173 -1.5022
  162MOL   H30048922   0.414   3.090   1.472 -0.9891  0.1403 -2.0781
  162MOL   H30148923   0.561   3.038   1.376  0.8899 -1.5170  0.8445
  162MOL   H30248924   0.217   3.235   1.008  1.4805  0.0839  1.3303
  163MOL     C148925   6.554   0.752   3.818 -0.1889  1.2050 -0.0933
  163MOL     C248926   6.556   0.601   3.830 -0.5993 -0.4209 -0.0990
  163MOL     C348927   6.661   0.537   3.728 -0.5241 -0.2942  0.4683
  163MOL     O448928   6.629   0.490   3.616  0.1136 -0.2578 -0.5936
  163MOL     O548929   6.789   0.557   3.772  0.3850 -0.5708 -0.3543
  163MOL     C648930   6.899   0.513   3.688  0.3402  0.0703  0.4259
  163MOL     C748931   6.925   0.360   3.717  0.1323  0.3088 -0.3130
  163MOL     H848932   6.515   0.791   3.724 -0.5401 -1.1678 -0.9519
  163MOL     H948933   6.657   0.789   3.817  0.5600 -0.7875 -2.6994
  163MOL    H1048934   6.592   0.577   3.930 -1.9379 -0.8614  0.2977
  163MOL    H1148935   6.897   0.538   3.582  2.3924  3.1318  1.0446
  163MOL    H1248936   6.986   0.564   3.731  1.8750 -0.8110 -1.5398
  163MOL    H1348937   7.012   0.330   3.657 -0.3779 -0.7488 -0.5266
  163MOL    H1448938   6.847   0.297   3.675  0.8597 -0.2498 -0.8374
  163MOL    H1548939   6.954   0.348   3.821 -0.0166 -2.5352 -0.5815
  163MOL    H1648940   6.497   0.796   3.899  1.2955  2.9334  0.0427
  163MOL    C1748941   6.424   0.526   3.809 -0.5449 -0.2934 -0.3300
  163MOL    C1848942   6.317   0.514   3.925  0.0157 -0.2560 -0.3407
  163MOL    C1948943   6.320   0.376   4.000 -0.0954  0.2246  0.2386
  163MOL    O2048944   6.367   0.277   3.941 -0.4242 -0.0261 -0.6489
  163MOL    O2148945   6.290   0.388   4.125  0.2246 -0.0434  0.8154
  163MOL    C2248946   6.309   0.278   4.213 -0.0504  0.0337  0.8043
  163MOL    C2348947   6.206   0.294   4.330  0.1590 -0.4157  0.2372
  163MOL    H2448948   6.372   0.577   3.728 -0.5380 -0.5554 -0.4999
  163MOL    H2548949   6.439   0.431   3.757  1.3405 -0.0312 -0.3218
  163MOL    H2648950   6.346   0.590   3.998  1.6471 -0.0863 -1.1279
  163MOL    H2748951   6.301   0.189   4.151  3.0500 -0.4950  1.1214
  163MOL    H2848952   6.407   0.274   4.260  1.5075 -1.8423 -2.4224
  163MOL    H2948953   6.244   0.356   4.411 -2.6785  1.3526  0.2824
  163MOL    H3048954   6.165   0.202   4.372  0.6573 -0.3750  0.8357
  163MOL    H3148955   6.121   0.349   4.290  0.1273 -1.1439 -0.7031
  163MOL    C3248956   6.170   0.547   3.877  0.2201  0.0352 -0.0415
  163MOL    C3348957   6.147   0.693   3.854 -0.1259 -0.2595  0.0768
  163MOL    C3448958   6.150   0.766   3.988 -0.2301 -0.4210  0.1543
  163MOL    O3548959   6.238   0.847   4.013 -0.1221 -0.9958 -0.2621
  163MOL    O3648960   6.042   0.725   4.064  0.0648 -0.3604  0.4281
  163MOL    C3748961   6.021   0.789   4.193 -0.0203  0.1696 -0.4475
  163MOL    C3848962   6.028   0.680   4.304 -0.6319 -0.0843 -0.0089
  163MOL    H3948963   6.155   0.499   3.780  0.0412  0.2976 -0.1443
  163MOL    H4048964   6.095   0.507   3.944  0.9794  1.0544  1.4384
  163MOL    H4148965   6.236   0.732   3.804  1.0030 -0.4150  1.9066
  163MOL    H4248966   6.100   0.865   4.200 -0.5565  0.7600 -0.7665
  163MOL    H4348967   5.931   0.843   4.222 -0.8151 -2.2675  1.8227
  163MOL    H4448968   6.134   0.651   4.303 -0.5048  0.3583 -1.9360
  163MOL    H4548969   5.950   0.605   4.295 -1.9137  0.8293  2.8781
  163MOL    H4648970   6.014   0.731   4.399  1.1076  0.6459 -0.1191
  163MOL    C4748971   6.024   0.728   3.771 -0.6524 -0.1551 -0.4388
  163MOL    C4848972   5.991   0.877   3.755  0.1410 -0.8537  0.2169
  163MOL    C4948973   5.849   0.905   3.689 -0.6567  0.5986 -1.0114
  163MOL    O5048974   5.829   0.892   3.571 -0.0505 -0.6833 -0.1076
  163MOL    O5148975   5.757   0.952   3.776  0.2436  0.2951  0.5866
  163MOL    C5248976   5.621   0.971   3.724  0.3266  0.2407 -0.1289
  163MOL    C5348977   5.619   1.120   3.674  0.2905  0.0214  0.1018
  163MOL    H5448978   6.054   0.692   3.672  0.2936 -3.0307  0.8409
  163MOL    H5548979   5.938   0.666   3.796  0.0632 -0.7911  0.4610
  163MOL    H5648980   5.982   0.930   3.850 -1.2876  1.4984 -1.1752
  163MOL    H5748981   5.590   0.907   3.642  0.0851 -1.3812  1.2150
  163MOL    H5848982   5.560   0.963   3.815 -0.3948  2.2789 -0.3869
  163MOL    H5948983   5.654   1.183   3.756  0.1060  0.4612 -0.1554
  163MOL    H6048984   5.515   1.144   3.654  0.7860  2.4998  0.3593
  163MOL    H6148985   5.684   1.133   3.587  0.5011  0.1131  0.2713
  163MOL    C6248986   6.093   0.964   3.667 -0.8876  0.3308 -0.2660
  163MOL    C6348987   6.075   1.120   3.687  0.2776 -0.6103 -0.4022
  163MOL    C6448988   6.094   1.192   3.551 -0.7159 -0.5897 -0.4164
  163MOL    O6548989   6.117   1.131   3.449 -0.2377 -0.3985 -0.0579
  163MOL    O6648990   6.061   1.322   3.552 -0.2390  0.2194  0.0917
  163MOL    C6748991   6.048   1.398   3.432  0.3126  0.0828  0.4134
  163MOL    C6848992   5.919   1.476   3.443 -0.1172 -0.2235 -0.2710
  163MOL    H6948993   6.191   0.941   3.710 -0.9012  0.4955 -0.1457
  163MOL    H7048994   6.096   0.913   3.571  0.1575 -0.5897  0.2409
  163MOL    H7148995   5.977   1.143   3.728 -0.6405 -1.8554 -1.8472
  163MOL    H7248996   6.132   1.467   3.419 -0.3212  1.0636  1.4780
  163MOL    H7348997   6.035   1.336   3.344 -0.2392  2.7982 -1.4792
  163MOL    H7448998   5.839   1.418   3.488 -2.2571  2.5654 -0.3569
  163MOL    H7548999   5.892   1.513   3.344  0.7890  2.1224  0.3121
  163MOL    H7649000   5.923   1.561   3.511  0.2879  0.0022 -0.5666
  163MOL    C7749001   6.173   1.179   3.795  0.1243  0.2119  0.4706
  163MOL    C7849002   6.150   1.145   3.945  0.5445  0.2757 -0.1607
  163MOL    C7949003   6.009   1.185   3.983 -0.6722  0.3036 -0.5917
  163MOL    O8049004   5.920   1.106   4.013  0.3302 -0.3023 -0.5263
  163MOL    O8149005   5.995   1.317   3.971  0.0790  0.2662 -0.8325
  163MOL    C8249006   5.861   1.374   4.004 -1.1042  0.4029 -0.5631
  163MOL    C8349007   5.826   1.469   3.889  0.0266 -0.5795 -0.1737
  163MOL    H8449008   6.276   1.151   3.771 -0.7926 -0.3973 -3.1524
  163MOL    H8549009   6.163   1.286   3.776 -3.4849  0.0576  1.1906
  163MOL    H8649010   6.158   1.037   3.955  0.5263  0.2202 -0.6972
  163MOL    H8749011   5.788   1.296   4.024 -2.1093  1.3584 -0.4778
  163MOL    H8849012   5.864   1.425   4.100 -2.1152 -0.0790 -0.2714
  163MOL    H8949013   5.730   1.511   3.918  0.2901 -0.5973  0.7326
  163MOL    H9049014   5.842   1.424   3.791  0.3760  0.1338 -0.4515
  163MOL    H9149015   5.896   1.553   3.892 -2.3545  1.4120  3.8530
  163MOL    C9249016   6.259   1.220   4.028  0.3962  0.4932  0.2329
  163MOL    C9349017   6.256   1.197   4.178  0.3064  0.0418 -0.6083
  163MOL    C9449018   6.179   1.313   4.252 -0.2045  0.2462 -0.0504
  163MOL    O9549019   6.058   1.308   4.262  0.0152 -0.0025  0.4730
  163MOL    O9649020   6.256   1.420   4.295 -0.2232 -0.2576  0.0890
  163MOL    C9749021   6.193   1.524   4.374  0.3314  0.1984 -0.2517
  163MOL    C9849022   6.143   1.641   4.288 -0.5740 -0.5595  0.6240
  163MOL    H9949023   6.345   1.158   4.003 -1.6311 -1.9809 -0.8897
  163MOL   H10049024   6.271   1.325   4.001 -1.2914  1.2076  2.1575
  163MOL   H10149025   6.201   1.106   4.203 -1.1631  1.2553  0.7085
  163MOL   H10249026   6.115   1.485   4.439 -1.6083  0.3873 -2.4080
  163MOL   H10349027   6.265   1.573   4.440  0.6129 -0.3548 -0.1448
  163MOL   H10449028   6.229   1.682   4.235 -0.8184 -0.6551  0.1436
  163MOL   H10549029   6.094   1.716   4.350 -1.9657 -0.4562 -0.5488
  163MOL   H10649030   6.072   1.589   4.223  0.8702 -0.5552 -0.9841
  163MOL   C10749031   6.392   1.180   4.243 -0.6862 -0.2563  0.2506
  163MOL   C10849032   6.470   1.055   4.209  1.1121 -0.1304 -0.3624
  163MOL   C10949033   6.405   0.924   4.256 -0.1769  1.0187 -0.6460
  163MOL   O11049034   6.309   0.931   4.334  0.0604 -0.4633  0.4391
  163MOL   O11149035   6.462   0.806   4.222  0.2961 -0.2821 -0.3050
  163MOL   C11249036   6.408   0.690   4.275  0.4294  0.3535 -0.0105
  163MOL   C11349037   6.513   0.589   4.324  0.3996  0.0631 -0.7593
  163MOL   H11449038   6.456   1.259   4.205 -0.3447  0.4251  2.1753
  163MOL   H11549039   6.372   1.192   4.349 -3.1401  0.7589 -0.2700
  163MOL   H11649040   6.457   1.041   4.102  1.8798 -1.3569 -0.3056
  163MOL   H11749041   6.331   0.699   4.352  1.3654 -1.8384  1.2178
  163MOL   H11849042   6.350   0.648   4.194  0.9151 -1.3660  0.5193
  163MOL   H11949043   6.470   0.489   4.331  1.0654 -0.1365  0.9444
  163MOL   H12049044   6.555   0.624   4.419  0.8624  0.6292 -1.1651
  163MOL   H12149045   6.590   0.564   4.251  0.4909 -2.0713  0.0162
  163MOL   C12249046   6.620   1.070   4.245  0.0020 -0.0588  0.0643
  163MOL   C12349047   6.665   1.043   4.392 -0.4155  0.5845  0.5181
  163MOL   C12449048   6.619   1.152   4.484 -0.1503  0.2374 -0.1997
  163MOL   O12549049   6.668   1.263   4.502 -0.2639 -0.8394 -0.0218
  163MOL   O12649050   6.522   1.100   4.565 -0.3503  0.3465  0.5428
  163MOL   C12749051   6.475   1.170   4.675 -0.4186  1.0173  0.5198
  163MOL   C12849052   6.330   1.170   4.700  0.0196  0.4607 -0.4968
  163MOL   H12949053   6.671   1.006   4.173  0.1089  0.8402 -0.6731
  163MOL   H13049054   6.654   1.169   4.214 -0.3695  0.3267  0.8868
  163MOL   H13149055   6.621   0.948   4.420  0.9300 -0.2757 -0.2291
  163MOL   H13249056   6.525   1.119   4.757  1.5093  0.0275 -1.2391
  163MOL   H13349057   6.508   1.273   4.673  4.0335 -0.3342 -0.4979
  163MOL   H13449058   6.277   1.084   4.660  0.9731 -0.1997 -0.3535
  163MOL   H13549059   6.296   1.252   4.637  0.3775 -0.7583 -2.3186
  163MOL   H13649060   6.311   1.197   4.805  1.1566 -2.3954  0.4895
  163MOL   C13749061   6.826   1.020   4.388  0.6044 -0.1952 -0.2115
  163MOL   C13849062   6.893   0.963   4.515 -0.3467 -0.0152 -0.4186
  163MOL   C13949063   6.807   0.849   4.578  0.7462  0.6743 -0.3467
  163MOL   O14049064   6.718   0.870   4.657 -0.3652  0.5012 -0.3755
  163MOL   O14149065   6.866   0.737   4.546  1.0711  0.4765  0.1970
  163MOL   C14249066   6.811   0.612   4.592 -0.3330 -0.1188 -0.0086
  163MOL   C14349067   6.837   0.494   4.483  0.4829 -0.1124  0.6720
  163MOL   H14449068   6.832   0.949   4.305  1.0317  0.3822 -0.6831
  163MOL   H14549069   6.877   1.111   4.356  1.2091  0.5313  2.7328
  163MOL   H14649070   6.985   0.916   4.479 -1.2166 -2.2714  0.1906
  163MOL   H14749071   6.867   0.580   4.681 -1.8797 -0.4531  0.8715
  163MOL   H14849072   6.704   0.625   4.605 -0.7370 -0.8429 -2.3660
  163MOL   H14949073   6.763   0.415   4.497  1.1178 -0.4537  2.1793
  163MOL   H15049074   6.937   0.451   4.480  0.3781 -0.3407  0.4887
  163MOL   H15149075   6.826   0.546   4.388  3.9335  0.5917  0.5637
  163MOL   C15249076   6.932   1.078   4.619  0.1320 -0.4822  0.2589
  163MOL   C15349077   7.071   1.079   4.694  1.1326  1.0576 -0.1956
  163MOL   C15449078   7.194   1.101   4.603  0.1152  0.0136  0.1021
  163MOL   O15549079   7.296   1.169   4.639  0.4989 -0.2358  0.1944
  163MOL   O15649080   7.196   1.025   4.500  0.0428 -0.1804  0.1856
  163MOL   C15749081   7.308   1.029   4.416 -0.4090  0.3815  0.0469
  163MOL   C15849082   7.310   0.892   4.341 -0.2805  0.2545  0.3104
  163MOL   H15949083   6.912   1.178   4.582 -0.0059 -0.3047  0.8275
  163MOL   H16049084   6.852   1.073   4.693  0.3802  0.4253  0.5835
  163MOL   H16149085   7.059   1.166   4.758 -0.7501  1.7130 -1.3930
  163MOL   H16249086   7.289   1.115   4.352  1.1410  1.2534  0.6963
  163MOL   H16349087   7.404   1.051   4.464 -0.9033  3.3405 -0.2397
  163MOL   H16449088   7.225   0.888   4.274 -1.3952 -1.2467  1.7843
  163MOL   H16549089   7.314   0.807   4.409  1.1542 -0.5901 -0.8145
  163MOL   H16649090   7.400   0.875   4.283 -0.0693  0.3569  0.6036
  163MOL   C16749091   7.096   0.951   4.769  0.2917 -0.0112  0.0996
  163MOL   C16849092   7.005   0.933   4.891 -0.6822 -0.7584  0.1109
  163MOL   C16949093   7.037   1.037   5.001  0.0314 -0.5760  0.2640
  163MOL   O17049094   6.959   1.135   5.017 -0.0020  0.0297 -0.0120
  163MOL   O17149095   7.156   1.015   5.066 -0.0067 -0.2121  0.1824
  163MOL   C17249096   7.212   1.088   5.176  0.0659 -0.0854 -0.4283
  163MOL   C17349097   7.156   1.030   5.306 -0.4526 -0.2572  0.4833
  163MOL   H17449098   7.091   0.860   4.708  0.0940  0.9775 -1.3767
  163MOL   H17549099   7.198   0.956   4.806  0.1566 -0.1154  0.4956
  163MOL   H17649100   6.902   0.958   4.868 -0.7612 -2.7455 -1.8971
  163MOL   H17749101   7.320   1.075   5.177  0.3297  1.7743 -2.1852
  163MOL   H17849102   7.181   1.192   5.178 -0.5651 -0.2035 -2.5112
  163MOL   H17949103   7.190   0.927   5.318 -1.7990 -0.8401 -0.6682
  163MOL   H18049104   7.048   1.029   5.311 -0.4747 -1.2366 -0.0648
  163MOL   H18149105   7.201   1.097   5.380 -0.2287  1.6848 -1.3604
  163MOL   C18249106   7.005   0.784   4.949  0.2416  0.1926 -0.1643
  163MOL   C18349107   6.936   0.758   5.088  0.1995 -0.3667  0.0557
  163MOL   C18449108   7.035   0.702   5.194  0.1641 -0.1018 -0.3392
  163MOL   O18549109   7.137   0.635   5.167  0.0140 -0.3584 -0.4970
  163MOL   O18649110   6.983   0.703   5.313 -0.2605 -0.6310  0.0972
  163MOL   C18749111   7.032   0.630   5.424 -0.0012 -0.1838  0.0406
  163MOL   C18849112   6.915   0.628   5.526 -0.1033  0.3136  0.1005
  163MOL   H18949113   6.970   0.708   4.880  1.9125 -0.3138 -0.4762
  163MOL   H19049114   7.109   0.755   4.961  0.2738  1.0169  1.7186
  163MOL   H19149115   6.898   0.856   5.119 -0.2210 -0.1468 -1.1081
  163MOL   H19249116   7.059   0.526   5.408  0.5079  0.0761 -0.8689
  163MOL   H19349117   7.116   0.682   5.470  0.4384 -0.8040 -0.0569
  163MOL   H19449118   6.826   0.588   5.479  0.8946 -0.6833 -0.9632
  163MOL   H19549119   6.890   0.730   5.555 -0.0610 -0.0251  1.3810
  163MOL   H19649120   6.946   0.565   5.610 -1.4010 -1.3694 -0.6583
  163MOL   C19749121   6.803   0.681   5.076  0.1115 -0.3887 -0.1689
  163MOL   C19849122   6.669   0.744   5.043 -0.6586 -0.5530 -0.2856
  163MOL   C19949123   6.649   0.880   5.112 -0.2711  0.0337  0.2584
  163MOL   O20049124   6.623   0.979   5.041 -0.2262  0.3729  0.4407
  163MOL   O20149125   6.655   0.879   5.245 -0.3625  0.1960  0.8879
  163MOL   C20249126   6.663   1.003   5.310 -0.2753  0.3270  0.0980
  163MOL   C20349127   6.733   0.997   5.447 -0.2605  0.1436  0.2056
  163MOL   H20449128   6.833   0.607   5.001 -1.8515 -0.3605 -1.0303
  163MOL   H20549129   6.782   0.624   5.167 -0.9423 -1.7753 -1.2561
  163MOL   H20649130   6.664   0.762   4.935  1.0154 -1.5947 -0.5550
  163MOL   H20749131   6.718   1.072   5.245  1.2049  0.0997  1.0885
  163MOL   H20849132   6.563   1.045   5.315 -0.5905 -0.3646 -0.4319
  163MOL   H20949133   6.686   0.915   5.500 -1.2043 -0.0980 -0.9831
  163MOL   H21049134   6.730   1.088   5.508  0.9960 -0.4550  1.1727
  163MOL   H21149135   6.836   0.961   5.446  0.9597  3.4806 -1.0555
  163MOL   C21249136   6.543   0.654   5.070  0.2189  0.0919  0.0373
  163MOL   C21349137   6.510   0.547   4.965 -0.5051  0.4029  0.0365
  163MOL   C21449138   6.490   0.590   4.823  0.5987 -0.1388  0.4480
  163MOL   O21549139   6.498   0.514   4.725 -0.2983  0.0377 -0.3840
  163MOL   O21649140   6.443   0.720   4.815  1.1198  0.2993  0.3227
  163MOL   C21749141   6.430   0.785   4.691  0.4935  1.0822  0.6013
  163MOL   C21849142   6.280   0.755   4.634  0.3305 -0.5502 -0.1112
  163MOL   H21949143   6.552   0.604   5.166  1.1715  0.0699 -0.0538
  163MOL   H22049144   6.455   0.716   5.085  0.1785  0.1027 -0.2553
  163MOL   H22149145   6.594   0.478   4.963 -0.1304  0.8818 -0.7529
  163MOL   H22249146   6.456   0.890   4.696  0.5350  1.0336  1.4194
  163MOL   H22349147   6.495   0.741   4.615  0.5221  0.2108  1.1146
  163MOL   H22449148   6.207   0.782   4.710 -0.1482  3.3349 -1.8637
  163MOL   H22549149   6.259   0.650   4.614 -0.3885 -0.7702  1.6496
  163MOL   H22649150   6.255   0.823   4.553  0.1653 -0.8915 -0.3482
  163MOL   C22749151   6.380   0.469   5.002 -0.1374 -0.7889  0.5249
  163MOL   C22849152   6.386   0.386   5.134 -0.2411 -0.0512  0.1006
  163MOL   C22949153   6.504   0.285   5.137 -0.0341 -0.7123 -0.5375
  163MOL   O23049154   6.560   0.255   5.032 -0.3440 -0.1617 -0.4370
  163MOL   O23149155   6.534   0.258   5.257 -0.0444  0.2906 -0.5474
  163MOL   C23249156   6.633   0.161   5.293 -0.0493  0.3620 -0.4130
  163MOL   C23349157   6.759   0.242   5.316  0.1408 -0.3470  0.4440
  163MOL   H23449158   6.300   0.542   5.012 -1.1004 -1.7287 -0.2092
  163MOL   H23549159   6.345   0.414   4.914  0.9555  0.9173 -1.0091
  163MOL   H23649160   6.403   0.453   5.217 -0.1056 -1.1370  0.9658
  163MOL   H23749161   6.606   0.122   5.391 -1.4912 -0.8181 -1.2481
  163MOL   H23849162   6.633   0.071   5.230 -1.0873  0.0308  0.0453
  163MOL   H23949163   6.827   0.183   5.377  0.3092 -0.2240  0.3742
  163MOL   H24049164   6.740   0.335   5.371 -0.5829  0.2443 -0.7878
  163MOL   H24149165   6.805   0.272   5.222 -0.2944  0.4718  0.4871
  163MOL   C24249166   6.251   0.317   5.158 -0.5276 -0.3835 -0.0976
  163MOL   C24349167   6.115   0.393   5.145 -0.3999  0.1312 -0.1637
  163MOL   C24449168   6.110   0.528   5.221 -0.2559 -0.2972 -0.3335
  163MOL   O24549169   6.195   0.571   5.305 -0.5250 -0.3108 -0.2019
  163MOL   O24649170   6.016   0.596   5.169  0.0462 -0.3119  0.2632
  163MOL   C24749171   6.002   0.732   5.212 -0.2601  0.1223 -0.0309
  163MOL   C24849172   5.861   0.785   5.184  0.0931 -0.2092  0.2858
  163MOL   H24949173   6.236   0.234   5.089 -3.1817 -0.7384  0.8194
  163MOL   H25049174   6.246   0.278   5.260  0.0739  1.2214  0.5593
  163MOL   H25149175   6.106   0.412   5.038 -1.2702  0.7262  0.0039
  163MOL   H25249176   6.025   0.737   5.319  2.7924 -1.1204 -0.5796
  163MOL   H25349177   6.076   0.804   5.178  0.6264 -0.0370  1.4853
  163MOL   H25449178   5.833   0.781   5.079 -0.7293 -1.1662  0.5379
  163MOL   H25549179   5.844   0.888   5.217  0.1866 -0.0870 -0.0394
  163MOL   H25649180   5.783   0.730   5.236 -0.1062 -0.7456 -0.5633
  163MOL   C25749181   6.003   0.299   5.206  0.3955  0.5995 -0.2893
  163MOL   C25849182   5.976   0.177   5.117  0.0959 -0.5721 -0.2409
  163MOL   C25949183   5.925   0.221   4.982 -0.2258  0.0339 -0.5718
  163MOL   O26049184   5.803   0.234   4.965 -0.3464  0.1446 -0.5183
  163MOL   O26149185   6.021   0.253   4.889  0.0201  0.1150 -0.4948
  163MOL   C26249186   5.994   0.308   4.760  0.1833 -0.0089 -0.0390
  163MOL   C26349187   6.078   0.435   4.737  0.1692  0.3117 -0.4063
  163MOL   H26449188   6.039   0.255   5.299 -0.4299  0.1326 -0.1789
  163MOL   H26549189   5.913   0.356   5.231  0.9566  1.3608  0.0384
  163MOL   H26649190   6.068   0.119   5.108 -0.8015 -1.9755 -0.5104
  163MOL   H26749191   6.002   0.246   4.671  0.1526 -1.3833  0.8906
  163MOL   H26849192   5.888   0.335   4.763 -0.1817 -1.1371 -1.8016
  163MOL   H26949193   6.184   0.423   4.760 -0.1520  0.2474  1.0388
  163MOL   H27049194   6.034   0.517   4.793  0.2490  0.8656 -1.1458
  163MOL   H27149195   6.078   0.463   4.631  3.0429 -0.2017 -0.5982
  163MOL   C27249196   5.881   0.077   5.200 -0.0244 -0.0084  0.2594
  163MOL   C27349197   5.879   7.845   5.155  0.3540  0.3375  0.9130
  163MOL   C27449198   5.799   7.824   5.023  0.4196  0.5226 -0.7399
  163MOL   O27549199   5.848   7.802   4.915 -0.3845  0.0190  0.2562
  163MOL   O27649200   5.677   7.851   5.043  0.4154  0.0656  0.4593
  163MOL   C27749201   5.582   7.851   4.938  0.8825 -0.0663  0.0601
  163MOL   C27849202   5.453   0.012   4.987  0.0394  0.0126 -0.6474
  163MOL   H27949203   5.905   0.073   5.306  2.1906 -0.7119 -0.2468
  163MOL   H28049204   5.779   0.117   5.203 -0.7645 -1.9290  1.1173
  163MOL   H28149205   5.980   7.808   5.141 -0.0356 -0.8884  1.2739
  163MOL   H28249206   5.635   7.900   4.856  5.1431 -0.6150  2.3530
  163MOL   H28349207   5.576   7.749   4.902  0.6423 -0.5543  1.4653
  163MOL   H28449208   5.466   0.119   5.008 -0.9229 -0.0247  0.1711
  163MOL   H28549209   5.402   7.857   5.059  0.9176 -0.5999 -0.5586
  163MOL   H28649210   5.384   0.020   4.904  1.7533  2.2415 -1.9315
  163MOL   C28749211   5.826   7.754   5.262  0.0124  0.6134 -0.5958
  163MOL   C28849212   5.784   7.610   5.226  0.5407 -0.0864  0.6353
  163MOL   C28949213   5.894   7.508   5.215 -0.2673 -0.2278 -0.0381
  163MOL   O29049214   6.017   7.542   5.222  0.0449 -0.1521 -0.7031
  163MOL   O29149215   5.845   7.390   5.190  0.2769  0.0822 -0.1125
  163MOL   C29249216   5.939   7.285   5.175  0.2186 -0.2912  0.3182
  163MOL   C29349217   5.872   7.155   5.164  0.5930 -0.1790 -0.2418
  163MOL   H29449218   5.890   7.737   5.349 -1.1789 -1.1743 -0.0322
  163MOL   H29549219   5.749   7.804   5.321  0.1410 -0.6559  0.6902
  163MOL   H29649220   5.713   7.574   5.299 -1.3339 -0.1069 -1.1453
  163MOL   H29749221   5.984   7.314   5.080 -1.4924  0.1407 -0.3859
  163MOL   H29849222   6.020   7.291   5.247  0.6853 -1.1838 -0.1289
  163MOL   H29949223   5.940   7.077   5.133  1.8432  0.8637 -0.1540
  163MOL   H30049224   5.786   7.167   5.098  0.5270 -0.4862 -0.2125
  163MOL   H30149225   5.843   7.125   5.265  1.5639  1.0163  0.4046
  163MOL   H30249226   5.729   7.616   5.132  0.9587 -0.4379  0.3669
  164MOL     C149227   1.090   6.311   1.013  0.5345  0.1498 -0.0336
  164MOL     C249228   1.103   6.291   0.861  0.7735  0.2396 -0.0774
  164MOL     C349229   1.193   6.401   0.800  0.5100  0.4260  0.0917
  164MOL     O449230   1.299   6.368   0.754  1.3462  0.3582 -0.2019
  164MOL     O549231   1.139   6.519   0.810  0.6309 -0.2045 -0.1037
  164MOL     C649232   1.205   6.639   0.768  0.1849  0.0804 -0.1862
  164MOL     C749233   1.283   6.701   0.887  0.2794  0.9959  0.0409
  164MOL     H849234   1.079   6.209   1.052  1.0476  0.8248  1.9232
  164MOL     H949235   1.000   6.363   1.047 -0.2665 -2.0960  1.4307
  164MOL    H1049236   1.168   6.206   0.844  1.2002  0.7194 -0.9055
  164MOL    H1149237   1.273   6.623   0.684 -1.3643 -1.8610 -1.1152
  164MOL    H1249238   1.129   6.713   0.745 -0.6267 -0.0094  2.0528
  164MOL    H1349239   1.366   6.637   0.916 -1.0808 -1.0824 -0.4934
  164MOL    H1449240   1.217   6.732   0.967 -2.2344  0.1656 -1.6430
  164MOL    H1549241   1.326   6.787   0.836 -0.3400  0.9639 -0.5484
  164MOL    H1649242   1.179   6.361   1.049  0.5165  1.3470 -1.6360
  164MOL    C1749243   0.967   6.267   0.790  0.5428  0.3627 -0.4817
  164MOL    C1849244   0.961   6.241   0.640  0.4084  0.2468 -0.6470
  164MOL    C1949245   0.899   6.358   0.558  0.1742 -0.3314  0.5759
  164MOL    O2049246   0.784   6.346   0.519  0.3654  0.3395 -0.2909
  164MOL    O2149247   0.978   6.462   0.543 -0.7483  0.4643  0.4407
  164MOL    C2249248   0.937   6.567   0.459  1.0089  0.1600 -0.3813
  164MOL    C2349249   1.061   6.613   0.381 -0.1272 -0.3299  0.4773
  164MOL    H2449250   0.900   6.197   0.841  0.4840  1.7270  1.3407
  164MOL    H2549251   0.912   6.358   0.812  0.5012  0.1919  0.1273
  164MOL    H2649252   1.061   6.222   0.600  0.3526  1.4386 -1.3958
  164MOL    H2749253   0.849   6.554   0.396  1.0323  3.3586 -1.2066
  164MOL    H2849254   0.917   6.643   0.535  2.9208  0.3876 -0.0671
  164MOL    H2949255   1.067   6.556   0.288 -0.9546 -0.7026  0.6487
  164MOL    H3049256   1.154   6.593   0.435  0.5560  1.1150 -0.1404
  164MOL    H3149257   1.062   6.721   0.369  0.1616 -0.6073 -2.2078
  164MOL    C3249258   0.883   6.112   0.612 -0.2618  0.3882 -0.3523
  164MOL    C3349259   0.904   6.066   0.461  0.0955  0.3311  0.2472
  164MOL    C3449260   0.797   5.969   0.421 -0.5881  0.1033  0.3938
  164MOL    O3549261   0.719   5.918   0.493  0.6437  0.1258 -0.0599
  164MOL    O3649262   0.798   5.947   0.285 -0.4454  0.1819  0.2069
  164MOL    C3749263   0.704   5.855   0.233 -1.1969 -0.2608 -0.0004
  164MOL    C3849264   0.708   5.866   0.078  0.1162 -0.1051  0.8489
  164MOL    H3949265   0.914   6.028   0.675  1.0064  0.9295 -0.2211
  164MOL    H4049266   0.779   6.133   0.635 -0.6545 -0.4650 -1.3459
  164MOL    H4149267   0.868   6.150   0.401 -1.5485  0.0758  0.8384
  164MOL    H4249268   0.739   5.757   0.265 -1.0935 -0.2013  0.0696
  164MOL    H4349269   0.604   5.885   0.266 -0.2716  3.5899 -0.4306
  164MOL    H4449270   0.798   5.832   0.028 -1.4453 -0.7819 -1.6218
  164MOL    H4549271   0.706   5.971   0.051  1.9373 -0.1967  0.3509
  164MOL    H4649272   0.624   5.809   0.036 -0.0016  0.5192  0.2270
  164MOL    C4749273   1.054   6.026   0.415  0.4808 -0.2763 -0.0438
  164MOL    C4849274   1.100   5.883   0.448  0.6801  0.0865 -0.3827
  164MOL    C4949275   1.114   5.858   0.597 -1.1771 -0.5538  0.1353
  164MOL    O5049276   1.175   5.938   0.670 -0.5274 -0.0143 -0.4960
  164MOL    O5149277   1.058   5.750   0.639  0.6034  0.2691 -0.1328
  164MOL    C5249278   1.099   5.712   0.772 -0.1858 -0.4427 -0.1783
  164MOL    C5349279   1.035   5.576   0.790 -0.3797  0.1111  0.0045
  164MOL    H5449280   1.063   6.047   0.309  1.4255  1.9911  0.4478
  164MOL    H5549281   1.131   6.096   0.448 -0.4111 -0.2003  2.0031
  164MOL    H5649282   1.036   5.802   0.412  4.2160 -3.3139  0.6989
  164MOL    H5749283   1.206   5.719   0.789 -0.2942 -1.0081  0.7887
  164MOL    H5849284   1.049   5.770   0.849  1.1104  1.1133 -0.4754
  164MOL    H5949285   0.927   5.579   0.804 -0.4857  0.6123 -0.8826
  164MOL    H6049286   1.079   5.525   0.875 -1.2060 -0.6256 -0.0049
  164MOL    H6149287   1.059   5.510   0.706  0.2416 -1.3395  1.2822
  164MOL    C6249288   1.223   5.850   0.374  0.6811 -0.2076 -0.4853
  164MOL    C6349289   1.231   5.700   0.327 -0.0682 -0.2102 -0.6083
  164MOL    C6449290   1.140   5.685   0.209 -0.2278  0.2412 -0.0587
  164MOL    O6549291   1.016   5.655   0.209 -0.1946 -0.5535  0.0782
  164MOL    O6649292   1.201   5.731   0.095 -0.1050 -0.0698 -0.5190
  164MOL    C6749293   1.125   5.756   7.891 -0.0932  0.1752  0.2291
  164MOL    C6849294   1.106   5.909   7.888  0.1367  0.8940  0.0867
  164MOL    H6949295   1.238   5.919   0.291  3.0165 -0.8983 -0.6863
  164MOL    H7049296   1.304   5.880   0.442  0.7728 -0.8751 -0.2960
  164MOL    H7149297   1.331   5.688   0.286 -0.1498 -0.3728 -0.7606
  164MOL    H7249298   1.183   5.722   7.806  1.1280  0.5990  0.8863
  164MOL    H7349299   1.031   5.701   7.880  0.0102  0.4609 -2.3103
  164MOL    H7449300   1.046   5.947   0.062  1.8928  1.5558  1.0807
  164MOL    H7549301   1.051   5.926   7.795  0.9174  0.4855 -0.4565
  164MOL    H7649302   1.194   5.973   7.891 -0.7257  2.0577  1.1944
  164MOL    C7749303   1.220   5.580   0.424 -0.2938  0.6820  0.3893
  164MOL    C7849304   1.248   5.435   0.372 -0.0964 -0.0773  0.4007
  164MOL    C7949305   1.194   5.319   0.461 -0.4098 -0.4448  0.0933
  164MOL    O8049306   1.181   5.332   0.584  0.4335  0.3030  0.3168
  164MOL    O8149307   1.183   5.195   0.396  0.1187 -0.2547 -0.4355
  164MOL    C8249308   1.110   5.089   0.454  0.1477 -0.4094 -0.3030
  164MOL    C8349309   1.093   4.977   0.354  0.0796  0.3772 -0.5202
  164MOL    H8449310   1.286   5.601   0.508  0.1032 -0.2589  0.3144
  164MOL    H8549311   1.119   5.594   0.462 -0.2412  1.2355  0.3332
  164MOL    H8649312   1.190   5.428   0.280 -2.0161 -0.4247  1.6117
  164MOL    H8749313   1.173   5.057   0.537 -1.4304  3.9598  2.7076
  164MOL    H8849314   1.016   5.127   0.493  0.3703  1.1827 -1.2580
  164MOL    H8949315   1.033   5.007   0.267  0.5018  0.7992 -0.6648
  164MOL    H9049316   1.038   4.895   0.401  3.0638 -2.1013 -1.1654
  164MOL    H9149317   1.183   4.939   0.305  0.1355 -1.0338  0.6435
  164MOL    C9249318   1.397   5.418   0.334 -0.4160  0.2428  0.7012
  164MOL    C9349319   1.427   5.411   0.187 -0.0283 -0.8998 -0.5194
  164MOL    C9449320   1.391   5.271   0.135  0.2717 -0.4212  0.5109
  164MOL    O9549321   1.298   5.257   0.059 -0.0232  0.4685 -0.5681
  164MOL    O9649322   1.467   5.174   0.176 -0.4084  0.5045  0.2274
  164MOL    C9749323   1.442   5.045   0.130 -0.1474  0.6972  0.5980
  164MOL    C9849324   1.569   4.953   0.137  0.3045  0.8647  0.0607
  164MOL    H9949325   1.438   5.510   0.375 -2.1071  1.1395  0.4192
  164MOL   H10049326   1.454   5.346   0.392 -1.8235  0.3888  2.3096
  164MOL   H10149327   1.378   5.490   0.130 -1.5130 -0.8505  0.7870
  164MOL   H10249328   1.366   4.993   0.188  0.0652  0.7140  0.8917
  164MOL   H10349329   1.414   5.045   0.025  1.3749 -1.6127  0.1554
  164MOL   H10449330   1.602   4.955   0.241 -0.2581  1.1993  0.2381
  164MOL   H10549331   1.646   4.982   0.066  0.7980 -0.8382 -0.1180
  164MOL   H10649332   1.528   4.851   0.133 -1.2471  1.4673  0.0002
  164MOL   C10749333   1.576   5.438   0.151  1.0187 -0.1204  0.8652
  164MOL   C10849334   1.601   5.452   7.904 -0.3883  0.8911  0.1052
  164MOL   C10949335   1.742   5.393   7.876  0.6322  0.7545  0.3793
  164MOL   O11049336   1.757   5.278   7.834  0.0317  0.0981 -0.1937
  164MOL   O11149337   1.842   5.478   7.900  0.3332  1.0015  0.0915
  164MOL   C11249338   1.972   5.435   7.863 -0.0348 -0.0491  0.6412
  164MOL   C11349339   2.076   5.541   7.906  0.8146 -0.2342 -0.2505
  164MOL   H11449340   1.605   5.538   0.184 -0.3280  1.4441 -2.4338
  164MOL   H11549341   1.641   5.363   0.196  1.1689 -1.2228 -1.1375
  164MOL   H11649342   1.543   5.382   7.843  0.6800 -0.2316  0.3330
  164MOL   H11749343   1.998   5.338   7.906 -1.8642 -1.7299 -1.8683
  164MOL   H11849344   1.982   5.421   7.755 -0.5628  2.4939  0.2314
  164MOL   H11949345   2.049   5.642   7.877  2.8711  0.5160  0.3582
  164MOL   H12049346   2.171   5.529   7.853  1.3727  1.0096  0.4508
  164MOL   H12149347   2.086   5.529   0.105 -0.7979 -0.6251 -0.1423
  164MOL   C12249348   1.565   5.601   7.855 -0.7327  0.1449 -0.2260
  164MOL   C12349349   1.564   5.634   7.700 -0.2424 -0.2385  0.8080
  164MOL   C12449350   1.492   5.528   7.615 -0.7233 -0.8018  0.5286
  164MOL   O12549351   1.554   5.464   7.532  0.3450 -0.3154  0.6588
  164MOL   O12649352   1.366   5.532   7.634  0.0340 -0.4600  0.5790
  164MOL   C12749353   1.288   5.437   7.559 -0.3897 -0.0873  0.0771
  164MOL   C12849354   1.200   5.362   7.657 -0.3457 -0.2256  0.3036
  164MOL   H12949355   1.466   5.625   7.893 -0.4876 -3.1264  2.6598
  164MOL   H13049356   1.638   5.677   7.884 -1.7125  0.5762  1.1664
  164MOL   H13149357   1.508   5.728   7.696  1.1703  0.6680  1.5978
  164MOL   H13249358   1.217   5.490   7.495  1.1511  1.1158 -0.6393
  164MOL   H13349359   1.340   5.372   7.489  2.0295  1.4870  0.3666
  164MOL   H13449360   1.258   5.301   7.726 -1.3024 -1.8520 -0.3079
  164MOL   H13549361   1.137   5.287   7.608 -1.6937  0.3909  1.0656
  164MOL   H13649362   1.140   5.440   7.705 -3.2215 -0.3517 -2.8874
  164MOL   C13749363   1.708   5.659   7.646  0.3251  0.4119  1.0476
  164MOL   C13849364   1.729   5.712   7.494  0.2137 -0.0690  0.7769
  164MOL   C13949365   1.875   5.707   7.455  0.0568  0.4709  0.3717
  164MOL   O14049366   1.905   5.668   7.339 -0.8712  0.3471 -0.1421
  164MOL   O14149367   1.961   5.764   7.555  0.0362 -0.0353  0.1540
  164MOL   C14249368   2.100   5.766   7.524  0.6894  0.6988  0.3323
  164MOL   C14349369   2.165   5.622   7.541 -0.3206 -0.2493  0.5488
  164MOL   H14449370   1.765   5.729   7.707 -0.2639 -0.4872  2.6705
  164MOL   H14549371   1.749   5.561   7.670 -2.5037 -0.9152  0.6386
  164MOL   H14649372   1.686   5.639   7.425 -1.6558  0.3659  1.4567
  164MOL   H14749373   2.112   5.787   7.418  2.0639  1.3517  0.6114
  164MOL   H14849374   2.147   5.847   7.580 -1.2389  1.1648  1.3270
  164MOL   H14949375   2.266   5.633   7.501 -0.1551 -1.2931  0.6673
  164MOL   H15049376   2.120   5.541   7.483  0.7124 -0.3993 -0.0633
  164MOL   H15149377   2.176   5.594   7.646 -1.7178  0.7037  0.9554
  164MOL   C15249378   1.659   5.852   7.478  0.4994 -0.5728  0.0864
  164MOL   C15349379   1.638   5.911   7.334 -0.0842  0.2123  0.4098
  164MOL   C15449380   1.653   6.063   7.354  0.2643  0.3136 -0.0753
  164MOL   O15549381   1.765   6.120   7.333  0.2633  0.1720  0.3251
  164MOL   O15649382   1.544   6.131   7.392  0.2329 -0.3009 -0.3238
  164MOL   C15749383   1.541   6.275   7.406 -0.9441  0.0173 -0.0678
  164MOL   C15849384   1.407   6.331   7.457  1.0143 -0.2494 -0.6623
  164MOL   H15949385   1.559   5.859   7.521  0.2889  1.1868 -0.6587
  164MOL   H16049386   1.716   5.920   7.542 -1.8170  2.3653 -0.8475
  164MOL   H16149387   1.730   5.885   7.282 -2.0262 -1.1897 -2.4569
  164MOL   H16249388   1.625   6.311   7.465 -1.3998 -0.3100  0.7786
  164MOL   H16349389   1.549   6.315   7.304  0.6124  0.3389  0.1630
  164MOL   H16449390   1.387   6.299   7.559  0.1112 -1.5034 -1.2310
  164MOL   H16549391   1.319   6.299   7.402  0.6096 -0.2860  0.0076
  164MOL   H16649392   1.402   6.440   7.454 -2.5939 -0.3114  1.0874
  164MOL   C16749393   1.503   5.869   7.259 -0.1029  0.1439 -1.1062
  164MOL   C16849394   1.478   5.718   7.234 -0.0069 -0.3019  0.0352
  164MOL   C16949395   1.561   5.675   7.108 -0.7138  0.3739  0.3410
  164MOL   O17049396   1.587   5.750   7.015 -0.1972  0.5018 -0.5573
  164MOL   O17149397   1.603   5.550   7.119 -0.3971  0.6097  0.7381
  164MOL   C17249398   1.679   5.491   7.011  0.1318  0.5061  0.1752
  164MOL   C17349399   1.823   5.480   7.053 -0.3771  0.0175  0.2963
  164MOL   H17449400   1.424   5.903   7.325  1.2192 -1.4793  1.4131
  164MOL   H17549401   1.485   5.933   7.173 -1.2306  0.0884 -0.9204
  164MOL   H17649402   1.520   5.657   7.314  2.5366 -0.0604 -1.0745
  164MOL   H17749403   1.657   5.386   6.993 -0.7680  1.1732 -2.8973
  164MOL   H17849404   1.684   5.544   6.916 -1.4773  1.6157  0.6905
  164MOL   H17949405   1.832   5.439   7.153 -1.2057  0.9154  0.7524
  164MOL   H18049406   1.869   5.579   7.046 -0.3579  0.0887  1.3686
  164MOL   H18149407   1.891   5.414   6.998  1.4655  1.2447  1.0371
  164MOL   C18249408   1.328   5.672   7.225 -0.2218  0.3473 -0.2859
  164MOL   C18349409   1.248   5.713   7.104  0.0215  0.6709  0.3405
  164MOL   C18449410   1.231   5.867   7.090  0.7360 -0.7584  0.8927
  164MOL   O18549411   1.174   5.924   7.181 -0.1309  0.4806  0.3643
  164MOL   O18649412   1.291   5.925   6.986  0.2026  0.4923 -0.2452
  164MOL   C18749413   1.287   6.068   6.976 -0.2377 -0.0869  0.9912
  164MOL   C18849414   1.321   6.130   6.845 -0.0523  0.0997  0.0056
  164MOL   H18949415   1.334   5.563   7.229 -0.8651  0.3689  3.0372
  164MOL   H19049416   1.280   5.709   7.315  0.1296  0.7183 -0.2516
  164MOL   H19149417   1.306   5.697   7.013 -0.9914 -1.6634  0.0873
  164MOL   H19249418   1.192   6.100   7.017  0.9956  0.5844  3.4409
  164MOL   H19349419   1.349   6.115   7.053  0.2812  0.4490  0.2512
  164MOL   H19449420   1.250   6.107   6.765 -0.5838  1.3483  0.1161
  164MOL   H19549421   1.422   6.105   6.812 -0.1677  0.6690 -0.7919
  164MOL   H19649422   1.322   6.239   6.846  0.2503  0.1175  3.0684
  164MOL   C19749423   1.112   5.638   7.102 -0.2018 -0.8648 -0.2761
  164MOL   C19849424   1.108   5.498   7.042  0.0823  0.6759 -0.1362
  164MOL   C19949425   1.117   5.510   6.889  1.5032 -0.9143  0.6086
  164MOL   O20049426   1.017   5.531   6.814  0.2028 -0.7998 -0.0502
  164MOL   O20149427   1.242   5.525   6.850  0.1900  0.5268 -0.1347
  164MOL   C20249428   1.261   5.557   6.712  0.6015  0.2995  0.4231
  164MOL   C20349429   1.397   5.625   6.692 -0.5899 -0.0128  0.4561
  164MOL   H20449430   1.062   5.638   7.199 -0.8732 -1.9287 -0.6048
  164MOL   H20549431   1.043   5.702   7.048  0.2539  1.1038  1.4119
  164MOL   H20649432   1.196   5.441   7.069 -2.2383 -0.0893  6.7884
  164MOL   H20749433   1.240   5.467   6.654  1.3674  2.2916 -3.0776
  164MOL   H20849434   1.188   5.633   6.684  0.1794  0.8962  3.0071
  164MOL   H20949435   1.394   5.709   6.762 -3.0933  0.7527 -0.5034
  164MOL   H21049436   1.418   5.665   6.593 -2.6669  1.4169  0.5549
  164MOL   H21149437   1.483   5.567   6.724  0.9253  2.4024  0.8683
  164MOL   C21249438   0.973   5.429   7.080  0.1835  0.1415 -0.0012
  164MOL   C21349439   0.970   5.369   7.225 -0.1999 -0.6697 -0.6268
  164MOL   C21449440   1.055   5.247   7.236 -0.3532 -0.3681  0.5291
  164MOL   O21549441   1.164   5.258   7.288  0.1626  0.3331  0.2477
  164MOL   O21649442   0.994   5.137   7.193 -0.4709  0.2826 -0.0780
  164MOL   C21749443   1.069   5.018   7.207 -0.1854 -0.5400  0.3376
  164MOL   C21849444   0.966   4.909   7.224 -0.2453  0.4308 -0.1792
  164MOL   H21949445   0.887   5.496   7.072  1.8026  2.3040 -0.0017
  164MOL   H22049446   0.948   5.351   7.009  0.1107 -0.1178  0.3108
  164MOL   H22149447   1.014   5.453   7.279  0.3514 -0.8311 -0.8135
  164MOL   H22249448   1.124   4.993   7.116 -2.3702  2.0203 -1.7841
  164MOL   H22349449   1.142   5.028   7.288  0.6316 -1.2662 -0.3031
  164MOL   H22449450   1.023   4.816   7.226 -0.9013 -0.0756 -2.8849
  164MOL   H22549451   0.887   4.925   7.150 -0.6351 -1.1826 -0.1303
  164MOL   H22649452   0.915   4.908   7.320  0.5751  0.0982  0.2576
  164MOL   C22749453   0.824   5.365   7.273 -0.8974  0.6545  0.5091
  164MOL   C22849454   0.800   5.315   7.420 -0.4652 -0.3801 -0.1689
  164MOL   C22949455   0.650   5.309   7.451  0.1077 -0.7911  0.0937
  164MOL   O23049456   0.568   5.351   7.373 -0.5882  0.0094  0.2435
  164MOL   O23149457   0.622   5.259   7.575  0.7589  0.3623 -0.1646
  164MOL   C23249458   0.488   5.230   7.607  1.0980  0.1680  0.3415
  164MOL   C23349459   0.478   5.170   7.752 -0.0723  0.2498  0.1833
  164MOL   H23449460   0.769   5.458   7.256 -0.0709  1.3477  1.5926
  164MOL   H23549461   0.766   5.295   7.213  0.6644 -0.8182  0.6678
  164MOL   H23649462   0.838   5.213   7.412 -0.1723 -0.4342  1.5504
  164MOL   H23749463   0.424   5.316   7.588  0.0905 -1.0990 -2.3106
  164MOL   H23849464   0.459   5.137   7.556 -0.2523 -0.3915  2.0979
  164MOL   H23949465   0.515   5.241   7.826 -1.5244 -0.6463  1.8039
  164MOL   H24049466   0.523   5.071   7.750  0.3301  0.4249  0.3960
  164MOL   H24149467   0.373   5.162   7.779  0.6833 -1.2337  2.7795
  164MOL   C24249468   0.872   5.403   7.524 -0.0303 -0.3504  0.1421
  164MOL   C24349469   0.811   5.547   7.555  0.5404 -0.5333 -0.1383
  164MOL   C24449470   0.865   5.657   7.467 -0.4685  0.4670 -0.5072
  164MOL   O24549471   0.990   5.667   7.449  0.1146  0.1231  0.1932
  164MOL   O24649472   0.773   5.730   7.411 -0.3041  0.0443 -0.1017
  164MOL   C24749473   0.823   5.831   7.328 -0.3654 -0.0299 -0.2348
  164MOL   C24849474   0.711   5.899   7.255 -0.0793  0.0654  0.0671
  164MOL   H24949475   0.863   5.353   7.620  0.1275  0.3501  0.5267
  164MOL   H25049476   0.978   5.416   7.501  0.3756 -1.7064  1.1694
  164MOL   H25149477   0.705   5.539   7.532  0.1462 -1.1357  1.7739
  164MOL   H25249478   0.865   5.914   7.385  3.0176 -2.2252  0.5877
  164MOL   H25349479   0.895   5.790   7.257 -1.1480 -0.8391 -0.5736
  164MOL   H25449480   0.667   5.837   7.177  0.9241 -1.1264  0.4311
  164MOL   H25549481   0.758   5.981   7.201 -0.3757 -0.4067 -0.9252
  164MOL   H25649482   0.627   5.915   7.323 -0.5270  2.1666 -0.9419
  164MOL   C25749483   0.834   5.579   7.705  0.0467 -0.2151  0.2710
  164MOL   C25849484   0.729   5.505   7.801  0.6992 -0.2159 -1.3106
  164MOL   C25949485   0.587   5.565   7.782  0.0366  0.3568 -0.4588
  164MOL   O26049486   0.565   5.655   7.702 -0.1368 -0.2498 -0.2162
  164MOL   O26149487   0.505   5.508   7.858  0.4418  0.4108  0.5867
  164MOL   C26249488   0.365   5.552   7.860 -0.6616 -0.7907 -0.6236
  164MOL   C26349489   0.306   5.485   0.080 -0.3214  0.1565  0.1822
  164MOL   H26449490   0.936   5.552   7.732 -0.1390 -1.4145 -0.1898
  164MOL   H26549491   0.829   5.687   7.718  2.5258  0.2265 -1.9649
  164MOL   H26649492   0.719   5.402   7.768  2.8222 -1.0927  0.6457
  164MOL   H26749493   0.361   5.660   7.876  1.5496 -1.1947  3.4662
  164MOL   H26849494   0.306   5.533   7.771  0.6182 -1.5597 -1.3150
  164MOL   H26949495   0.375   5.488   0.165  2.2500 -0.5997 -1.8238
  164MOL   H27049496   0.298   5.377   0.065 -0.3413 -0.2120  2.5721
  164MOL   H27149497   0.203   5.496   0.114 -0.2923 -2.0122  1.0939
  164MOL   C27249498   0.788   5.516   0.041  0.5159 -0.6375 -0.5969
  164MOL   C27349499   0.720   5.417   0.141 -0.0467 -1.0132  0.1086
  164MOL   C27449500   0.753   5.451   0.283 -0.0328 -0.0571  0.5196
  164MOL   O27549501   0.859   5.423   0.337 -0.5022  0.4929  0.5250
  164MOL   O27649502   0.652   5.522   0.341 -0.0010 -0.5719 -0.4046
  164MOL   C27749503   0.670   5.575   0.473  0.3694 -1.0041  0.6926
  164MOL   C27849504   0.626   5.476   0.576 -0.2914  0.1132 -0.0644
  164MOL   H27949505   0.890   5.482   0.058  1.0513  1.5604  0.7615
  164MOL   H28049506   0.803   5.610   0.093 -0.2599 -1.0422  0.3639
  164MOL   H28149507   0.613   5.435   0.136  0.6168  3.2048 -0.2527
  164MOL   H28249508   0.774   5.606   0.484 -0.3348  2.5122 -1.6435
  164MOL   H28349509   0.603   5.661   0.486 -1.0132 -1.9587 -0.0016
  164MOL   H28449510   0.632   5.524   0.673  0.0447  4.3193 -2.0628
  164MOL   H28549511   0.681   5.382   0.577 -1.0359 -0.3230  0.5227
  164MOL   H28649512   0.520   5.454   0.561 -0.5013  0.9367  0.2108
  164MOL   C28749513   0.749   5.265   0.106  0.5900 -0.0192  0.3857
  164MOL   C28849514   0.888   5.219   0.082 -0.0910 -0.7603 -0.6744
  164MOL   C28949515   0.904   5.102   7.888  0.2348 -0.1832 -0.3801
  164MOL   O29049516   0.855   5.112   7.775  0.0745  0.2739 -0.0641
  164MOL   O29149517   0.981   4.998   0.022 -0.3761 -0.3457  0.5100
  164MOL   C29249518   1.024   4.900   7.841 -0.0561 -0.2293 -0.5169
  164MOL   C29349519   1.182   4.892   7.840 -0.0323 -0.3331  0.8062
  164MOL   H29449520   0.704   5.203   0.183  1.6110 -0.9161  0.2726
  164MOL   H29549521   0.698   5.241   0.012 -0.7223  1.9661  0.5611
  164MOL   H29649522   0.965   5.295   0.068  1.2275 -1.8545  0.4821
  164MOL   H29749523   0.992   4.804   7.882 -0.8454  0.1877 -0.1420
  164MOL   H29849524   0.975   4.917   7.745 -4.7821 -1.5846  1.4940
  164MOL   H29949525   1.225   4.986   7.805 -1.7802  0.0333 -0.4013
  164MOL   H30049526   1.229   4.815   7.780  0.8625  2.1086 -1.7017
  164MOL   H30149527   1.211   4.871   0.035 -0.6682 -0.4041  0.9753
  164MOL   H30249528   0.927   5.188   0.179  0.8100  1.3795 -0.3277
  165MOL     C149529   6.579   4.647   7.092 -0.3555 -0.1287  0.4410
  165MOL     C249530   6.476   4.566   7.168 -0.9675  0.3266 -0.5427
  165MOL     C349531   6.359   4.652   7.225  0.5980  0.0849 -0.7796
  165MOL     O449532   6.357   4.775   7.223 -0.2274  0.4678  0.4117
  165MOL     O549533   6.259   4.581   7.268  0.5358  0.6506  0.4547
  165MOL     C649534   6.150   4.647   7.331 -0.1530 -0.1385 -0.4265
  165MOL     C749535   6.155   4.629   7.484 -0.2967 -0.1620  0.5251
  165MOL     H849536   6.614   4.740   7.136  4.1332 -1.8934  0.8132
  165MOL     H949537   6.536   4.681   6.998  2.9981  0.8832 -0.8088
  165MOL    H1049538   6.433   4.495   7.097  0.7603 -0.6458 -0.6284
  165MOL    H1149539   6.132   4.754   7.323  3.0859  0.5388  0.7114
  165MOL    H1249540   6.061   4.592   7.299 -1.2217  1.0881  0.3491
  165MOL    H1349541   6.124   4.527   7.502  0.5382 -0.4696  0.2556
  165MOL    H1449542   6.098   4.705   7.538  0.2563 -0.5122  1.6030
  165MOL    H1549543   6.256   4.634   7.525  0.2438 -0.1325 -0.7839
  165MOL    H1649544   6.663   4.588   7.054 -1.3943 -0.6502 -1.1129
  165MOL    C1749545   6.540   4.476   7.279 -0.3785  0.1531  0.1535
  165MOL    C1849546   6.618   4.354   7.223  0.2297 -0.4232 -0.0562
  165MOL    C1949547   6.527   4.229   7.219  0.3106 -0.5031 -0.0248
  165MOL    O2049548   6.512   4.160   7.322  0.2826 -0.2428  0.2034
  165MOL    O2149549   6.469   4.219   7.097  0.1883  0.1091  0.3521
  165MOL    C2249550   6.364   4.122   7.085 -0.1025 -0.0500 -0.4611
  165MOL    C2349551   6.235   4.187   7.125  0.1524 -0.0984  0.2525
  165MOL    H2449552   6.607   4.549   7.324  1.0250 -1.3483  0.5463
  165MOL    H2549553   6.465   4.448   7.352 -1.0727  0.5826 -0.3928
  165MOL    H2649554   6.657   4.372   7.123 -0.3266  4.1651  0.4629
  165MOL    H2749555   6.341   4.093   6.983 -1.7597 -0.8062  0.0993
  165MOL    H2849556   6.388   4.035   7.147 -1.9178  0.5734  1.1593
  165MOL    H2949557   6.242   4.244   7.218 -1.8156 -0.7857  0.8620
  165MOL    H3049558   6.152   4.116   7.130  1.1693 -1.3835 -0.6140
  165MOL    H3149559   6.206   4.251   7.042  0.5056 -3.7274 -2.8358
  165MOL    C3249560   6.742   4.325   7.310  0.5111 -0.0093 -0.5326
  165MOL    C3349561   6.850   4.432   7.319 -0.5543  0.5756 -0.3523
  165MOL    C3449562   6.911   4.465   7.183 -0.5309  0.0331 -0.3667
  165MOL    O3549563   6.945   4.385   7.097  0.3017 -0.1409  0.3404
  165MOL    O3649564   6.937   4.594   7.172 -0.4459  0.2806  0.5251
  165MOL    C3749565   6.997   4.648   7.055 -0.5510 -0.8346 -0.4277
  165MOL    C3849566   7.146   4.651   7.069  0.1851 -0.4737  0.2707
  165MOL    H3949567   6.713   4.293   7.410  2.4592  0.3793  0.1631
  165MOL    H4049568   6.789   4.234   7.272  0.4888 -1.0081  1.7444
  165MOL    H4149569   6.817   4.525   7.366 -0.7328  0.4622 -0.2546
  165MOL    H4249570   6.968   4.595   6.965  0.6791 -1.2421 -0.5939
  165MOL    H4349571   6.961   4.749   7.040  0.1796 -0.3614  0.9060
  165MOL    H4449572   7.203   4.690   6.986  1.0328 -0.8255  0.6852
  165MOL    H4549573   7.189   4.553   7.091  0.7337 -0.4896 -0.8594
  165MOL    H4649574   7.172   4.714   7.154  0.2236 -0.7474  0.4650
  165MOL    C4749575   6.946   4.400   7.439 -0.3776  0.2723  0.4164
  165MOL    C4849576   7.071   4.309   7.412 -0.3491 -0.1458 -0.1287
  165MOL    C4949577   7.028   4.168   7.422  0.5546  0.1095  0.1761
  165MOL    O5049578   6.986   4.120   7.526 -0.0061  0.0069 -0.3614
  165MOL    O5149579   7.032   4.111   7.301  0.5664  0.5236  0.0805
  165MOL    C5249580   6.958   3.999   7.274  0.6424 -0.7851 -0.1732
  165MOL    C5349581   7.048   3.888   7.241 -0.2056  0.6255 -0.1055
  165MOL    H5449582   6.989   4.499   7.457 -0.2418 -0.0336  1.7493
  165MOL    H5549583   6.891   4.380   7.531 -4.3211 -0.4854 -1.9783
  165MOL    H5649584   7.110   4.326   7.311 -0.8143  0.2118 -0.2471
  165MOL    H5749585   6.886   3.972   7.351 -0.6379  1.1476 -0.6607
  165MOL    H5849586   6.901   4.025   7.185  1.0996 -0.6761 -0.4341
  165MOL    H5949587   7.102   3.849   7.327 -1.3744  0.3114  0.4821
  165MOL    H6049588   7.124   3.917   7.168  1.2846  2.8208  2.2346
  165MOL    H6149589   6.993   3.808   7.191 -0.2896 -1.1897  2.7918
  165MOL    C6249590   7.197   4.327   7.507 -0.1625 -0.3189  0.4405
  165MOL    C6349591   7.333   4.262   7.452  0.1920  0.2624  0.6169
  165MOL    C6449592   7.444   4.233   7.559  0.2051  0.7178 -0.6902
  165MOL    O6549593   7.464   4.115   7.585  0.4587  0.3898 -0.3987
  165MOL    O6649594   7.471   4.343   7.639 -0.5293 -0.5275  0.5289
  165MOL    C6749595   7.558   4.320   7.744 -0.3379 -0.2769 -0.2645
  165MOL    C6849596   7.608   4.462   7.781  0.0137  0.4222  0.0521
  165MOL    H6949597   7.215   4.435   7.513 -0.5637 -0.2675  0.7535
  165MOL    H7049598   7.169   4.300   7.609  0.9793  1.8010  1.3598
  165MOL    H7149599   7.305   4.170   7.402  1.6902  0.2638 -0.2299
  165MOL    H7249600   7.515   4.266   7.828  0.6291 -1.7705 -0.7237
  165MOL    H7349601   7.642   4.263   7.705 -0.9174 -1.0571 -0.3639
  165MOL    H7449602   7.689   4.468   7.854 -1.9361  0.1790  2.3176
  165MOL    H7549603   7.526   4.522   7.821 -1.1505 -0.4016 -1.0697
  165MOL    H7649604   7.629   4.511   7.686 -0.5006 -1.6485 -1.1573
  165MOL    C7749605   7.392   4.345   7.338  0.5163  0.4583 -0.5391
  165MOL    C7849606   7.458   4.269   7.216  0.3129  0.1678  0.1960
  165MOL    C7949607   7.570   4.170   7.259  0.7323 -0.0220  0.2686
  165MOL    O8049608   7.683   4.211   7.294  0.0723 -0.2345 -0.1441
  165MOL    O8149609   7.522   4.051   7.281 -0.0940  0.3999 -0.0794
  165MOL    C8249610   7.606   3.936   7.299 -0.0980  0.1293  0.0698
  165MOL    C8349611   7.539   3.844   7.403 -0.3349  0.0595 -0.1155
  165MOL    H8449612   7.319   4.418   7.303 -0.4705  0.7700  2.0013
  165MOL    H8549613   7.478   4.395   7.384  0.8842  1.0631 -1.8671
  165MOL    H8649614   7.379   4.214   7.166  1.2634  0.8886 -2.1473
  165MOL    H8749615   7.619   3.895   7.199 -3.7582  1.4276 -1.0241
  165MOL    H8849616   7.701   3.964   7.344 -0.0509  0.0614  0.0141
  165MOL    H8949617   7.534   3.894   7.500 -0.5312  1.2423 -0.7251
  165MOL    H9049618   7.604   3.756   7.402  0.9782  0.9921  0.8135
  165MOL    H9149619   7.438   3.826   7.367 -0.3580 -0.2385  0.0979
  165MOL    C9249620   7.506   4.369   7.114  0.1288 -0.1629  0.6916
  165MOL    C9349621   7.556   4.309   6.975  0.5398  0.1523 -0.2108
  165MOL    C9449622   7.612   4.414   6.880 -0.5100  0.7360 -0.1841
  165MOL    O9549623   7.545   4.496   6.820  0.0440 -0.2052 -0.9604
  165MOL    O9649624   7.741   4.402   6.863  0.1004  0.0774 -0.8099
  165MOL    C9749625   7.803   4.493   6.780 -0.6100 -0.3959 -0.1763
  165MOL    C9849626   0.037   4.444   6.752 -0.2471 -0.1860 -1.1834
  165MOL    H9949627   7.427   4.444   7.105  0.5882  0.2852  0.3663
  165MOL   H10049628   7.587   4.418   7.169  1.9141  0.2381 -2.1789
  165MOL   H10149629   7.636   4.238   7.000 -0.8424 -0.6347  2.0388
  165MOL   H10249630   7.747   4.505   6.687  0.5270  0.9845 -0.7040
  165MOL   H10349631   7.803   4.590   6.831  0.2871  0.5602 -1.9377
  165MOL   H10449632   0.033   4.346   6.705  1.3755 -0.2086 -1.2836
  165MOL   H10549633   0.107   4.432   6.835 -1.5507  2.0378  0.3021
  165MOL   H10649634   0.084   4.506   6.676 -0.1285  0.5998 -0.4773
  165MOL   C10749635   7.451   4.220   6.901  0.4664 -0.3612 -0.1096
  165MOL   C10849636   7.486   4.143   6.771  0.2946  1.0751 -0.5019
  165MOL   C10949637   7.596   4.037   6.782  0.0645 -0.5912 -0.2385
  165MOL   O11049638   7.578   3.916   6.772  0.5182 -0.6203 -0.6127
  165MOL   O11149639   7.714   4.096   6.804  0.0701  0.0659  0.2532
  165MOL   C11249640   7.828   4.018   6.817  0.0391 -0.2732 -0.1122
  165MOL   C11349641   7.843   3.958   6.952 -0.4634 -0.7166 -0.6239
  165MOL   H11449642   7.408   4.154   6.976 -1.3258  0.7070 -0.1674
  165MOL   H11549643   7.367   4.284   6.874 -0.4328 -1.2692  0.5325
  165MOL   H11649644   7.394   4.089   6.748  1.2412  0.4936 -3.0322
  165MOL   H11749645   7.822   3.949   6.732  0.5352  2.8250 -2.7559
  165MOL   H11849646   0.000   4.090   6.805  1.0712 -0.9333  2.5200
  165MOL   H11949647   7.803   4.031   7.023 -0.2167 -1.5085  0.3237
  165MOL   H12049648   0.037   3.930   6.973 -1.0288 -1.6817  0.8738
  165MOL   H12149649   7.793   3.862   6.963  0.0699 -1.0544 -1.1236
  165MOL   C12249650   7.505   4.234   6.642 -0.7012 -0.3501  0.3590
  165MOL   C12349651   7.494   4.151   6.506  0.3157 -0.3962 -0.5101
  165MOL   C12449652   7.562   4.226   6.396 -0.1780 -0.4247  0.7454
  165MOL   O12549653   7.666   4.178   6.354 -0.5358  0.2772  0.1836
  165MOL   O12649654   7.503   4.348   6.350  0.0232  0.2320 -0.1399
  165MOL   C12749655   7.574   4.416   6.248 -0.3728 -0.2226  0.3753
  165MOL   C12849656   7.460   4.477   6.169  0.0982 -0.1439 -0.0491
  165MOL   H12949657   7.427   4.310   6.645  1.3169  1.8125 -0.1510
  165MOL   H13049658   7.594   4.295   6.655  0.2333 -1.6905  0.3125
  165MOL   H13149659   7.544   4.055   6.518  0.9211 -0.0584 -0.2895
  165MOL   H13249660   7.650   4.480   6.293 -1.7804  2.0238 -0.3436
  165MOL   H13349661   7.625   4.346   6.182  1.5154  0.1098  1.4673
  165MOL   H13449662   7.491   4.521   6.075 -1.5776  1.9739  0.3574
  165MOL   H13549663   7.403   4.542   6.236 -0.0765 -0.6270  0.2703
  165MOL   H13649664   7.391   4.394   6.153 -3.7592  2.9364 -0.0708
  165MOL   C13749665   7.344   4.122   6.478  0.5624 -0.3130  0.2486
  165MOL   C13849666   7.308   4.019   6.365 -0.1445  0.5564  0.4952
  165MOL   C13949667   7.269   4.089   6.227 -1.1599  0.6735 -0.1088
  165MOL   O14049668   7.155   4.120   6.207 -0.3289 -0.5057  0.5202
  165MOL   O14149669   7.367   4.090   6.133 -0.2933  0.0535 -0.0335
  165MOL   C14249670   7.356   4.163   6.013  0.3134 -0.3432 -0.1863
  165MOL   C14349671   7.502   4.180   5.961  0.5505 -0.1979 -0.1906
  165MOL   H14449672   7.299   4.084   6.570  1.6868 -0.9609  0.5357
  165MOL   H14549673   7.289   4.215   6.464  1.0574 -0.0299  0.1655
  165MOL   H14649674   7.392   3.950   6.354 -0.2597  0.1113  2.3219
  165MOL   H14749675   7.293   4.101   5.949 -0.3096 -1.0778  1.1093
  165MOL   H14849676   7.307   4.261   6.017 -1.2167 -1.0640 -0.9905
  165MOL   H14949677   7.505   4.232   5.865 -2.4547  1.5878  0.6272
  165MOL   H15049678   7.538   4.079   5.945  0.3652 -0.5801  1.7115
  165MOL   H15149679   7.572   4.228   6.029 -0.8576  0.5993  0.7268
  165MOL   C15249680   7.184   3.933   6.414 -0.3626 -0.5150 -0.1590
  165MOL   C15349681   7.205   3.829   6.524 -0.2048 -1.5146  0.6052
  165MOL   C15449682   7.263   3.691   6.471  0.4578  0.0389 -0.3784
  165MOL   O15549683   7.253   3.649   6.355  0.2396  0.5436 -0.1680
  165MOL   O15649684   7.333   3.633   6.578 -0.2341  0.4342  0.0430
  165MOL   C15749685   7.389   3.500   6.568  0.6842 -0.0545  0.4131
  165MOL   C15849686   7.300   3.410   6.652 -0.6739 -0.5172  0.2694
  165MOL   H15949687   7.104   3.995   6.453 -0.6174 -0.7871 -0.2521
  165MOL   H16049688   7.136   3.887   6.328 -0.0376 -1.6508  0.2668
  165MOL   H16149689   7.284   3.860   6.593  0.5717  0.1922 -1.0015
  165MOL   H16249690   7.404   3.464   6.466  2.0790  1.1017  0.1912
  165MOL   H16349691   7.489   3.501   6.610  0.1914 -0.5004  1.6107
  165MOL   H16449692   7.321   3.304   6.635  0.8856  0.0481 -1.4860
  165MOL   H16549693   7.196   3.429   6.623 -0.0752  2.1452 -0.2187
  165MOL   H16649694   7.315   3.430   6.758 -0.8801  1.3294 -0.0407
  165MOL   C16749695   7.075   3.793   6.601  0.2177  0.1742  0.4780
  165MOL   C16849696   7.048   3.879   6.725 -0.1274  0.4082  0.0936
  165MOL   C16949697   7.165   3.867   6.826 -0.5781  0.3522 -0.5054
  165MOL   O17049698   7.210   3.964   6.887 -0.0667  0.3726  0.7087
  165MOL   O17149699   7.223   3.743   6.847  0.2057  0.0778 -0.0878
  165MOL   C17249700   7.350   3.720   6.912 -0.9923  0.0245 -0.1335
  165MOL   C17349701   7.334   3.633   7.036 -0.7810  0.0019  0.4423
  165MOL   H17449702   6.992   3.800   6.531  1.5152 -1.2334 -1.2532
  165MOL   H17549703   7.081   3.688   6.630 -1.3773  0.4425  1.8297
  165MOL   H17649704   7.044   3.985   6.702  3.0176 -0.0961 -3.2340
  165MOL   H17749705   7.399   3.664   6.833  0.9883  0.1005  1.0139
  165MOL   H17849706   7.398   3.815   6.936 -1.0189 -0.2235  0.9475
  165MOL   H17949707   7.291   3.534   7.020 -2.2179  0.8413 -0.8589
  165MOL   H18049708   7.290   3.691   7.118  0.3355  1.7796 -0.1877
  165MOL   H18149709   7.436   3.618   7.074 -0.8337 -1.3768  0.0538
  165MOL   C18249710   6.903   3.845   6.780 -0.2235 -0.0732 -1.1442
  165MOL   C18349711   6.859   3.927   6.907 -0.3890  0.0179 -0.2884
  165MOL   C18449712   6.734   3.866   6.984  0.0725  0.1256 -0.3212
  165MOL   O18549713   6.643   3.939   7.023  1.0093  0.0115 -0.0029
  165MOL   O18649714   6.752   3.739   7.017  0.1307 -0.6286  0.0888
  165MOL   C18749715   6.656   3.670   7.099  0.2114 -0.2928  0.6022
  165MOL   C18849716   6.660   3.515   7.092 -0.2813 -0.1304 -0.4852
  165MOL   H18949717   6.830   3.858   6.700 -0.4074  1.9174 -0.6831
  165MOL   H19049718   6.893   3.742   6.812  0.0094  0.3508  0.3528
  165MOL   H19149719   6.940   3.911   6.978 -0.7230  1.7292  0.5179
  165MOL   H19249720   6.672   3.696   7.203  2.1360  0.5350  0.1270
  165MOL   H19349721   6.554   3.701   7.075  0.3857  0.8661  1.2966
  165MOL   H19449722   6.595   3.474   7.170  0.9040  2.6183  2.0667
  165MOL   H19549723   6.766   3.495   7.111 -0.0742  2.5903  1.4656
  165MOL   H19649724   6.633   3.480   6.993 -0.3435 -1.2696 -0.0807
  165MOL   C19749725   6.841   4.085   6.885  0.2889 -0.6973  0.4348
  165MOL   C19849726   6.737   4.131   6.781  0.7134  0.2943 -0.0077
  165MOL   C19949727   6.787   4.119   6.635 -0.2826  0.1760  0.4399
  165MOL   O20049728   6.720   4.054   6.557 -0.2497  0.1578  0.3679
  165MOL   O20149729   6.895   4.202   6.611  0.1098 -0.5691  0.4682
  165MOL   C20249730   6.934   4.234   6.482 -0.2637  0.5595 -0.1760
  165MOL   C20349731   6.991   4.370   6.473 -0.0332  0.0805  0.5821
  165MOL   H20449732   6.817   4.128   6.982 -0.8579  0.4493 -0.3430
  165MOL   H20549733   6.935   4.124   6.847 -1.0535  1.6121 -0.6127
  165MOL   H20649734   6.649   4.067   6.787  1.2963 -0.5629 -0.4688
  165MOL   H20749735   6.999   4.152   6.454 -2.1799 -1.0577 -0.0579
  165MOL   H20849736   6.853   4.227   6.409 -1.0272  0.8394  0.6224
  165MOL   H20949737   7.056   4.396   6.389  2.0903 -0.0555  2.1463
  165MOL   H21049738   7.056   4.392   6.558  2.1207 -0.1160 -0.9641
  165MOL   H21149739   6.916   4.449   6.474  0.4419  0.5648 -0.9449
  165MOL   C21249740   6.690   4.284   6.812  0.6052  0.2456 -0.0093
  165MOL   C21349741   6.575   4.324   6.716  0.2017 -0.3502  0.5069
  165MOL   C21449742   6.563   4.480   6.721  0.7622 -0.1387  0.1218
  165MOL   O21549743   6.484   4.533   6.795 -0.0076 -0.0452 -0.3815
  165MOL   O21649744   6.646   4.540   6.632 -0.4596  0.4552  0.5220
  165MOL   C21749745   6.659   4.681   6.638  0.1393  0.6376 -0.1892
  165MOL   C21849746   6.801   4.711   6.587  0.0766 -0.2104 -0.1904
  165MOL   H21949747   6.655   4.289   6.915 -0.2269 -0.2711 -0.2634
  165MOL   H22049748   6.778   4.348   6.803 -0.2631  1.8803  2.7663
  165MOL   H22149749   6.604   4.300   6.614 -0.2025  1.4732 -0.0559
  165MOL   H22249750   6.582   4.737   6.585 -0.5647  1.0235  1.2060
  165MOL   H22349751   6.646   4.702   6.744 -0.4992  1.1484 -0.3661
  165MOL   H22449752   6.806   4.680   6.483 -1.0169  2.4563 -1.0768
  165MOL   H22549753   6.889   4.655   6.619  0.5211  1.3668  1.4626
  165MOL   H22649754   6.831   4.816   6.586  0.9443 -0.4051  1.6196
  165MOL   C22749755   6.444   4.252   6.745  0.4282 -0.5319 -0.0990
  165MOL   C22849756   6.328   4.287   6.642 -0.6799  0.3851 -0.2340
  165MOL   C22949757   6.189   4.296   6.704  0.4221 -0.5915  0.7000
  165MOL   O23049758   6.159   4.225   6.793  0.1358  0.4743  0.4399
  165MOL   O23149759   6.103   4.365   6.633  0.0188  0.0528  0.2558
  165MOL   C23249760   5.967   4.354   6.670 -0.1458 -0.6683 -0.0765
  165MOL   C23349761   5.896   4.486   6.624 -0.0062  0.8887 -0.7638
  165MOL   H23449762   6.458   4.144   6.746 -0.8655 -0.7151  0.2112
  165MOL   H23549763   6.424   4.284   6.848  1.6085  0.0198 -0.0365
  165MOL   H23649764   6.361   4.384   6.605 -1.5690  0.7188 -0.1576
  165MOL   H23749765   5.920   4.262   6.633 -0.6999  0.1495 -1.4375
  165MOL   H23849766   5.949   4.349   6.777 -0.8883 -0.8324 -0.2002
  165MOL   H23949767   5.796   4.508   6.661 -0.4159 -1.2387 -0.5234
  165MOL   H24049768   5.895   4.495   6.515 -0.7265 -2.8760 -1.1577
  165MOL   H24149769   5.942   4.579   6.655 -0.4503  0.7009  0.5039
  165MOL   C24249770   6.316   4.188   6.517  0.1204  0.1995  0.3655
  165MOL   C24349771   6.435   4.180   6.425 -0.0280  0.8257  0.3379
  165MOL   C24449772   6.466   4.319   6.362  0.2496  0.1254  1.2276
  165MOL   O24549773   6.579   4.367   6.361  0.3490  0.2405 -0.0050
  165MOL   O24649774   6.365   4.374   6.289 -0.4536  0.8052  0.5522
  165MOL   C24749775   6.386   4.485   6.202 -0.0799  0.2633  0.6494
  165MOL   C24849776   6.249   4.550   6.178 -0.4107 -0.1265  0.0687
  165MOL   H24949777   6.282   4.094   6.560 -1.0187  0.7469  0.6675
  165MOL   H25049778   6.235   4.208   6.448 -0.1998 -0.6519  0.4780
  165MOL   H25149779   6.528   4.155   6.475  0.2081  0.2805 -0.3720
  165MOL   H25249780   6.451   4.556   6.252 -0.2785  0.4552  0.6339
  165MOL   H25349781   6.417   4.453   6.103  1.7018 -1.0712  1.5866
  165MOL   H25449782   6.205   4.563   6.277  0.4388 -2.7577  0.8430
  165MOL   H25549783   6.189   4.478   6.122 -0.4209 -0.0227 -0.0533
  165MOL   H25649784   6.261   4.640   6.118 -1.1660  0.2754  0.5186
  165MOL   C25749785   6.405   4.073   6.316 -0.2363  0.6323  0.2811
  165MOL   C25849786   6.525   3.999   6.267  0.0838 -0.0489  0.2259
  165MOL   C25949787   6.586   4.072   6.150  0.0945 -0.0229  0.5401
  165MOL   O26049788   6.555   4.042   6.037  0.2328  0.5181  0.1514
  165MOL   O26149789   6.686   4.161   6.182 -0.0736  0.5198  0.3134
  165MOL   C26249790   6.740   4.234   6.079  0.5223 -0.4086  0.3347
  165MOL   C26349791   6.843   4.331   6.135 -0.2158  0.6906 -0.0486
  165MOL   H26449792   6.345   3.997   6.367 -1.0096  0.3986 -0.9420
  165MOL   H26549793   6.337   4.117   6.243 -0.8416 -1.7084 -0.6143
  165MOL   H26649794   6.586   3.997   6.357  0.2592 -0.4332  0.0992
  165MOL   H26749795   6.777   4.158   6.009 -2.6481 -2.3318  0.6337
  165MOL   H26849796   6.672   4.280   6.007  2.7714  0.6715 -1.1428
  165MOL   H26949797   6.891   4.378   6.049 -0.8564 -0.7840 -1.2333
  165MOL   H27049798   6.915   4.280   6.199  0.1554  0.7031 -0.4540
  165MOL   H27149799   6.789   4.409   6.188 -0.4681  1.8734 -2.0016
  165MOL   C27249800   6.496   3.847   6.230 -0.1613  0.5242  0.2055
  165MOL   C27349801   6.630   3.772   6.201  0.1995  0.7491  0.6498
  165MOL   C27449802   6.635   3.677   6.080  0.4777 -0.3994  0.4380
  165MOL   O27549803   6.610   3.555   6.087 -0.2419 -0.1089  0.1932
  165MOL   O27649804   6.638   3.737   5.958 -0.9277 -0.3916 -0.4153
  165MOL   C27749805   6.641   3.663   5.846 -0.8345 -0.1528  0.1558
  165MOL   C27849806   6.643   3.766   5.731  0.5078  0.4614 -1.1736
  165MOL   H27949807   6.453   3.797   6.316 -1.0794 -0.4557 -0.8148
  165MOL   H28049808   6.437   3.825   6.141  0.4193 -0.4474  0.0573
  165MOL   H28149809   6.710   3.840   6.170  0.2597  0.5161  0.2897
  165MOL   H28249810   6.727   3.597   5.834 -0.6896  0.0518  0.0677
  165MOL   H28349811   6.549   3.607   5.831 -1.7850  1.3573  0.3149
  165MOL   H28449812   6.594   3.860   5.757 -0.0809 -0.8124  2.5042
  165MOL   H28549813   6.612   3.723   5.636  2.3340  1.0979 -2.0957
  165MOL   H28649814   6.746   3.800   5.716  1.6932 -1.4028  2.3586
  165MOL   C28749815   6.684   3.706   6.333  0.4934  0.0145  0.3268
  165MOL   C28849816   6.818   3.635   6.330 -0.4015  0.0997  0.1814
  165MOL   C28949817   6.815   3.494   6.395 -0.3374  0.2934  0.2318
  165MOL   O29049818   6.878   3.473   6.495  0.8165  0.3609  0.9338
  165MOL   O29149819   6.747   3.406   6.324  0.0351  0.2825  0.5004
  165MOL   C29249820   6.709   3.283   6.380  0.4023 -0.2379  0.6712
  165MOL   C29349821   6.556   3.256   6.338  0.2374  0.5274  1.0523
  165MOL   H29449822   6.687   3.785   6.408 -1.3161 -0.5629  1.0503
  165MOL   H29549823   6.601   3.648   6.376  0.8664 -0.2182  0.7476
  165MOL   H29649824   6.860   3.624   6.230 -1.4155  0.3235 -0.2703
  165MOL   H29749825   6.775   3.212   6.331 -2.3577 -0.5333 -2.8706
  165MOL   H29849826   6.726   3.290   6.487  0.9238  1.1076  0.5170
  165MOL   H29949827   6.541   3.151   6.365 -1.1112  0.0422 -1.3998
  165MOL   H30049828   6.546   3.269   6.231 -1.0043  0.8675  1.2024
  165MOL   H30149829   6.488   3.326   6.387 -2.1186 -0.7500 -0.3330
  165MOL   H30249830   6.883   3.704   6.384 -2.1299  0.3622  1.9725
   7.90836   7.90836   7.90836
